* GENERATED BY CHARMM-GUI (HTTP://WWW.CHARMM-GUI.ORG) V3.7 ON OCT, 21. 2024. JOB
* INPUT GENERATION
*  DATE:    10/21/24     14: 8: 9      CREATED BY USER: apache
*
     20238  EXT
         1         1  OSM       N               1.3338865635        0.0492571601       21.4689472774  MEMB      1               0.0000000000
         2         1  OSM       C15             1.4521743966        0.7437482176       20.1593628745  MEMB      1               0.0000000000
         3         1  OSM       H15A            2.2415398913        0.2894646747       19.5615601142  MEMB      1               0.0000000000
         4         1  OSM       H15B            1.7505860234        1.7781769116       20.3151104007  MEMB      1               0.0000000000
         5         1  OSM       H15C            0.5226730944        0.7248695751       19.6029511863  MEMB      1               0.0000000000
         6         1  OSM       C14             0.1578842658        0.6550185523       22.1652432196  MEMB      1               0.0000000000
         7         1  OSM       H14A            0.3986901046        1.6898423156       22.4012036955  MEMB      1               0.0000000000
         8         1  OSM       H14B           -0.0819268829        0.1485228176       23.0859436474  MEMB      1               0.0000000000
         9         1  OSM       H14C           -0.7308983258        0.6110801173       21.5349946985  MEMB      1               0.0000000000
        10         1  OSM       C13             1.1307751362       -1.3924693123       21.1381654192  MEMB      1               0.0000000000
        11         1  OSM       H13A            1.9352948609       -1.7529616100       20.4988478238  MEMB      1               0.0000000000
        12         1  OSM       H13B            0.2226134296       -1.4889874662       20.5469255439  MEMB      1               0.0000000000
        13         1  OSM       H13C            1.0484129301       -1.9744324427       22.0417097862  MEMB      1               0.0000000000
        14         1  OSM       C12             2.6097358715        0.2240762801       22.2726670849  MEMB      1               0.0000000000
        15         1  OSM       H12A            3.4021768375       -0.2779796794       21.7173897398  MEMB      1               0.0000000000
        16         1  OSM       H12B            2.5156122002       -0.2647417593       23.2320612730  MEMB      1               0.0000000000
        17         1  OSM       C11             3.1368328660        1.6647643165       22.5100905748  MEMB      1               0.0000000000
        18         1  OSM       H11A            3.9658392427        1.6355990761       23.2553916371  MEMB      1               0.0000000000
        19         1  OSM       H11B            2.3168742968        2.2588702929       22.9619134828  MEMB      1               0.0000000000
        20         1  OSM       P               4.8525317686        1.7391527149       20.5443175855  MEMB      1               0.0000000000
        21         1  OSM       O13             6.1158525978        2.1036728526       21.2363714031  MEMB      1               0.0000000000
        22         1  OSM       O14             4.5924003535        0.2916673876       20.3369273322  MEMB      1               0.0000000000
        23         1  OSM       O11             4.7814618577        2.4828530951       19.1242802324  MEMB      1               0.0000000000
        24         1  OSM       O12             3.5698574888        2.3084067160       21.3108538340  MEMB      1               0.0000000000
        25         1  OSM       C1S             3.5602560010        3.1648991682       18.7898241115  MEMB      1               0.0000000000
        26         1  OSM       H1S             3.5164834266        4.1501580559       19.3053367775  MEMB      1               0.0000000000
        27         1  OSM       H1T             2.6549710188        2.6217695750       19.1095814939  MEMB      1               0.0000000000
        28         1  OSM       NF              3.3670257951        2.0255453353       16.6157272687  MEMB      1               0.0000000000
        29         1  OSM       HNF             4.2513971032        1.6153024905       16.4274076715  MEMB      1               0.0000000000
        30         1  OSM       C2S             3.3888997980        3.3328919966       17.2570799558  MEMB      1               0.0000000000
        31         1  OSM       H2S             2.4227738090        3.8605759125       17.0684393393  MEMB      1               0.0000000000
        32         1  OSM       C3S             4.5274218317        4.2466003637       16.7663670557  MEMB      1               0.0000000000
        33         1  OSM       H3S             5.5173929220        3.8086605179       17.0249572662  MEMB      1               0.0000000000
        34         1  OSM       O3              4.4542688801        5.5227825899       17.4029779204  MEMB      1               0.0000000000
        35         1  OSM       HO3             4.1784258562        5.3376773463       18.3053417069  MEMB      1               0.0000000000
        36         1  OSM       C4S             4.4594615221        4.4144553776       15.2745523726  MEMB      1               0.0000000000
        37         1  OSM       H4S             5.4479085972        4.3552597288       14.8105086866  MEMB      1               0.0000000000
        38         1  OSM       C5S             3.3808417484        4.6898096235       14.5082749275  MEMB      1               0.0000000000
        39         1  OSM       H5S             2.3991654456        4.8283005612       14.9946522203  MEMB      1               0.0000000000
        40         1  OSM       C6S             3.3776499232        4.8471006775       13.0040128175  MEMB      1               0.0000000000
        41         1  OSM       H6S             3.9574234361        5.7493856854       12.7058777386  MEMB      1               0.0000000000
        42         1  OSM       H6T             2.3262012394        5.0348724234       12.6823435953  MEMB      1               0.0000000000
        43         1  OSM       C7S             3.8605441003        3.6488347276       12.1427205459  MEMB      1               0.0000000000
        44         1  OSM       H7S             3.6439237587        3.9166687792       11.0826119263  MEMB      1               0.0000000000
        45         1  OSM       H7T             3.2627672572        2.7418511538       12.3806464151  MEMB      1               0.0000000000
        46         1  OSM       C8S             5.3596811493        3.3194087505       12.2497707231  MEMB      1               0.0000000000
        47         1  OSM       H8S             5.6148443169        3.0416392784       13.2935565860  MEMB      1               0.0000000000
        48         1  OSM       H8T             5.9396875332        4.2258602860       11.9739117697  MEMB      1               0.0000000000
        49         1  OSM       C9S             5.8371430815        2.1561090019       11.3676202143  MEMB      1               0.0000000000
        50         1  OSM       H9S             5.3283986226        1.2221183703       11.6799622716  MEMB      1               0.0000000000
        51         1  OSM       H9T             6.9243694117        2.0008753069       11.5433743359  MEMB      1               0.0000000000
        52         1  OSM       C10S            5.6243755030        2.3819232927        9.8703473238  MEMB      1               0.0000000000
        53         1  OSM       H10S            6.1917161040        3.2853284935        9.5530850617  MEMB      1               0.0000000000
        54         1  OSM       H10T            4.5491973598        2.5648541220        9.6561763582  MEMB      1               0.0000000000
        55         1  OSM       C11S            6.0806208029        1.1885299695        9.0292913823  MEMB      1               0.0000000000
        56         1  OSM       H11S            5.3687953409        0.3456978244        9.1806694433  MEMB      1               0.0000000000
        57         1  OSM       H11T            7.0818751123        0.8510408497        9.3689553658  MEMB      1               0.0000000000
        58         1  OSM       C12S            6.1281033092        1.5603349552        7.5472097494  MEMB      1               0.0000000000
        59         1  OSM       H12S            6.8565624275        2.3837022579        7.3775487364  MEMB      1               0.0000000000
        60         1  OSM       H12T            5.1161453922        1.9459615103        7.2802431032  MEMB      1               0.0000000000
        61         1  OSM       C13S            6.4597621332        0.3760155502        6.6366558368  MEMB      1               0.0000000000
        62         1  OSM       H13S            5.9491873775       -0.5284620757        7.0441923086  MEMB      1               0.0000000000
        63         1  OSM       H13T            7.5526168715        0.1738794065        6.6353352210  MEMB      1               0.0000000000
        64         1  OSM       C14S            5.9464196470        0.6150071268        5.2116577613  MEMB      1               0.0000000000
        65         1  OSM       H14S            6.6226429076        1.3016708282        4.6589135634  MEMB      1               0.0000000000
        66         1  OSM       H14T            4.9552506705        1.1179913100        5.3097666706  MEMB      1               0.0000000000
        67         1  OSM       C15S            5.7401021038       -0.7042880117        4.4558678615  MEMB      1               0.0000000000
        68         1  OSM       H15S            5.0789462574       -1.3309611402        5.0998267425  MEMB      1               0.0000000000
        69         1  OSM       H15T            6.7147475098       -1.2288418697        4.3484811230  MEMB      1               0.0000000000
        70         1  OSM       C16S            5.0545437733       -0.5850265784        3.0845287664  MEMB      1               0.0000000000
        71         1  OSM       H16S            4.6400174342       -1.5802712988        2.8034327386  MEMB      1               0.0000000000
        72         1  OSM       H16T            5.7982156858       -0.2983004975        2.3079074356  MEMB      1               0.0000000000
        73         1  OSM       C17S            3.9249500253        0.4472648910        3.0758577204  MEMB      1               0.0000000000
        74         1  OSM       H17S            4.4045080828        1.4492857645        3.1310064846  MEMB      1               0.0000000000
        75         1  OSM       H17T            3.2978336895        0.3156747755        3.9865496545  MEMB      1               0.0000000000
        76         1  OSM       C18S            3.0235732481        0.3836728915        1.8498887246  MEMB      1               0.0000000000
        77         1  OSM       H18S            2.4098480375       -0.5422052007        1.8798202866  MEMB      1               0.0000000000
        78         1  OSM       H18T            3.6257579413        0.4069294467        0.9174989780  MEMB      1               0.0000000000
        79         1  OSM       H18U            2.3275242705        1.2428332221        1.8220409058  MEMB      1               0.0000000000
        80         1  OSM       C1F             2.2542427638        1.2864659654       16.7120466737  MEMB      1               0.0000000000
        81         1  OSM       OF              1.2400680504        1.7962028320       17.1677909613  MEMB      1               0.0000000000
        82         1  OSM       C2F             2.2951858164       -0.1788356918       16.3684799881  MEMB      1               0.0000000000
        83         1  OSM       H2F             1.7338454903       -0.7284624437       17.1596831025  MEMB      1               0.0000000000
        84         1  OSM       H2G             3.3419477525       -0.5486956167       16.3769355594  MEMB      1               0.0000000000
        85         1  OSM       C3F             1.6223475155       -0.5044775582       15.0112316978  MEMB      1               0.0000000000
        86         1  OSM       H3F             0.5967740388       -0.0799815725       14.9619948212  MEMB      1               0.0000000000
        87         1  OSM       H3G             1.5095934060       -1.6124787337       14.9567893606  MEMB      1               0.0000000000
        88         1  OSM       C4F             2.4557906719       -0.0406118625       13.8089378161  MEMB      1               0.0000000000
        89         1  OSM       H4F             3.5257542484       -0.2194514572       14.0617045131  MEMB      1               0.0000000000
        90         1  OSM       H4G             2.3329905555        1.0519551507       13.6476358357  MEMB      1               0.0000000000
        91         1  OSM       C5F             2.1568358536       -0.8016647304       12.5047745936  MEMB      1               0.0000000000
        92         1  OSM       H5F             1.1869589416       -0.4807311139       12.0735132444  MEMB      1               0.0000000000
        93         1  OSM       H5G             2.0851049479       -1.8883145268       12.7321834544  MEMB      1               0.0000000000
        94         1  OSM       C6F             3.2804170486       -0.5731981846       11.4877137717  MEMB      1               0.0000000000
        95         1  OSM       H6F             4.2411156095       -0.7299850019       12.0234747970  MEMB      1               0.0000000000
        96         1  OSM       H6G             3.2697301673        0.4872108397       11.1482987376  MEMB      1               0.0000000000
        97         1  OSM       C7F             3.2829112609       -1.5028689092       10.2668565602  MEMB      1               0.0000000000
        98         1  OSM       H7F             3.0469484183       -2.5503119105       10.5527412738  MEMB      1               0.0000000000
        99         1  OSM       H7G             4.3304832844       -1.4921412718        9.8783902357  MEMB      1               0.0000000000
       100         1  OSM       C8F             2.3537676901       -1.0095848255        9.1513889159  MEMB      1               0.0000000000
       101         1  OSM       H8F             2.3426964084        0.1045923218        9.1857004579  MEMB      1               0.0000000000
       102         1  OSM       H8G             1.3117023658       -1.3429652310        9.3602000795  MEMB      1               0.0000000000
       103         1  OSM       C9F             2.8332063988       -1.4537097860        7.7932465618  MEMB      1               0.0000000000
       104         1  OSM       H9F             3.7687938208       -2.0349389023        7.7529940582  MEMB      1               0.0000000000
       105         1  OSM       C10F            2.1537470031       -1.2084308356        6.6687356862  MEMB      1               0.0000000000
       106         1  OSM       H10F            2.5441346702       -1.5564296410        5.6994705415  MEMB      1               0.0000000000
       107         1  OSM       C11F            0.8421000534       -0.4709400277        6.6540896897  MEMB      1               0.0000000000
       108         1  OSM       H11F            0.9691922972        0.5607660578        7.0545905073  MEMB      1               0.0000000000
       109         1  OSM       H11G            0.1128730602       -0.9840705619        7.3205595493  MEMB      1               0.0000000000
       110         1  OSM       C12F            0.2095004021       -0.4033555580        5.2562201905  MEMB      1               0.0000000000
       111         1  OSM       H12F           -0.8968415159       -0.4838597646        5.3521815339  MEMB      1               0.0000000000
       112         1  OSM       H12G            0.5245590869       -1.2631433453        4.6254064582  MEMB      1               0.0000000000
       113         1  OSM       C13F            0.5641267380        0.8933994396        4.5299379070  MEMB      1               0.0000000000
       114         1  OSM       H13F            0.8390634614        0.6372578162        3.4844881178  MEMB      1               0.0000000000
       115         1  OSM       H13G            1.4532048904        1.3637298714        5.0106165577  MEMB      1               0.0000000000
       116         1  OSM       C14F           -0.5980319191        1.8872431647        4.5213974808  MEMB      1               0.0000000000
       117         1  OSM       H14F           -1.0171967960        1.9651212795        5.5498987109  MEMB      1               0.0000000000
       118         1  OSM       H14G           -1.4062145145        1.5161896818        3.8532925434  MEMB      1               0.0000000000
       119         1  OSM       C15F           -0.1833929756        3.2969504706        4.0998603736  MEMB      1               0.0000000000
       120         1  OSM       H15F            0.5362979070        3.6962791327        4.8496028895  MEMB      1               0.0000000000
       121         1  OSM       H15G           -1.0963552517        3.9273436935        4.1521712440  MEMB      1               0.0000000000
       122         1  OSM       C16F            0.4357403171        3.4108619784        2.6989283234  MEMB      1               0.0000000000
       123         1  OSM       H16F           -0.3366707313        3.7872916757        1.9935027322  MEMB      1               0.0000000000
       124         1  OSM       H16G            0.7409070039        2.4192808796        2.3143156620  MEMB      1               0.0000000000
       125         1  OSM       C17F            1.6320076748        4.3770483362        2.6531453313  MEMB      1               0.0000000000
       126         1  OSM       H17F            1.3659493997        5.3256084850        3.1669235751  MEMB      1               0.0000000000
       127         1  OSM       H17G            1.7967818244        4.6260809247        1.5861180544  MEMB      1               0.0000000000
       128         1  OSM       C18F            2.9397976716        3.8284469973        3.2298830497  MEMB      1               0.0000000000
       129         1  OSM       H18F            2.7715378063        3.3231422967        4.2046901324  MEMB      1               0.0000000000
       130         1  OSM       H18G            3.6882522293        4.6379772735        3.3688235915  MEMB      1               0.0000000000
       131         1  OSM       H18H            3.3721920761        3.0943353382        2.5198526668  MEMB      1               0.0000000000
       132         2  SAPS      N              -0.7244514545       -3.9560964194       22.6353789258  MEMB      2               0.0000000000
       133         2  SAPS      HN1            -1.6319189097       -4.0993977795       23.1456020465  MEMB      2               0.0000000000
       134         2  SAPS      HN2             0.0238667794       -3.8118038432       23.3417570364  MEMB      2               0.0000000000
       135         2  SAPS      HN3            -0.7978705189       -3.1321383642       22.0191301751  MEMB      2               0.0000000000
       136         2  SAPS      C12            -0.5889414930       -5.2038436402       21.8505220567  MEMB      2               0.0000000000
       137         2  SAPS      H12A            0.4088185088       -5.6035009983       21.9487899826  MEMB      2               0.0000000000
       138         2  SAPS      C13            -1.6362801574       -6.2335651833       22.3830920331  MEMB      2               0.0000000000
       139         2  SAPS      O13A           -2.4673012607       -5.7896895607       23.2352343967  MEMB      2               0.0000000000
       140         2  SAPS      O13B           -1.4543359396       -7.4651854880       22.1830464544  MEMB      2               0.0000000000
       141         2  SAPS      C11            -0.8748472446       -4.7887343102       20.3846357303  MEMB      2               0.0000000000
       142         2  SAPS      H11A           -0.3639920807       -3.8363263723       20.1151408488  MEMB      2               0.0000000000
       143         2  SAPS      H11B           -1.9743225608       -4.5856307518       20.3060010647  MEMB      2               0.0000000000
       144         2  SAPS      P              -1.4213265656       -6.2786581180       18.3538584934  MEMB      2               0.0000000000
       145         2  SAPS      O13            -2.6645270537       -6.7066973059       19.0443703327  MEMB      2               0.0000000000
       146         2  SAPS      O14            -1.4952283990       -5.1910796165       17.3509529757  MEMB      2               0.0000000000
       147         2  SAPS      O12            -0.4057973685       -5.7944487460       19.4881149536  MEMB      2               0.0000000000
       148         2  SAPS      O11            -0.6523622039       -7.5595447188       17.8141599718  MEMB      2               0.0000000000
       149         2  SAPS      C1             -0.3179940518       -8.5616642345       18.7904854547  MEMB      2               0.0000000000
       150         2  SAPS      HA              0.7558073375       -8.4728428094       19.0553570982  MEMB      2               0.0000000000
       151         2  SAPS      HB             -0.8833941643       -8.4686348595       19.7555866798  MEMB      2               0.0000000000
       152         2  SAPS      C2             -0.6603837689       -9.9784987536       18.2562364455  MEMB      2               0.0000000000
       153         2  SAPS      HS             -0.4149296728      -10.6937456579       19.0707118818  MEMB      2               0.0000000000
       154         2  SAPS      O21             0.0674112756      -10.3655292781       17.0884009923  MEMB      2               0.0000000000
       155         2  SAPS      C21             1.2641897620       -9.8933449533       16.9412191766  MEMB      2               0.0000000000
       156         2  SAPS      O22             2.1656728675       -9.9242270226       17.7645958301  MEMB      2               0.0000000000
       157         2  SAPS      C22             1.3937560954       -9.3460412154       15.5391722063  MEMB      2               0.0000000000
       158         2  SAPS      H2R             1.3499273508      -10.2041620830       14.8355004971  MEMB      2               0.0000000000
       159         2  SAPS      H2S             0.5285343446       -8.6767501602       15.3419850658  MEMB      2               0.0000000000
       160         2  SAPS      C3             -2.1778145167      -10.1349680234       17.9246680125  MEMB      2               0.0000000000
       161         2  SAPS      HX             -2.7177735431      -10.0715169000       18.8941836284  MEMB      2               0.0000000000
       162         2  SAPS      HY             -2.3292664874      -11.1593405249       17.5150134049  MEMB      2               0.0000000000
       163         2  SAPS      O31            -2.7446447806       -9.1356232376       17.0420013590  MEMB      2               0.0000000000
       164         2  SAPS      C31            -2.4106603508       -9.1764639879       15.7549698630  MEMB      2               0.0000000000
       165         2  SAPS      O32            -1.7235357842      -10.0359967087       15.2331806326  MEMB      2               0.0000000000
       166         2  SAPS      C32            -3.2368535568       -8.1344785198       14.9801445151  MEMB      2               0.0000000000
       167         2  SAPS      H2X            -3.5918061907       -7.3624621132       15.7012975622  MEMB      2               0.0000000000
       168         2  SAPS      H2Y            -4.1183870520       -8.6642360849       14.5685101068  MEMB      2               0.0000000000
       169         2  SAPS      C23             2.7044065650       -8.5591519047       15.4008696173  MEMB      2               0.0000000000
       170         2  SAPS      H3R             3.5320193822       -9.1290955808       15.8811039729  MEMB      2               0.0000000000
       171         2  SAPS      H3S             2.6134731770       -7.5966369524       15.9497455307  MEMB      2               0.0000000000
       172         2  SAPS      C24             3.0781654371       -8.3769409800       13.9296109177  MEMB      2               0.0000000000
       173         2  SAPS      H4R             2.7729260517       -9.3073291934       13.4076142793  MEMB      2               0.0000000000
       174         2  SAPS      H4S             4.1825912056       -8.3207021736       13.8219734437  MEMB      2               0.0000000000
       175         2  SAPS      C25             2.4204741783       -7.1707082491       13.3240885204  MEMB      2               0.0000000000
       176         2  SAPS      H5R             1.9145198883       -6.4809965804       14.0221123013  MEMB      2               0.0000000000
       177         2  SAPS      C26             2.4081512670       -6.9241686831       12.0080303620  MEMB      2               0.0000000000
       178         2  SAPS      H6R             1.9578490785       -5.9882775239       11.6461930375  MEMB      2               0.0000000000
       179         2  SAPS      C27             3.0400445817       -7.7972938025       10.9567533000  MEMB      2               0.0000000000
       180         2  SAPS      H7R             4.1112499411       -7.9105869406       11.2124853239  MEMB      2               0.0000000000
       181         2  SAPS      H7S             3.0104805971       -7.2461890301        9.9964769265  MEMB      2               0.0000000000
       182         2  SAPS      C28             2.5493975273       -9.2047674738       10.7489119103  MEMB      2               0.0000000000
       183         2  SAPS      H8R             2.8900550409       -9.9305677284       11.4970755541  MEMB      2               0.0000000000
       184         2  SAPS      C29             1.8304247244       -9.6725880653        9.7244364192  MEMB      2               0.0000000000
       185         2  SAPS      H9R             1.6980345489      -10.7494344789        9.6519421147  MEMB      2               0.0000000000
       186         2  SAPS      C210            1.3217258958       -8.9329601395        8.5280297263  MEMB      2               0.0000000000
       187         2  SAPS      H10R            2.0084582759       -9.1310986983        7.6758520776  MEMB      2               0.0000000000
       188         2  SAPS      H10S            1.3496845859       -7.8353268894        8.6872197090  MEMB      2               0.0000000000
       189         2  SAPS      C211           -0.0771799587       -9.3794327577        8.1794205786  MEMB      2               0.0000000000
       190         2  SAPS      H11R           -0.5986134190      -10.0562166724        8.8770620104  MEMB      2               0.0000000000
       191         2  SAPS      C212           -0.7044157874       -8.9819085710        7.0653269904  MEMB      2               0.0000000000
       192         2  SAPS      H12R           -1.7261908448       -9.3322768463        6.8556452675  MEMB      2               0.0000000000
       193         2  SAPS      C213           -0.0894899003       -8.0549423485        6.0504677216  MEMB      2               0.0000000000
       194         2  SAPS      H13R            0.5024613624       -7.2964716453        6.5887248678  MEMB      2               0.0000000000
       195         2  SAPS      H13S           -0.8964939818       -7.5023634308        5.5173557312  MEMB      2               0.0000000000
       196         2  SAPS      C214            0.8724078159       -8.6458602167        5.0637438176  MEMB      2               0.0000000000
       197         2  SAPS      H14R            1.9228844257       -8.3389919429        5.1873538570  MEMB      2               0.0000000000
       198         2  SAPS      C215            0.5472038083       -9.4970271331        4.0880715514  MEMB      2               0.0000000000
       199         2  SAPS      H15R            1.3193864561       -9.8123222645        3.3699088666  MEMB      2               0.0000000000
       200         2  SAPS      C216           -0.8389101243      -10.0022532856        3.8232100057  MEMB      2               0.0000000000
       201         2  SAPS      H16R           -1.5869524348       -9.6427169616        4.5633642105  MEMB      2               0.0000000000
       202         2  SAPS      H16S           -0.8198606377      -11.1017858924        3.9259006005  MEMB      2               0.0000000000
       203         2  SAPS      C217           -1.3543838965       -9.5964891259        2.4375438791  MEMB      2               0.0000000000
       204         2  SAPS      H17R           -2.2286576919      -10.2495987828        2.2362040941  MEMB      2               0.0000000000
       205         2  SAPS      H17S           -0.5994177394       -9.7900252656        1.6460453764  MEMB      2               0.0000000000
       206         2  SAPS      C218           -1.8203485644       -8.1318830841        2.3795167738  MEMB      2               0.0000000000
       207         2  SAPS      H18R           -0.9740134954       -7.4593850510        2.6422005034  MEMB      2               0.0000000000
       208         2  SAPS      H18S           -2.6084048658       -7.9860422315        3.1521489026  MEMB      2               0.0000000000
       209         2  SAPS      C219           -2.3823396535       -7.7260779176        1.0088481844  MEMB      2               0.0000000000
       210         2  SAPS      H19R           -1.5390999188       -7.6815893432        0.2858631870  MEMB      2               0.0000000000
       211         2  SAPS      H19S           -2.8159479780       -6.7027353862        1.0833923500  MEMB      2               0.0000000000
       212         2  SAPS      C220           -3.4231498180       -8.6941254096        0.4441996475  MEMB      2               0.0000000000
       213         2  SAPS      H20R           -2.9563011841       -9.6835986689        0.2544215570  MEMB      2               0.0000000000
       214         2  SAPS      H20S           -3.8225890604       -8.3281563601       -0.5203424979  MEMB      2               0.0000000000
       215         2  SAPS      H20T           -4.2672413686       -8.8280585027        1.1535486136  MEMB      2               0.0000000000
       216         2  SAPS      C33            -2.4802097279       -7.4137912315       13.8318423932  MEMB      2               0.0000000000
       217         2  SAPS      H3X            -1.5800277111       -6.9127786085       14.2560075994  MEMB      2               0.0000000000
       218         2  SAPS      H3Y            -3.1449886141       -6.6069154964       13.4438748918  MEMB      2               0.0000000000
       219         2  SAPS      C34            -2.0701643096       -8.3052024305       12.6413172926  MEMB      2               0.0000000000
       220         2  SAPS      H4X            -2.9553085224       -8.6514688108       12.0703465249  MEMB      2               0.0000000000
       221         2  SAPS      H4Y            -1.5470560945       -9.2057528891       13.0330935961  MEMB      2               0.0000000000
       222         2  SAPS      C35            -1.0599899028       -7.6147095139       11.7153290661  MEMB      2               0.0000000000
       223         2  SAPS      H5X            -0.6010939024       -8.3682939934       11.0355709451  MEMB      2               0.0000000000
       224         2  SAPS      H5Y            -0.2511512034       -7.2218354718       12.3683786225  MEMB      2               0.0000000000
       225         2  SAPS      C36            -1.6138707634       -6.4650254416       10.8631037287  MEMB      2               0.0000000000
       226         2  SAPS      H6X            -2.2148723973       -5.7768384440       11.4947011521  MEMB      2               0.0000000000
       227         2  SAPS      H6Y            -2.2751353998       -6.8903061768       10.0756052709  MEMB      2               0.0000000000
       228         2  SAPS      C37            -0.4710423927       -5.6768926270       10.2037126559  MEMB      2               0.0000000000
       229         2  SAPS      H7X             0.1618720405       -6.3933098566        9.6374474489  MEMB      2               0.0000000000
       230         2  SAPS      H7Y             0.1564678877       -5.2207388212       11.0003386469  MEMB      2               0.0000000000
       231         2  SAPS      C38            -0.9226763057       -4.5632978075        9.2530759479  MEMB      2               0.0000000000
       232         2  SAPS      H8X            -1.2524131645       -3.6978812138        9.8719314374  MEMB      2               0.0000000000
       233         2  SAPS      H8Y            -1.7954499192       -4.9165177970        8.6668136998  MEMB      2               0.0000000000
       234         2  SAPS      C39             0.1999071108       -4.1022459181        8.3024848843  MEMB      2               0.0000000000
       235         2  SAPS      H9X             1.1749023377       -4.2549014943        8.8185625554  MEMB      2               0.0000000000
       236         2  SAPS      H9Y             0.0943953689       -3.0140438575        8.1095125158  MEMB      2               0.0000000000
       237         2  SAPS      C310            0.2193603130       -4.8386770281        6.9495088378  MEMB      2               0.0000000000
       238         2  SAPS      H10X           -0.5518511761       -5.6367818823        6.9929960877  MEMB      2               0.0000000000
       239         2  SAPS      H10Y            1.2225441818       -5.3042060762        6.8186472885  MEMB      2               0.0000000000
       240         2  SAPS      C311           -0.0823910303       -3.9591640880        5.7256389513  MEMB      2               0.0000000000
       241         2  SAPS      H11X            0.6492156548       -3.1301530075        5.7013871044  MEMB      2               0.0000000000
       242         2  SAPS      H11Y           -1.0933209088       -3.5142996854        5.8600938153  MEMB      2               0.0000000000
       243         2  SAPS      C312           -0.0364372694       -4.6614578114        4.3510779970  MEMB      2               0.0000000000
       244         2  SAPS      H12X           -0.3838435686       -3.9176257075        3.5959174326  MEMB      2               0.0000000000
       245         2  SAPS      H12Y           -0.7552524081       -5.5089820382        4.3281366813  MEMB      2               0.0000000000
       246         2  SAPS      C313            1.3592533290       -5.1516330568        3.9180687111  MEMB      2               0.0000000000
       247         2  SAPS      H13X            1.6103243289       -6.0684969436        4.4908357873  MEMB      2               0.0000000000
       248         2  SAPS      H13Y            2.1196959876       -4.3819274717        4.1755352257  MEMB      2               0.0000000000
       249         2  SAPS      C314            1.4580451505       -5.4433433516        2.4033307325  MEMB      2               0.0000000000
       250         2  SAPS      H14X            2.1012647008       -4.6770642026        1.9209429792  MEMB      2               0.0000000000
       251         2  SAPS      H14Y            0.4317490725       -5.3321470493        1.9842658739  MEMB      2               0.0000000000
       252         2  SAPS      C315            1.9716593195       -6.8582027989        2.0620277023  MEMB      2               0.0000000000
       253         2  SAPS      H15X            1.2330447694       -7.5653456922        2.4869150083  MEMB      2               0.0000000000
       254         2  SAPS      H15Y            2.9466002361       -7.0567504608        2.5534944309  MEMB      2               0.0000000000
       255         2  SAPS      C316            2.1052363182       -7.2044333716        0.5639004603  MEMB      2               0.0000000000
       256         2  SAPS      H16X            1.9981324161       -8.3066238742        0.4463496087  MEMB      2               0.0000000000
       257         2  SAPS      H16Y            3.1224087152       -6.9269660453        0.2108248670  MEMB      2               0.0000000000
       258         2  SAPS      C317            1.0835714674       -6.4892472764       -0.3242245593  MEMB      2               0.0000000000
       259         2  SAPS      H17X            1.4434441405       -5.4481816894       -0.4273865391  MEMB      2               0.0000000000
       260         2  SAPS      H17Y            0.1034969000       -6.4531585542        0.1949902890  MEMB      2               0.0000000000
       261         2  SAPS      C318            0.8782326864       -7.0683577512       -1.7236775011  MEMB      2               0.0000000000
       262         2  SAPS      H18X            1.8384788210       -7.1110164188       -2.2772482011  MEMB      2               0.0000000000
       263         2  SAPS      H18Y            0.1749855965       -6.4252553658       -2.2981873226  MEMB      2               0.0000000000
       264         2  SAPS      H18Z            0.4464900056       -8.0897807419       -1.6650827281  MEMB      2               0.0000000000
       265         3  SAPE      N              -6.9415209719        2.7855960053       17.2482821399  MEMB      3               0.0000000000
       266         3  SAPE      HN1            -6.1696457751        3.4628655401       17.0934795059  MEMB      3               0.0000000000
       267         3  SAPE      HN2            -6.7264973340        1.8980143441       16.7484066547  MEMB      3               0.0000000000
       268         3  SAPE      HN3            -7.8196177035        3.1898608491       16.8596642624  MEMB      3               0.0000000000
       269         3  SAPE      C12            -7.0782740450        2.4931826918       18.7250654792  MEMB      3               0.0000000000
       270         3  SAPE      H12A           -7.9200669166        1.7764784033       18.8459483186  MEMB      3               0.0000000000
       271         3  SAPE      H12B           -7.3230787433        3.4340897576       19.2592748591  MEMB      3               0.0000000000
       272         3  SAPE      C11            -5.8129326436        1.8867055707       19.3390210139  MEMB      3               0.0000000000
       273         3  SAPE      H11A           -5.0579540254        2.6924500523       19.5183567647  MEMB      3               0.0000000000
       274         3  SAPE      H11B           -5.3673924144        1.1135260093       18.6731533662  MEMB      3               0.0000000000
       275         3  SAPE      P              -5.1393932138        0.7889392752       21.6012203759  MEMB      3               0.0000000000
       276         3  SAPE      O13            -4.1998505060        1.8957767610       21.9128926623  MEMB      3               0.0000000000
       277         3  SAPE      O14            -5.7443241028        0.0584605410       22.7471415859  MEMB      3               0.0000000000
       278         3  SAPE      O12            -6.2214987800        1.2729605407       20.5506825775  MEMB      3               0.0000000000
       279         3  SAPE      O11            -4.3234823644       -0.2301080477       20.7424590858  MEMB      3               0.0000000000
       280         3  SAPE      C1             -4.8231485931       -1.4378135156       20.1918185948  MEMB      3               0.0000000000
       281         3  SAPE      HA             -5.1708917597       -2.1256334761       20.9954900386  MEMB      3               0.0000000000
       282         3  SAPE      HB             -5.6696320500       -1.2491258527       19.4932331496  MEMB      3               0.0000000000
       283         3  SAPE      C2             -3.6764483345       -2.1044569758       19.3945023621  MEMB      3               0.0000000000
       284         3  SAPE      HS             -2.8989156063       -2.3904834369       20.1391969426  MEMB      3               0.0000000000
       285         3  SAPE      O21            -3.1872976747       -1.1440447207       18.4343931144  MEMB      3               0.0000000000
       286         3  SAPE      C21            -2.1274182954       -0.4546245360       18.8242358667  MEMB      3               0.0000000000
       287         3  SAPE      O22            -1.3353758669       -0.8065608421       19.6887149192  MEMB      3               0.0000000000
       288         3  SAPE      C22            -2.0284368832        0.8448987161       17.9990686389  MEMB      3               0.0000000000
       289         3  SAPE      H2R            -2.4713357137        1.6635346074       18.6000785227  MEMB      3               0.0000000000
       290         3  SAPE      H2S            -0.9538951858        1.0633951649       17.8556996395  MEMB      3               0.0000000000
       291         3  SAPE      C3             -4.0952079281       -3.4173796696       18.6751023444  MEMB      3               0.0000000000
       292         3  SAPE      HX             -4.6065959285       -4.1123681087       19.3761435110  MEMB      3               0.0000000000
       293         3  SAPE      HY             -3.1403707269       -3.9095096043       18.3841099945  MEMB      3               0.0000000000
       294         3  SAPE      O31            -4.9517584714       -3.1294000887       17.5504363585  MEMB      3               0.0000000000
       295         3  SAPE      C31            -4.4226616473       -3.5613436984       16.4013356625  MEMB      3               0.0000000000
       296         3  SAPE      O32            -4.3915142106       -4.7162531405       16.0286818608  MEMB      3               0.0000000000
       297         3  SAPE      C32            -3.7581624617       -2.3853460438       15.6695367531  MEMB      3               0.0000000000
       298         3  SAPE      H2X            -2.6726662216       -2.4989757777       15.8903360654  MEMB      3               0.0000000000
       299         3  SAPE      H2Y            -4.1357266669       -1.4490168872       16.1203969537  MEMB      3               0.0000000000
       300         3  SAPE      C23            -2.7215444987        0.7775819970       16.6092254851  MEMB      3               0.0000000000
       301         3  SAPE      H3R            -3.8090625280        0.5924082332       16.7613611779  MEMB      3               0.0000000000
       302         3  SAPE      H3S            -2.3044911576       -0.0788772519       16.0322830598  MEMB      3               0.0000000000
       303         3  SAPE      C24            -2.6071245081        2.0442371127       15.7362700018  MEMB      3               0.0000000000
       304         3  SAPE      H4R            -3.0195497764        2.8951181948       16.3216543962  MEMB      3               0.0000000000
       305         3  SAPE      H4S            -3.2723716825        1.9083637162       14.8531154844  MEMB      3               0.0000000000
       306         3  SAPE      C25            -1.2171887052        2.3964181267       15.2696371594  MEMB      3               0.0000000000
       307         3  SAPE      H5R            -0.6163673035        2.9513688593       16.0069754204  MEMB      3               0.0000000000
       308         3  SAPE      C26            -0.6441244407        2.1293413620       14.0799504561  MEMB      3               0.0000000000
       309         3  SAPE      H6R             0.3769090946        2.5069594759       13.9086350535  MEMB      3               0.0000000000
       310         3  SAPE      C27            -1.2404786392        1.3973565404       12.8992730710  MEMB      3               0.0000000000
       311         3  SAPE      H7R            -2.0646528941        0.7327590642       13.2320730608  MEMB      3               0.0000000000
       312         3  SAPE      H7S            -0.4675598886        0.7259832899       12.4767745588  MEMB      3               0.0000000000
       313         3  SAPE      C28            -1.7718711546        2.3197935534       11.8381902244  MEMB      3               0.0000000000
       314         3  SAPE      H8R            -2.0770502128        3.3067826369       12.2147737391  MEMB      3               0.0000000000
       315         3  SAPE      C29            -1.8946321490        2.0767318757       10.5179883056  MEMB      3               0.0000000000
       316         3  SAPE      H9R            -2.3444045977        2.8710171183        9.8986528661  MEMB      3               0.0000000000
       317         3  SAPE      C210           -1.5298645826        0.8163920165        9.7705521416  MEMB      3               0.0000000000
       318         3  SAPE      H10R           -2.1072492345       -0.0480017331       10.1667986810  MEMB      3               0.0000000000
       319         3  SAPE      H10S           -0.4567162241        0.5742173752        9.9398071143  MEMB      3               0.0000000000
       320         3  SAPE      C211           -1.7556306951        1.0079747877        8.2866612552  MEMB      3               0.0000000000
       321         3  SAPE      H11R           -1.0934415177        1.7611305241        7.8294298531  MEMB      3               0.0000000000
       322         3  SAPE      C212           -2.6278485881        0.3642544886        7.4818657123  MEMB      3               0.0000000000
       323         3  SAPE      H12R           -2.6488828178        0.6364080417        6.4141474349  MEMB      3               0.0000000000
       324         3  SAPE      C213           -3.6102225129       -0.7197392333        7.8543333357  MEMB      3               0.0000000000
       325         3  SAPE      H13R           -4.5155893556       -0.6183914607        7.2181255713  MEMB      3               0.0000000000
       326         3  SAPE      H13S           -3.9625342379       -0.5739283492        8.8970446496  MEMB      3               0.0000000000
       327         3  SAPE      C214           -3.0047177394       -2.0985245129        7.7526881580  MEMB      3               0.0000000000
       328         3  SAPE      H14R           -1.9985484632       -2.1846718563        8.1919908425  MEMB      3               0.0000000000
       329         3  SAPE      C215           -3.5508854314       -3.1998167020        7.2020377616  MEMB      3               0.0000000000
       330         3  SAPE      H15R           -2.9600990382       -4.1270868560        7.1938370071  MEMB      3               0.0000000000
       331         3  SAPE      C216           -4.8993483392       -3.3427773597        6.5475182290  MEMB      3               0.0000000000
       332         3  SAPE      H16R           -5.5017958605       -2.4127139422        6.6207975569  MEMB      3               0.0000000000
       333         3  SAPE      H16S           -5.4748495124       -4.1372946929        7.0712337823  MEMB      3               0.0000000000
       334         3  SAPE      C217           -4.7715153144       -3.7378368128        5.0633245057  MEMB      3               0.0000000000
       335         3  SAPE      H17R           -5.7661364138       -4.0912203438        4.7061344885  MEMB      3               0.0000000000
       336         3  SAPE      H17S           -4.0577906182       -4.5842755708        4.9495563848  MEMB      3               0.0000000000
       337         3  SAPE      C218           -4.3269054748       -2.5676768340        4.1785764035  MEMB      3               0.0000000000
       338         3  SAPE      H18R           -3.3553442291       -2.1662642629        4.5434384426  MEMB      3               0.0000000000
       339         3  SAPE      H18S           -5.0768382914       -1.7491723404        4.2738432029  MEMB      3               0.0000000000
       340         3  SAPE      C219           -4.1838607100       -2.9406602225        2.6994121584  MEMB      3               0.0000000000
       341         3  SAPE      H19R           -5.1583512959       -3.3236079458        2.3233215041  MEMB      3               0.0000000000
       342         3  SAPE      H19S           -3.4438574253       -3.7651483574        2.5889922642  MEMB      3               0.0000000000
       343         3  SAPE      C220           -3.7531988602       -1.7419029155        1.8554515653  MEMB      3               0.0000000000
       344         3  SAPE      H20R           -4.4245055576       -0.8810753043        2.0597330445  MEMB      3               0.0000000000
       345         3  SAPE      H20S           -3.7944195657       -1.9800668141        0.7698773878  MEMB      3               0.0000000000
       346         3  SAPE      H20T           -2.7209410512       -1.4309479883        2.1220773634  MEMB      3               0.0000000000
       347         3  SAPE      C33            -3.9349415388       -2.3198759248       14.1312731007  MEMB      3               0.0000000000
       348         3  SAPE      H3X            -4.4759279492       -3.2169614886       13.7604508705  MEMB      3               0.0000000000
       349         3  SAPE      H3Y            -2.9211967118       -2.3624884659       13.6692635498  MEMB      3               0.0000000000
       350         3  SAPE      C34            -4.6273778904       -1.0412741137       13.6161734356  MEMB      3               0.0000000000
       351         3  SAPE      H4X            -4.0433407436       -0.1432274718       13.9155415854  MEMB      3               0.0000000000
       352         3  SAPE      H4Y            -5.6428159031       -0.9560904282       14.0601310431  MEMB      3               0.0000000000
       353         3  SAPE      C35            -4.7342721702       -1.0800383350       12.0817865639  MEMB      3               0.0000000000
       354         3  SAPE      H5X            -4.9043193265       -2.1482296590       11.8078340423  MEMB      3               0.0000000000
       355         3  SAPE      H5Y            -3.7645686157       -0.7912981798       11.6215739024  MEMB      3               0.0000000000
       356         3  SAPE      C36            -5.8969418646       -0.2920981623       11.4466916262  MEMB      3               0.0000000000
       357         3  SAPE      H6X            -6.7506458007       -0.1581076609       12.1400857624  MEMB      3               0.0000000000
       358         3  SAPE      H6Y            -6.2652837913       -0.9438250702       10.6173993798  MEMB      3               0.0000000000
       359         3  SAPE      C37            -5.5034716674        1.0375253382       10.7798931861  MEMB      3               0.0000000000
       360         3  SAPE      H7X            -4.4660160223        0.9279332754       10.3933015762  MEMB      3               0.0000000000
       361         3  SAPE      H7Y            -5.4933208872        1.8740859148       11.5084738040  MEMB      3               0.0000000000
       362         3  SAPE      C38            -6.4031884045        1.3557623722        9.5699841597  MEMB      3               0.0000000000
       363         3  SAPE      H8X            -7.4388143074        1.5903977766        9.8940105225  MEMB      3               0.0000000000
       364         3  SAPE      H8Y            -6.4575385812        0.4223807658        8.9611753300  MEMB      3               0.0000000000
       365         3  SAPE      C39            -5.8394615180        2.4657764464        8.6660672170  MEMB      3               0.0000000000
       366         3  SAPE      H9X            -4.7338759000        2.4775584894        8.8058140914  MEMB      3               0.0000000000
       367         3  SAPE      H9Y            -6.2244324110        3.4584697075        8.9839891547  MEMB      3               0.0000000000
       368         3  SAPE      C310           -6.1192561201        2.2228835774        7.1698912792  MEMB      3               0.0000000000
       369         3  SAPE      H10X           -7.1689341951        2.4954562711        6.9271650194  MEMB      3               0.0000000000
       370         3  SAPE      H10Y           -5.9988184454        1.1340619706        6.9681176737  MEMB      3               0.0000000000
       371         3  SAPE      C311           -5.1451741887        2.9732214991        6.2472837054  MEMB      3               0.0000000000
       372         3  SAPE      H11X           -4.1125439064        2.8005955266        6.6300726783  MEMB      3               0.0000000000
       373         3  SAPE      H11Y           -5.3477897138        4.0640177632        6.3007645225  MEMB      3               0.0000000000
       374         3  SAPE      C312           -5.1715436689        2.4989058832        4.7840629278  MEMB      3               0.0000000000
       375         3  SAPE      H12X           -5.4994578331        1.4376146662        4.7375309814  MEMB      3               0.0000000000
       376         3  SAPE      H12Y           -4.1325006487        2.5389863564        4.3814891885  MEMB      3               0.0000000000
       377         3  SAPE      C313           -6.0430420097        3.3723967159        3.8711305582  MEMB      3               0.0000000000
       378         3  SAPE      H13X           -5.6482313450        4.4138705646        3.8977824336  MEMB      3               0.0000000000
       379         3  SAPE      H13Y           -7.0856135630        3.4017737627        4.2593644907  MEMB      3               0.0000000000
       380         3  SAPE      C314           -6.0597894296        2.8824024088        2.4122464258  MEMB      3               0.0000000000
       381         3  SAPE      H14X           -5.0469564075        2.5475267167        2.0993653425  MEMB      3               0.0000000000
       382         3  SAPE      H14Y           -6.3385521561        3.7418538809        1.7641048956  MEMB      3               0.0000000000
       383         3  SAPE      C315           -7.0778128620        1.7514183299        2.2214850282  MEMB      3               0.0000000000
       384         3  SAPE      H15X           -8.0459769928        2.0907514977        2.6577889839  MEMB      3               0.0000000000
       385         3  SAPE      H15Y           -6.7416307541        0.8722675175        2.8056310909  MEMB      3               0.0000000000
       386         3  SAPE      C316           -7.3530780008        1.3234528949        0.7726666746  MEMB      3               0.0000000000
       387         3  SAPE      H16X           -7.5444106987        2.1993578304        0.1213547955  MEMB      3               0.0000000000
       388         3  SAPE      H16Y           -8.2811654427        0.7067454293        0.7876573744  MEMB      3               0.0000000000
       389         3  SAPE      C317           -6.2631894164        0.4737216029        0.1253424643  MEMB      3               0.0000000000
       390         3  SAPE      H17X           -5.9920925199       -0.3334639649        0.8353156937  MEMB      3               0.0000000000
       391         3  SAPE      H17Y           -5.3625019111        1.1001302284       -0.0565824663  MEMB      3               0.0000000000
       392         3  SAPE      C318           -6.7438178497       -0.1561025681       -1.1814149387  MEMB      3               0.0000000000
       393         3  SAPE      H18X           -6.9482235191        0.6347270196       -1.9353309582  MEMB      3               0.0000000000
       394         3  SAPE      H18Y           -7.6915129909       -0.7122152351       -1.0106032255  MEMB      3               0.0000000000
       395         3  SAPE      H18Z           -5.9929217816       -0.8645720746       -1.5894288553  MEMB      3               0.0000000000
       396         4  CHL1      C3             -1.0111648397        6.8071423040       17.2952783917  MEMB      4               0.0000000000
       397         4  CHL1      H3             -0.0383219581        6.2756431828       17.1498038938  MEMB      4               0.0000000000
       398         4  CHL1      O3             -1.1895887826        7.0785075017       18.6693096347  MEMB      4               0.0000000000
       399         4  CHL1      H3'            -1.9533261394        7.6567525472       18.7342104422  MEMB      4               0.0000000000
       400         4  CHL1      C4             -1.0070773867        8.1189822331       16.4983022039  MEMB      4               0.0000000000
       401         4  CHL1      H4A            -1.9476111849        8.6801306751       16.6953019073  MEMB      4               0.0000000000
       402         4  CHL1      H4B            -0.1755813458        8.7496548230       16.8857535390  MEMB      4               0.0000000000
       403         4  CHL1      C5             -0.8696103533        7.8055057382       15.0214572084  MEMB      4               0.0000000000
       404         4  CHL1      C6              0.1956946221        8.2253152091       14.3249375141  MEMB      4               0.0000000000
       405         4  CHL1      H6              0.9565527276        8.8455080212       14.8161765897  MEMB      4               0.0000000000
       406         4  CHL1      C7              0.4153460950        7.9187811066       12.8752360123  MEMB      4               0.0000000000
       407         4  CHL1      H7A             0.8457692522        8.7953502197       12.3442943995  MEMB      4               0.0000000000
       408         4  CHL1      H7B             1.1377501109        7.0804295397       12.7726806050  MEMB      4               0.0000000000
       409         4  CHL1      C8             -0.9101370971        7.5249760888       12.1856514911  MEMB      4               0.0000000000
       410         4  CHL1      H8             -1.5328887726        8.4440796529       12.1496339868  MEMB      4               0.0000000000
       411         4  CHL1      C14            -0.6473070952        7.0246692241       10.7764955836  MEMB      4               0.0000000000
       412         4  CHL1      H14            -0.1036407707        6.0498200020       10.8773130068  MEMB      4               0.0000000000
       413         4  CHL1      C15             0.2423558905        7.8816989923        9.8779636706  MEMB      4               0.0000000000
       414         4  CHL1      H15A           -0.0935094246        8.9396694425        9.9569670501  MEMB      4               0.0000000000
       415         4  CHL1      H15B            1.3168999485        7.8219264005       10.1426734562  MEMB      4               0.0000000000
       416         4  CHL1      C16            -0.0405006693        7.3487029637        8.4684543606  MEMB      4               0.0000000000
       417         4  CHL1      H16A           -0.1830910676        8.2122966463        7.7859382287  MEMB      4               0.0000000000
       418         4  CHL1      H16B            0.8015004602        6.7315104047        8.0931958178  MEMB      4               0.0000000000
       419         4  CHL1      C17            -1.3295196725        6.4749747959        8.5622395120  MEMB      4               0.0000000000
       420         4  CHL1      H17            -0.9955220225        5.4103183604        8.5639411648  MEMB      4               0.0000000000
       421         4  CHL1      C13            -1.9094928336        6.7416627582        9.9704368379  MEMB      4               0.0000000000
       422         4  CHL1      C18            -2.8043569952        7.9973138047        9.9028794005  MEMB      4               0.0000000000
       423         4  CHL1      H18A           -3.7020881753        7.8212260991        9.2810869569  MEMB      4               0.0000000000
       424         4  CHL1      H18B           -3.1677073669        8.2721051154       10.9085345514  MEMB      4               0.0000000000
       425         4  CHL1      H18C           -2.2557087207        8.8639814565        9.4826918800  MEMB      4               0.0000000000
       426         4  CHL1      C12            -2.5928563285        5.5717433048       10.6958714640  MEMB      4               0.0000000000
       427         4  CHL1      H12A           -3.5100009424        5.2239872584       10.1869899435  MEMB      4               0.0000000000
       428         4  CHL1      H12B           -1.8533127479        4.7495526739       10.6790349046  MEMB      4               0.0000000000
       429         4  CHL1      C11            -2.9030922191        5.9074909847       12.1722147058  MEMB      4               0.0000000000
       430         4  CHL1      H11A           -3.7278559021        6.6468907012       12.1498919583  MEMB      4               0.0000000000
       431         4  CHL1      H11B           -3.2958282955        5.0043165482       12.6827840823  MEMB      4               0.0000000000
       432         4  CHL1      C9             -1.6670139284        6.4467307885       12.9665423065  MEMB      4               0.0000000000
       433         4  CHL1      H9             -0.9564683708        5.5850848156       13.0267598069  MEMB      4               0.0000000000
       434         4  CHL1      C10            -1.9527310297        6.8656540755       14.4371064425  MEMB      4               0.0000000000
       435         4  CHL1      C19            -3.3570254291        7.5089847737       14.4871347245  MEMB      4               0.0000000000
       436         4  CHL1      H19A           -4.1328081743        6.7251289641       14.3524678036  MEMB      4               0.0000000000
       437         4  CHL1      H19B           -3.5677240758        8.0022840758       15.4544779436  MEMB      4               0.0000000000
       438         4  CHL1      H19C           -3.4732872057        8.2571428462       13.6824911509  MEMB      4               0.0000000000
       439         4  CHL1      C1             -1.9757937316        5.6028038869       15.3345131892  MEMB      4               0.0000000000
       440         4  CHL1      H1A            -2.7817349985        4.9250031081       14.9843911464  MEMB      4               0.0000000000
       441         4  CHL1      H1B            -1.0042341681        5.0737868001       15.2054285643  MEMB      4               0.0000000000
       442         4  CHL1      C2             -2.1513776084        5.9046376390       16.8283411695  MEMB      4               0.0000000000
       443         4  CHL1      H2A            -2.1466486113        4.9629316124       17.4142503894  MEMB      4               0.0000000000
       444         4  CHL1      H2B            -3.1283640416        6.4057687363       17.0015747335  MEMB      4               0.0000000000
       445         4  CHL1      C20            -2.2330044407        6.6767782607        7.3373908183  MEMB      4               0.0000000000
       446         4  CHL1      H20            -2.5831470098        7.7358514258        7.3085338870  MEMB      4               0.0000000000
       447         4  CHL1      C21            -3.4698327638        5.7608567735        7.4301014037  MEMB      4               0.0000000000
       448         4  CHL1      H21A           -4.0622216341        5.9580347735        8.3416308319  MEMB      4               0.0000000000
       449         4  CHL1      H21B           -3.1571241840        4.6968848292        7.4270212705  MEMB      4               0.0000000000
       450         4  CHL1      H21C           -4.1543389000        5.9419672365        6.5763365649  MEMB      4               0.0000000000
       451         4  CHL1      C22            -1.4685080524        6.4332602842        6.0072084601  MEMB      4               0.0000000000
       452         4  CHL1      H22A           -0.6829794093        7.2082615273        5.8755141816  MEMB      4               0.0000000000
       453         4  CHL1      H22B           -0.9601512143        5.4447178717        6.0590839497  MEMB      4               0.0000000000
       454         4  CHL1      C23            -2.3756176718        6.4485719093        4.7642658425  MEMB      4               0.0000000000
       455         4  CHL1      H23A           -2.9840686309        5.5219929379        4.8027383532  MEMB      4               0.0000000000
       456         4  CHL1      H23B           -3.0745246762        7.3116012566        4.8181959226  MEMB      4               0.0000000000
       457         4  CHL1      C24            -1.6004611009        6.5154928411        3.4379303593  MEMB      4               0.0000000000
       458         4  CHL1      H24A           -1.1942153594        7.5472066203        3.3349363515  MEMB      4               0.0000000000
       459         4  CHL1      H24B           -0.7278165025        5.8388068858        3.4738059779  MEMB      4               0.0000000000
       460         4  CHL1      C25            -2.4426456721        6.1929672314        2.1781716952  MEMB      4               0.0000000000
       461         4  CHL1      H25            -3.2591386748        6.9539914995        2.1535215098  MEMB      4               0.0000000000
       462         4  CHL1      C26            -1.5898911756        6.3495524885        0.9113143755  MEMB      4               0.0000000000
       463         4  CHL1      H26A           -0.6227982640        6.8279178759        1.1659427884  MEMB      4               0.0000000000
       464         4  CHL1      H26B           -1.3449867576        5.3633479961        0.4660547945  MEMB      4               0.0000000000
       465         4  CHL1      H26C           -2.1156843882        6.9582295666        0.1476392547  MEMB      4               0.0000000000
       466         4  CHL1      C27            -3.0942444051        4.7954021982        2.1708769104  MEMB      4               0.0000000000
       467         4  CHL1      H27A           -2.4343752569        4.0431746779        1.6928419992  MEMB      4               0.0000000000
       468         4  CHL1      H27B           -3.3199482147        4.4264447487        3.1873016722  MEMB      4               0.0000000000
       469         4  CHL1      H27C           -4.0441465013        4.8261060744        1.5975421845  MEMB      4               0.0000000000
       470         5  SAPE      N               5.8555197231       -4.2870174330       22.4643648465  MEMB      5               0.0000000000
       471         5  SAPE      HN1             6.2825696018       -3.8257234371       21.6392257862  MEMB      5               0.0000000000
       472         5  SAPE      HN2             4.9038592764       -3.8987535597       22.6020809599  MEMB      5               0.0000000000
       473         5  SAPE      HN3             6.4943724757       -4.0673896683       23.2561096633  MEMB      5               0.0000000000
       474         5  SAPE      C12             5.9126796987       -5.7574733909       22.1531540897  MEMB      5               0.0000000000
       475         5  SAPE      H12A            5.3414739340       -5.9266645166       21.2166909699  MEMB      5               0.0000000000
       476         5  SAPE      H12B            5.4406458118       -6.3158035282       22.9813172275  MEMB      5               0.0000000000
       477         5  SAPE      C11             7.3699472668       -6.1757030034       21.9327536561  MEMB      5               0.0000000000
       478         5  SAPE      H11A            7.4365575611       -7.2426589250       21.6116457433  MEMB      5               0.0000000000
       479         5  SAPE      H11B            7.9230414743       -6.1048614205       22.8988980331  MEMB      5               0.0000000000
       480         5  SAPE      P               8.1360425660       -5.6518869341       19.4534818478  MEMB      5               0.0000000000
       481         5  SAPE      O13             8.6183332711       -4.4372054810       18.7777456043  MEMB      5               0.0000000000
       482         5  SAPE      O14             8.8838648315       -6.9192944713       19.3274730479  MEMB      5               0.0000000000
       483         5  SAPE      O12             7.9735557724       -5.3000852465       20.9898303450  MEMB      5               0.0000000000
       484         5  SAPE      O11             6.5963761364       -5.8776047456       19.0999440051  MEMB      5               0.0000000000
       485         5  SAPE      C1              6.0517760192       -5.3456032395       17.8817113590  MEMB      5               0.0000000000
       486         5  SAPE      HA              5.1109355635       -4.7901485975       18.0950925229  MEMB      5               0.0000000000
       487         5  SAPE      HB              6.7323103011       -4.6314412312       17.3560193472  MEMB      5               0.0000000000
       488         5  SAPE      C2              5.7263936408       -6.4777050935       16.8856781440  MEMB      5               0.0000000000
       489         5  SAPE      HS              5.0869861024       -7.2094037926       17.4362974099  MEMB      5               0.0000000000
       490         5  SAPE      O21             6.9604482589       -7.0786355219       16.4493332149  MEMB      5               0.0000000000
       491         5  SAPE      C21             6.8833371042       -8.3384396509       16.0840439587  MEMB      5               0.0000000000
       492         5  SAPE      O22             5.9000706521       -9.0505448980       16.1678018772  MEMB      5               0.0000000000
       493         5  SAPE      C22             8.1616513187       -8.7067637831       15.3560655448  MEMB      5               0.0000000000
       494         5  SAPE      H2R             9.0171698615       -8.4024822654       15.9941894978  MEMB      5               0.0000000000
       495         5  SAPE      H2S             8.1783606666       -9.8059150426       15.2082591008  MEMB      5               0.0000000000
       496         5  SAPE      C3              4.9036474959       -5.9667950869       15.6632639158  MEMB      5               0.0000000000
       497         5  SAPE      HX              3.8421515197       -5.8530648676       15.9856462939  MEMB      5               0.0000000000
       498         5  SAPE      HY              4.9327188599       -6.7769217358       14.9110457767  MEMB      5               0.0000000000
       499         5  SAPE      O31             5.4373712544       -4.7845046566       15.0300798729  MEMB      5               0.0000000000
       500         5  SAPE      C31             4.6309607998       -3.7306119306       14.9811499977  MEMB      5               0.0000000000
       501         5  SAPE      O32             3.6034798907       -3.5773116283       15.6119115926  MEMB      5               0.0000000000
       502         5  SAPE      C32             5.1134491294       -2.7162349307       13.9437703907  MEMB      5               0.0000000000
       503         5  SAPE      H2X             5.3080188128       -1.7504650482       14.4517592434  MEMB      5               0.0000000000
       504         5  SAPE      H2Y             4.2510909890       -2.5755052191       13.2590265849  MEMB      5               0.0000000000
       505         5  SAPE      C23             8.2040883863       -7.9553991638       14.0086376976  MEMB      5               0.0000000000
       506         5  SAPE      H3R             8.2006641368       -6.8575867754       14.2139577662  MEMB      5               0.0000000000
       507         5  SAPE      H3S             7.2903696814       -8.1726099228       13.4082177221  MEMB      5               0.0000000000
       508         5  SAPE      C24             9.4609447339       -8.2808815953       13.1947353183  MEMB      5               0.0000000000
       509         5  SAPE      H4R            10.3330131422       -8.3404729465       13.8779012451  MEMB      5               0.0000000000
       510         5  SAPE      H4S             9.6459476779       -7.4246461493       12.5130847153  MEMB      5               0.0000000000
       511         5  SAPE      C25             9.2881870052       -9.5582334166       12.4206456949  MEMB      5               0.0000000000
       512         5  SAPE      H5R             8.6513951329      -10.3099725369       12.9105916315  MEMB      5               0.0000000000
       513         5  SAPE      C26             9.8355175304       -9.8493206458       11.2260099410  MEMB      5               0.0000000000
       514         5  SAPE      H6R             9.5934863329      -10.8186094248       10.7666568235  MEMB      5               0.0000000000
       515         5  SAPE      C27            10.7438886115       -8.9845552720       10.3855069831  MEMB      5               0.0000000000
       516         5  SAPE      H7R            10.9944238649       -9.5459818271        9.4602629456  MEMB      5               0.0000000000
       517         5  SAPE      H7S            11.7070579886       -8.9077125701       10.9422411467  MEMB      5               0.0000000000
       518         5  SAPE      C28            10.3354265546       -7.5853151673        9.9832517780  MEMB      5               0.0000000000
       519         5  SAPE      H8R            11.1617469656       -6.8599280698       10.0382874015  MEMB      5               0.0000000000
       520         5  SAPE      C29             9.1298553386       -7.1241900479        9.5889273130  MEMB      5               0.0000000000
       521         5  SAPE      H9R             9.0308305107       -6.0482338882        9.3765175862  MEMB      5               0.0000000000
       522         5  SAPE      C210            7.8336039909       -7.8800139514        9.4318739573  MEMB      5               0.0000000000
       523         5  SAPE      H10R            7.9590959924       -8.9707529263        9.5934136845  MEMB      5               0.0000000000
       524         5  SAPE      H10S            7.4953741468       -7.7782329360        8.3775176094  MEMB      5               0.0000000000
       525         5  SAPE      C211            6.7679641796       -7.3503067635       10.3580343036  MEMB      5               0.0000000000
       526         5  SAPE      H11R            6.6889341775       -7.8737604151       11.3239106389  MEMB      5               0.0000000000
       527         5  SAPE      C212            5.9223031344       -6.3335976249       10.0923342602  MEMB      5               0.0000000000
       528         5  SAPE      H12R            5.1946489211       -6.0336664343       10.8623405743  MEMB      5               0.0000000000
       529         5  SAPE      C213            5.8607967989       -5.5157420217        8.8280981826  MEMB      5               0.0000000000
       530         5  SAPE      H13R            6.8380964866       -5.5387557821        8.2923498964  MEMB      5               0.0000000000
       531         5  SAPE      H13S            5.7007930787       -4.4666513450        9.1377529580  MEMB      5               0.0000000000
       532         5  SAPE      C214            4.7340955786       -5.8736005930        7.8907543211  MEMB      5               0.0000000000
       533         5  SAPE      H14R            3.9609503975       -6.5505007489        8.2841807638  MEMB      5               0.0000000000
       534         5  SAPE      C215            4.6178246911       -5.4196180051        6.6311368522  MEMB      5               0.0000000000
       535         5  SAPE      H15R            3.7378069197       -5.7095299086        6.0349667163  MEMB      5               0.0000000000
       536         5  SAPE      C216            5.6000741571       -4.4865634730        5.9707742713  MEMB      5               0.0000000000
       537         5  SAPE      H16R            6.6035541991       -4.9673351759        5.9155115584  MEMB      5               0.0000000000
       538         5  SAPE      H16S            5.7233480002       -3.5611838505        6.5792895065  MEMB      5               0.0000000000
       539         5  SAPE      C217            5.2066272458       -4.0680476584        4.5400314073  MEMB      5               0.0000000000
       540         5  SAPE      H17R            5.9962726420       -3.3664849399        4.1921731818  MEMB      5               0.0000000000
       541         5  SAPE      H17S            4.2420618667       -3.5138555260        4.5484005934  MEMB      5               0.0000000000
       542         5  SAPE      C218            5.1237284198       -5.2376298190        3.5478474290  MEMB      5               0.0000000000
       543         5  SAPE      H18R            4.2083901848       -5.8261804314        3.7642637290  MEMB      5               0.0000000000
       544         5  SAPE      H18S            5.9852155935       -5.9150817875        3.7197636102  MEMB      5               0.0000000000
       545         5  SAPE      C219            5.1479397356       -4.8289412401        2.0644250969  MEMB      5               0.0000000000
       546         5  SAPE      H19R            4.2670590077       -4.1909279410        1.8291336761  MEMB      5               0.0000000000
       547         5  SAPE      H19S            5.0492866151       -5.7612422839        1.4599365826  MEMB      5               0.0000000000
       548         5  SAPE      C220            6.4254826812       -4.0995511522        1.6362016112  MEMB      5               0.0000000000
       549         5  SAPE      H20R            6.5660605805       -4.1641962420        0.5357319244  MEMB      5               0.0000000000
       550         5  SAPE      H20S            7.3084727635       -4.5508721501        2.1366302264  MEMB      5               0.0000000000
       551         5  SAPE      H20T            6.3876165852       -3.0267047796        1.9194688993  MEMB      5               0.0000000000
       552         5  SAPE      C33             6.3375251016       -3.1544239566       13.1144215868  MEMB      5               0.0000000000
       553         5  SAPE      H3X             6.3230259906       -4.2537327032       12.9246632338  MEMB      5               0.0000000000
       554         5  SAPE      H3Y             7.2670482152       -2.9219085705       13.6814507725  MEMB      5               0.0000000000
       555         5  SAPE      C34             6.3738648870       -2.4907731429       11.7379915036  MEMB      5               0.0000000000
       556         5  SAPE      H4X             6.2784398822       -1.3864565482       11.8374754932  MEMB      5               0.0000000000
       557         5  SAPE      H4Y             5.5172285796       -2.8682119594       11.1345873288  MEMB      5               0.0000000000
       558         5  SAPE      C35             7.6815293801       -2.8072117083       11.0248773587  MEMB      5               0.0000000000
       559         5  SAPE      H5X             7.8778252084       -3.9040170935       11.0886031172  MEMB      5               0.0000000000
       560         5  SAPE      H5Y             8.5085390652       -2.2831599044       11.5581431460  MEMB      5               0.0000000000
       561         5  SAPE      C36             7.7164534038       -2.3836018690        9.5555689527  MEMB      5               0.0000000000
       562         5  SAPE      H6X             7.4517805167       -1.3111833042        9.4479237962  MEMB      5               0.0000000000
       563         5  SAPE      H6Y             6.9935888172       -2.9700677008        8.9557541112  MEMB      5               0.0000000000
       564         5  SAPE      C37             9.1164325815       -2.6346617122        9.0099564482  MEMB      5               0.0000000000
       565         5  SAPE      H7X             9.4445550057       -3.6237242432        9.3840391298  MEMB      5               0.0000000000
       566         5  SAPE      H7Y             9.8015358261       -1.8900996189        9.4761747521  MEMB      5               0.0000000000
       567         5  SAPE      C38             9.2225376356       -2.5678695248        7.4814811066  MEMB      5               0.0000000000
       568         5  SAPE      H8X            10.0649418290       -1.8867164723        7.2921217806  MEMB      5               0.0000000000
       569         5  SAPE      H8Y             8.3203452089       -2.0969771814        7.0366421422  MEMB      5               0.0000000000
       570         5  SAPE      C39             9.5224377655       -3.9057073001        6.7686152258  MEMB      5               0.0000000000
       571         5  SAPE      H9X             9.7127288343       -3.6905799388        5.6920354475  MEMB      5               0.0000000000
       572         5  SAPE      H9Y             8.6147224169       -4.5407840587        6.8393790527  MEMB      5               0.0000000000
       573         5  SAPE      C310           10.7408503880       -4.6458551339        7.3506283669  MEMB      5               0.0000000000
       574         5  SAPE      H10X           10.5326822731       -4.9328893792        8.3997976743  MEMB      5               0.0000000000
       575         5  SAPE      H10Y           11.5842491952       -3.9234475256        7.3849860283  MEMB      5               0.0000000000
       576         5  SAPE      C311           11.2502057105       -5.9271190616        6.6565166795  MEMB      5               0.0000000000
       577         5  SAPE      H11X           11.2520692648       -6.7660675592        7.3874719204  MEMB      5               0.0000000000
       578         5  SAPE      H11Y           12.3146312738       -5.7228583609        6.3928525120  MEMB      5               0.0000000000
       579         5  SAPE      C312           10.5550762450       -6.3798551887        5.3707870380  MEMB      5               0.0000000000
       580         5  SAPE      H12X           11.2116391379       -7.1071229207        4.8386857943  MEMB      5               0.0000000000
       581         5  SAPE      H12Y           10.4239334997       -5.5034469031        4.6998817095  MEMB      5               0.0000000000
       582         5  SAPE      C313            9.2167655752       -7.0939948591        5.5660774409  MEMB      5               0.0000000000
       583         5  SAPE      H13X            8.6417422220       -6.6368943687        6.4019873287  MEMB      5               0.0000000000
       584         5  SAPE      H13Y            9.3887592511       -8.1602486801        5.8349312854  MEMB      5               0.0000000000
       585         5  SAPE      C314            8.3777397278       -7.0019440572        4.2888456571  MEMB      5               0.0000000000
       586         5  SAPE      H14X            8.0434919352       -5.9451645309        4.1763859664  MEMB      5               0.0000000000
       587         5  SAPE      H14Y            7.4717709149       -7.6288935440        4.3994073614  MEMB      5               0.0000000000
       588         5  SAPE      C315            9.1134205157       -7.4094137127        3.0039897814  MEMB      5               0.0000000000
       589         5  SAPE      H15X            9.6247743900       -8.3851361040        3.1572763584  MEMB      5               0.0000000000
       590         5  SAPE      H15Y            9.8975730640       -6.6531319349        2.7736690403  MEMB      5               0.0000000000
       591         5  SAPE      C316            8.1417290771       -7.5134578000        1.8203631940  MEMB      5               0.0000000000
       592         5  SAPE      H16X            7.1262246978       -7.2147901074        2.1687560690  MEMB      5               0.0000000000
       593         5  SAPE      H16Y            8.0830114093       -8.5678678207        1.4718139114  MEMB      5               0.0000000000
       594         5  SAPE      C317            8.5060830923       -6.6113267910        0.6428163617  MEMB      5               0.0000000000
       595         5  SAPE      H17X            8.7887516946       -5.6085671020        1.0305372069  MEMB      5               0.0000000000
       596         5  SAPE      H17Y            7.6038300274       -6.4825733451        0.0008006084  MEMB      5               0.0000000000
       597         5  SAPE      C318            9.6330864103       -7.1756260483       -0.2088087390  MEMB      5               0.0000000000
       598         5  SAPE      H18X            9.7893083990       -6.5566410716       -1.1188394212  MEMB      5               0.0000000000
       599         5  SAPE      H18Y            9.3698495306       -8.2068485130       -0.5266159162  MEMB      5               0.0000000000
       600         5  SAPE      H18Z           10.5861916797       -7.2077734920        0.3633614862  MEMB      5               0.0000000000
       601         6  CHL1      C3              7.9790110497        8.0624777181       17.3328356387  MEMB      6               0.0000000000
       602         6  CHL1      H3              9.0415569444        7.7396111821       17.4171760536  MEMB      6               0.0000000000
       603         6  CHL1      O3              7.4388577846        8.2552490098       18.6221199182  MEMB      6               0.0000000000
       604         6  CHL1      H3'             8.2056723778        8.4608862976       19.1807730929  MEMB      6               0.0000000000
       605         6  CHL1      C4              7.9081756496        9.3773307147       16.5397656258  MEMB      6               0.0000000000
       606         6  CHL1      H4A             6.8970900533        9.8138685924       16.6905939664  MEMB      6               0.0000000000
       607         6  CHL1      H4B             8.6245259420       10.0934806598       17.0085534202  MEMB      6               0.0000000000
       608         6  CHL1      C5              8.1635221783        9.1825402541       15.0563963763  MEMB      6               0.0000000000
       609         6  CHL1      C6              9.0847517324        9.8905499304       14.4020178229  MEMB      6               0.0000000000
       610         6  CHL1      H6              9.6875748085       10.6051425519       14.9778575358  MEMB      6               0.0000000000
       611         6  CHL1      C7              9.3273863260        9.8142500885       12.9222344719  MEMB      6               0.0000000000
       612         6  CHL1      H7A             9.3822581466       10.8359097535       12.4844548636  MEMB      6               0.0000000000
       613         6  CHL1      H7B            10.3041368863        9.3370389225       12.7401935891  MEMB      6               0.0000000000
       614         6  CHL1      C8              8.2392365826        9.0284011148       12.1484550774  MEMB      6               0.0000000000
       615         6  CHL1      H8              7.3889164478        9.7268770334       11.9830243868  MEMB      6               0.0000000000
       616         6  CHL1      C14             8.7741930438        8.5225700578       10.8135805398  MEMB      6               0.0000000000
       617         6  CHL1      H14             9.5125052942        7.7180588628       11.0711672607  MEMB      6               0.0000000000
       618         6  CHL1      C15             9.5604462614        9.4924053057        9.9137688389  MEMB      6               0.0000000000
       619         6  CHL1      H15A            9.0036018053       10.4481438482        9.8200754512  MEMB      6               0.0000000000
       620         6  CHL1      H15B           10.5769319518        9.7028652798       10.3013181382  MEMB      6               0.0000000000
       621         6  CHL1      C16             9.5977477095        8.7599857201        8.5622365118  MEMB      6               0.0000000000
       622         6  CHL1      H16A            9.2484523940        9.4492932151        7.7655734532  MEMB      6               0.0000000000
       623         6  CHL1      H16B           10.6229257025        8.4200519784        8.3115855739  MEMB      6               0.0000000000
       624         6  CHL1      C17             8.6354631091        7.5302648782        8.6913745313  MEMB      6               0.0000000000
       625         6  CHL1      H17             9.2717887402        6.6747592396        9.0069339545  MEMB      6               0.0000000000
       626         6  CHL1      C13             7.7404370220        7.8481679387        9.9104858125  MEMB      6               0.0000000000
       627         6  CHL1      C18             6.6632552066        8.8554724200        9.4593556576  MEMB      6               0.0000000000
       628         6  CHL1      H18A            7.0954839486        9.6981499098        8.8857440458  MEMB      6               0.0000000000
       629         6  CHL1      H18B            5.9126723664        8.3505584230        8.8168713645  MEMB      6               0.0000000000
       630         6  CHL1      H18C            6.1209509792        9.2651191785       10.3319775106  MEMB      6               0.0000000000
       631         6  CHL1      C12             7.0978202710        6.6797539681       10.6901928109  MEMB      6               0.0000000000
       632         6  CHL1      H12A            6.2603137498        6.2176927530       10.1344852046  MEMB      6               0.0000000000
       633         6  CHL1      H12B            7.8538470457        5.9060605240       10.8646902582  MEMB      6               0.0000000000
       634         6  CHL1      C11             6.6044669554        7.1141680528       12.0806295421  MEMB      6               0.0000000000
       635         6  CHL1      H11A            5.7517990746        7.8098507201       11.9232631139  MEMB      6               0.0000000000
       636         6  CHL1      H11B            6.2234310426        6.2349718615       12.6363775814  MEMB      6               0.0000000000
       637         6  CHL1      C9              7.7204703652        7.8076932367       12.9122500096  MEMB      6               0.0000000000
       638         6  CHL1      H9              8.5745134864        7.0873360065       12.9629324686  MEMB      6               0.0000000000
       639         6  CHL1      C10             7.3359766867        8.0800547518       14.3871755580  MEMB      6               0.0000000000
       640         6  CHL1      C19             5.8623112742        8.5180592405       14.4135440057  MEMB      6               0.0000000000
       641         6  CHL1      H19A            5.7529917493        9.2963635599       13.6465346083  MEMB      6               0.0000000000
       642         6  CHL1      H19B            5.1777878893        7.6824955995       14.1667622291  MEMB      6               0.0000000000
       643         6  CHL1      H19C            5.5304859177        8.9317860305       15.3858411773  MEMB      6               0.0000000000
       644         6  CHL1      C1              7.5301041840        6.7798638460       15.2071148693  MEMB      6               0.0000000000
       645         6  CHL1      H1A             6.8985843980        5.9814624302       14.7701255882  MEMB      6               0.0000000000
       646         6  CHL1      H1B             8.5919975958        6.4518118510       15.1504338605  MEMB      6               0.0000000000
       647         6  CHL1      C2              7.1559596390        6.9615769350       16.6791704042  MEMB      6               0.0000000000
       648         6  CHL1      H2A             7.2887567106        6.0172983540       17.2455468212  MEMB      6               0.0000000000
       649         6  CHL1      H2B             6.0853190416        7.2540260411       16.7559651524  MEMB      6               0.0000000000
       650         6  CHL1      C20             7.9809253819        7.1524743472        7.3540047723  MEMB      6               0.0000000000
       651         6  CHL1      H20             7.3488699114        8.0087683450        7.0262015998  MEMB      6               0.0000000000
       652         6  CHL1      C21             7.0630458044        5.9234867701        7.5322987094  MEMB      6               0.0000000000
       653         6  CHL1      H21A            7.5790450850        5.1230720380        8.0987864458  MEMB      6               0.0000000000
       654         6  CHL1      H21B            6.7444721160        5.5104204242        6.5555940616  MEMB      6               0.0000000000
       655         6  CHL1      H21C            6.1381908490        6.2086341923        8.0703156404  MEMB      6               0.0000000000
       656         6  CHL1      C22             9.0316942354        6.9128050521        6.2304449555  MEMB      6               0.0000000000
       657         6  CHL1      H22A            9.6726238048        7.8146700886        6.1238242956  MEMB      6               0.0000000000
       658         6  CHL1      H22B            9.6933961508        6.0743918235        6.5322652886  MEMB      6               0.0000000000
       659         6  CHL1      C23             8.4556619477        6.6162718483        4.8276445680  MEMB      6               0.0000000000
       660         6  CHL1      H23A            9.3160201697        6.4841230450        4.1344788621  MEMB      6               0.0000000000
       661         6  CHL1      H23B            7.9000125502        5.6560127029        4.8345161398  MEMB      6               0.0000000000
       662         6  CHL1      C24             7.5540873878        7.7392557679        4.2865321621  MEMB      6               0.0000000000
       663         6  CHL1      H24A            6.7558753843        7.9643891741        5.0271892274  MEMB      6               0.0000000000
       664         6  CHL1      H24B            8.1633756515        8.6613124381        4.1594445869  MEMB      6               0.0000000000
       665         6  CHL1      C25             6.8317736845        7.4272281773        2.9581847437  MEMB      6               0.0000000000
       666         6  CHL1      H25             6.1682109532        6.5456295986        3.1244645892  MEMB      6               0.0000000000
       667         6  CHL1      C26             5.9604878365        8.6357460746        2.5770377829  MEMB      6               0.0000000000
       668         6  CHL1      H26A            6.5819594103        9.5538140953        2.5831556948  MEMB      6               0.0000000000
       669         6  CHL1      H26B            5.5262962801        8.5306663073        1.5665320750  MEMB      6               0.0000000000
       670         6  CHL1      H26C            5.1360838626        8.7710930205        3.3077619841  MEMB      6               0.0000000000
       671         6  CHL1      C27             7.8045166912        7.0779581383        1.8214684269  MEMB      6               0.0000000000
       672         6  CHL1      H27A            8.3956646623        7.9724599656        1.5414286824  MEMB      6               0.0000000000
       673         6  CHL1      H27B            8.4970623532        6.2644747430        2.1191086210  MEMB      6               0.0000000000
       674         6  CHL1      H27C            7.2680395430        6.7308139852        0.9192257322  MEMB      6               0.0000000000
       675         7  OSM       N              -8.5877382004       -7.3211021684       21.2204306246  MEMB      7               0.0000000000
       676         7  OSM       C15            -7.9501873168       -6.0166963951       21.5765855208  MEMB      7               0.0000000000
       677         7  OSM       H15A           -6.8968565440       -6.0092841782       21.3147008266  MEMB      7               0.0000000000
       678         7  OSM       H15B           -8.0806521654       -5.8012286794       22.6295984822  MEMB      7               0.0000000000
       679         7  OSM       H15C           -8.4713885223       -5.2167954965       21.0446674796  MEMB      7               0.0000000000
       680         7  OSM       C14            -8.3306437040       -7.5466958179       19.7564444563  MEMB      7               0.0000000000
       681         7  OSM       H14A           -8.7481167486       -6.7437837930       19.1490874814  MEMB      7               0.0000000000
       682         7  OSM       H14B           -8.7289992262       -8.4981720701       19.4358056524  MEMB      7               0.0000000000
       683         7  OSM       H14C           -7.2636227785       -7.5563692516       19.5304652056  MEMB      7               0.0000000000
       684         7  OSM       C13            -7.9562453376       -8.4108142241       22.0347094085  MEMB      7               0.0000000000
       685         7  OSM       H13A           -8.0656756899       -8.2183836331       23.1003421309  MEMB      7               0.0000000000
       686         7  OSM       H13B           -6.8975055844       -8.4923904348       21.8063730519  MEMB      7               0.0000000000
       687         7  OSM       H13C           -8.4395308367       -9.3698588979       21.8697150545  MEMB      7               0.0000000000
       688         7  OSM       C12           -10.0713527682       -7.2306167826       21.5464281438  MEMB      7               0.0000000000
       689         7  OSM       H12A          -10.1838151690       -6.9374219190       22.5904149384  MEMB      7               0.0000000000
       690         7  OSM       H12B          -10.5600715198       -8.1967978563       21.4967801649  MEMB      7               0.0000000000
       691         7  OSM       C11           -10.9063183958       -6.2250608837       20.7298365586  MEMB      7               0.0000000000
       692         7  OSM       H11A          -11.9858061788       -6.4758376905       20.8601312031  MEMB      7               0.0000000000
       693         7  OSM       H11B          -10.6625021274       -6.3041001808       19.6487709616  MEMB      7               0.0000000000
       694         7  OSM       P             -11.6708421769       -3.7356467724       20.9357807019  MEMB      7               0.0000000000
       695         7  OSM       O13           -13.0278897686       -4.1298789315       21.3487802523  MEMB      7               0.0000000000
       696         7  OSM       O14           -11.0868978258       -2.5408926405       21.5833646333  MEMB      7               0.0000000000
       697         7  OSM       O11           -11.6784839602       -3.5829434682       19.3598280723  MEMB      7               0.0000000000
       698         7  OSM       O12           -10.6409179310       -4.9186981018       21.2038880228  MEMB      7               0.0000000000
       699         7  OSM       C1S           -10.5303404916       -3.6684045914       18.5287850177  MEMB      7               0.0000000000
       700         7  OSM       H1S            -9.6520244767       -4.0951719298       19.0663471974  MEMB      7               0.0000000000
       701         7  OSM       H1T           -10.2566046774       -2.6390827376       18.2170230483  MEMB      7               0.0000000000
       702         7  OSM       NF             -9.7784127820       -4.1949532254       16.2373747020  MEMB      7               0.0000000000
       703         7  OSM       HNF           -10.0873331308       -4.0444619665       15.3073985480  MEMB      7               0.0000000000
       704         7  OSM       C2S           -10.7595548001       -4.5241183549       17.2304971766  MEMB      7               0.0000000000
       705         7  OSM       H2S           -10.6358053014       -5.5970046402       17.4967047674  MEMB      7               0.0000000000
       706         7  OSM       C3S           -12.1773540271       -4.3428882685       16.6383441534  MEMB      7               0.0000000000
       707         7  OSM       H3S           -12.3671947183       -3.2660357105       16.4693869296  MEMB      7               0.0000000000
       708         7  OSM       O3            -13.1526041186       -4.8188972668       17.5402431883  MEMB      7               0.0000000000
       709         7  OSM       HO3           -12.7232636433       -4.6431625212       18.3936475423  MEMB      7               0.0000000000
       710         7  OSM       C4S           -12.3601624237       -5.0832561044       15.3237186194  MEMB      7               0.0000000000
       711         7  OSM       H4S           -12.7713431287       -6.0992158568       15.4026272019  MEMB      7               0.0000000000
       712         7  OSM       C5S           -12.1149395968       -4.5330883874       14.1106163621  MEMB      7               0.0000000000
       713         7  OSM       H5S           -11.6997783725       -3.5131952492       14.0791792846  MEMB      7               0.0000000000
       714         7  OSM       C6S           -12.2700867287       -5.1277627745       12.7334607336  MEMB      7               0.0000000000
       715         7  OSM       H6S           -11.7617575060       -4.4571650003       12.0003228841  MEMB      7               0.0000000000
       716         7  OSM       H6T           -13.3519568756       -5.0891180586       12.4655787930  MEMB      7               0.0000000000
       717         7  OSM       C7S           -11.7906230395       -6.5521385775       12.4012241012  MEMB      7               0.0000000000
       718         7  OSM       H7S           -12.3267480967       -7.2943795299       13.0338396201  MEMB      7               0.0000000000
       719         7  OSM       H7T           -10.7005960099       -6.6395958952       12.6042392835  MEMB      7               0.0000000000
       720         7  OSM       C8S           -12.0671634568       -6.8511949924       10.9126700891  MEMB      7               0.0000000000
       721         7  OSM       H8S           -11.5514782961       -6.1008608602       10.2739297218  MEMB      7               0.0000000000
       722         7  OSM       H8T           -13.1624279726       -6.7336716926       10.7384027326  MEMB      7               0.0000000000
       723         7  OSM       C9S           -11.6710883733       -8.2632817317       10.4591388205  MEMB      7               0.0000000000
       724         7  OSM       H9S           -12.1381728710       -8.4768769057        9.4710086259  MEMB      7               0.0000000000
       725         7  OSM       H9T           -12.1194388951       -8.9744736673       11.1894703444  MEMB      7               0.0000000000
       726         7  OSM       C10S          -10.1553802721       -8.5149764500       10.3531419196  MEMB      7               0.0000000000
       727         7  OSM       H10S           -9.9820743857       -9.6086090118       10.2387402565  MEMB      7               0.0000000000
       728         7  OSM       H10T           -9.6640983573       -8.2068819735       11.3008751332  MEMB      7               0.0000000000
       729         7  OSM       C11S           -9.4554600519       -7.8251336118        9.1663096595  MEMB      7               0.0000000000
       730         7  OSM       H11S           -8.3638078156       -8.0312117810        9.2559691130  MEMB      7               0.0000000000
       731         7  OSM       H11T           -9.5898541226       -6.7238816735        9.2273814597  MEMB      7               0.0000000000
       732         7  OSM       C12S           -9.9228896951       -8.3369697005        7.7917994544  MEMB      7               0.0000000000
       733         7  OSM       H12S          -10.9244605020       -7.9202158749        7.5534683952  MEMB      7               0.0000000000
       734         7  OSM       H12T          -10.0347930330       -9.4397321757        7.8480430633  MEMB      7               0.0000000000
       735         7  OSM       C13S           -8.9382922663       -8.0326415732        6.6482265243  MEMB      7               0.0000000000
       736         7  OSM       H13S           -9.3052195175       -8.5188062395        5.7164250359  MEMB      7               0.0000000000
       737         7  OSM       H13T           -7.9575725527       -8.4989781730        6.8937260886  MEMB      7               0.0000000000
       738         7  OSM       C14S           -8.7229856648       -6.5332796276        6.3841819933  MEMB      7               0.0000000000
       739         7  OSM       H14S           -7.9425212831       -6.4094183416        5.6017571234  MEMB      7               0.0000000000
       740         7  OSM       H14T           -8.3213038421       -6.0657134893        7.3092896273  MEMB      7               0.0000000000
       741         7  OSM       C15S           -9.9931019145       -5.7736854881        5.9568465200  MEMB      7               0.0000000000
       742         7  OSM       H15S           -9.7451596232       -4.6907219880        5.8725554779  MEMB      7               0.0000000000
       743         7  OSM       H15T          -10.7636011492       -5.8684982028        6.7530573716  MEMB      7               0.0000000000
       744         7  OSM       C16S          -10.5910664663       -6.2361757062        4.6172930415  MEMB      7               0.0000000000
       745         7  OSM       H16S          -11.5347901979       -5.6710423847        4.4411776372  MEMB      7               0.0000000000
       746         7  OSM       H16T          -10.8530341558       -7.3161516623        4.6676823625  MEMB      7               0.0000000000
       747         7  OSM       C17S           -9.6531458644       -5.9884962046        3.4279967161  MEMB      7               0.0000000000
       748         7  OSM       H17S           -8.7211121899       -6.5829793707        3.5607441847  MEMB      7               0.0000000000
       749         7  OSM       H17T           -9.3605102439       -4.9127888048        3.4237430411  MEMB      7               0.0000000000
       750         7  OSM       C18S          -10.2787049209       -6.3456553525        2.0791997357  MEMB      7               0.0000000000
       751         7  OSM       H18S           -9.5664196867       -6.1279366943        1.2570121878  MEMB      7               0.0000000000
       752         7  OSM       H18T          -11.2047201940       -5.7550232731        1.9096999606  MEMB      7               0.0000000000
       753         7  OSM       H18U          -10.5336744818       -7.4262138642        2.0402157517  MEMB      7               0.0000000000
       754         7  OSM       C1F            -8.5013365184       -4.0377154100       16.5095793751  MEMB      7               0.0000000000
       755         7  OSM       OF             -7.9557456521       -4.6612068571       17.4063990177  MEMB      7               0.0000000000
       756         7  OSM       C2F            -7.8523016404       -2.9608299026       15.7123416464  MEMB      7               0.0000000000
       757         7  OSM       H2F            -7.0688954960       -2.4714559693       16.3294022667  MEMB      7               0.0000000000
       758         7  OSM       H2G            -8.6150725395       -2.1905318316       15.4576303069  MEMB      7               0.0000000000
       759         7  OSM       C3F            -7.2390655785       -3.4889587720       14.4078691566  MEMB      7               0.0000000000
       760         7  OSM       H3F            -6.2772769079       -3.9818510457       14.6500980292  MEMB      7               0.0000000000
       761         7  OSM       H3G            -7.0246121594       -2.6110232702       13.7589447012  MEMB      7               0.0000000000
       762         7  OSM       C4F            -8.0415888097       -4.5064886199       13.5847928854  MEMB      7               0.0000000000
       763         7  OSM       H4F            -9.0963559994       -4.1827691753       13.4596098485  MEMB      7               0.0000000000
       764         7  OSM       H4G            -8.0290916518       -5.4954701349       14.1027856219  MEMB      7               0.0000000000
       765         7  OSM       C5F            -7.4054683138       -4.6560729464       12.2004409699  MEMB      7               0.0000000000
       766         7  OSM       H5F            -7.1533452483       -5.7219321305       12.0086839506  MEMB      7               0.0000000000
       767         7  OSM       H5G            -6.4489033038       -4.0813240574       12.1810292264  MEMB      7               0.0000000000
       768         7  OSM       C6F            -8.3078393427       -4.1241522453       11.0844333966  MEMB      7               0.0000000000
       769         7  OSM       H6F            -8.8044369919       -3.1836984945       11.4109790443  MEMB      7               0.0000000000
       770         7  OSM       H6G            -9.1022752731       -4.8757324936       10.8704554409  MEMB      7               0.0000000000
       771         7  OSM       C7F            -7.4888269071       -3.8453328567        9.8246387887  MEMB      7               0.0000000000
       772         7  OSM       H7F            -6.9127374481       -4.7739877664        9.5983174871  MEMB      7               0.0000000000
       773         7  OSM       H7G            -6.7468231671       -3.0409831577       10.0232918926  MEMB      7               0.0000000000
       774         7  OSM       C8F            -8.3417788620       -3.5093995250        8.5897076795  MEMB      7               0.0000000000
       775         7  OSM       H8F            -9.1510651003       -4.2685642735        8.5166891191  MEMB      7               0.0000000000
       776         7  OSM       H8G            -7.6611856617       -3.6924073581        7.7305974493  MEMB      7               0.0000000000
       777         7  OSM       C9F            -8.9441441608       -2.1214613825        8.5496431019  MEMB      7               0.0000000000
       778         7  OSM       H9F            -9.4861969568       -1.8198275678        9.4600537383  MEMB      7               0.0000000000
       779         7  OSM       C10F           -8.8511673052       -1.2482388409        7.5235206491  MEMB      7               0.0000000000
       780         7  OSM       H10F           -9.3243169795       -0.2574672285        7.6150891091  MEMB      7               0.0000000000
       781         7  OSM       C11F           -8.1243043757       -1.5011653921        6.2244407328  MEMB      7               0.0000000000
       782         7  OSM       H11F           -7.8539600833       -2.5758164886        6.1274630971  MEMB      7               0.0000000000
       783         7  OSM       H11G           -7.1625614985       -0.9405192407        6.2230505026  MEMB      7               0.0000000000
       784         7  OSM       C12F           -8.8612349673       -1.1744939044        4.9094190443  MEMB      7               0.0000000000
       785         7  OSM       H12F           -9.0449540335       -0.0816038312        4.8230629932  MEMB      7               0.0000000000
       786         7  OSM       H12G           -9.8408611186       -1.7021726412        4.8903963082  MEMB      7               0.0000000000
       787         7  OSM       C13F           -7.9934764504       -1.6652979768        3.7406972745  MEMB      7               0.0000000000
       788         7  OSM       H13F           -7.5293341395       -2.6262392929        4.0641789020  MEMB      7               0.0000000000
       789         7  OSM       H13G           -7.1496039756       -0.9665189128        3.5759973660  MEMB      7               0.0000000000
       790         7  OSM       C14F           -8.7072844989       -1.9641078625        2.4148131672  MEMB      7               0.0000000000
       791         7  OSM       H14F           -8.9997998258       -1.0273915863        1.8982554992  MEMB      7               0.0000000000
       792         7  OSM       H14G           -9.6279782254       -2.5525529950        2.6225091732  MEMB      7               0.0000000000
       793         7  OSM       C15F           -7.7675240941       -2.8026635499        1.5364216377  MEMB      7               0.0000000000
       794         7  OSM       H15F           -7.3743272588       -3.6216556158        2.1845845054  MEMB      7               0.0000000000
       795         7  OSM       H15G           -6.8966557915       -2.1954628228        1.2168286601  MEMB      7               0.0000000000
       796         7  OSM       C16F           -8.3806897826       -3.4817179111        0.3099429462  MEMB      7               0.0000000000
       797         7  OSM       H16F           -8.5955171190       -2.7393753400       -0.4891181188  MEMB      7               0.0000000000
       798         7  OSM       H16G           -9.3425055197       -3.9507051133        0.6109984102  MEMB      7               0.0000000000
       799         7  OSM       C17F           -7.4076370370       -4.5601550588       -0.2013011936  MEMB      7               0.0000000000
       800         7  OSM       H17F           -7.0653615547       -5.1529732829        0.6788947135  MEMB      7               0.0000000000
       801         7  OSM       H17G           -6.5101066844       -4.0476196022       -0.6182133527  MEMB      7               0.0000000000
       802         7  OSM       C18F           -7.9689358340       -5.5433493641       -1.2278796397  MEMB      7               0.0000000000
       803         7  OSM       H18F           -7.2542594903       -6.3761942977       -1.4007856721  MEMB      7               0.0000000000
       804         7  OSM       H18G           -8.1536469306       -5.0403290304       -2.1970409921  MEMB      7               0.0000000000
       805         7  OSM       H18H           -8.9233707964       -5.9825711482       -0.8697608783  MEMB      7               0.0000000000
       806         8  CHL1      C3              9.9833661893        1.7651375078       17.5239131768  MEMB      8               0.0000000000
       807         8  CHL1      H3             10.2367548236        2.8501259575       17.5541114328  MEMB      8               0.0000000000
       808         8  CHL1      O3              9.6972969400        1.3312916246       18.8444849722  MEMB      8               0.0000000000
       809         8  CHL1      H3'            10.5082600064        1.5188830314       19.3368517537  MEMB      8               0.0000000000
       810         8  CHL1      C4              8.7917588009        1.5363173328       16.5836634375  MEMB      8               0.0000000000
       811         8  CHL1      H4A             8.5148529464        0.4600301677       16.6286499413  MEMB      8               0.0000000000
       812         8  CHL1      H4B             7.9206171748        2.1048066750       16.9790196337  MEMB      8               0.0000000000
       813         8  CHL1      C5              9.1809056890        1.9530235079       15.1734962376  MEMB      8               0.0000000000
       814         8  CHL1      C6              8.5979377287        3.0008236578       14.5787529272  MEMB      8               0.0000000000
       815         8  CHL1      H6              7.7947749854        3.5477599941       15.0974363239  MEMB      8               0.0000000000
       816         8  CHL1      C7              8.9811816064        3.4618005749       13.2056137445  MEMB      8               0.0000000000
       817         8  CHL1      H7A             8.0910889543        3.8146454976       12.6505072078  MEMB      8               0.0000000000
       818         8  CHL1      H7B             9.6809570939        4.3230779931       13.2905139019  MEMB      8               0.0000000000
       819         8  CHL1      C8              9.6939207260        2.3517632704       12.3835762693  MEMB      8               0.0000000000
       820         8  CHL1      H8              8.9676151771        1.5436038307       12.1584311209  MEMB      8               0.0000000000
       821         8  CHL1      C14            10.2525693448        2.9413059895       11.1070809819  MEMB      8               0.0000000000
       822         8  CHL1      H14            11.0852162245        3.5879369799       11.4674668592  MEMB      8               0.0000000000
       823         8  CHL1      C15             9.3535105823        3.8818126802       10.3070191280  MEMB      8               0.0000000000
       824         8  CHL1      H15A            8.2891438611        3.5817455930       10.3482992566  MEMB      8               0.0000000000
       825         8  CHL1      H15B            9.4998112656        4.8954259854       10.7297809780  MEMB      8               0.0000000000
       826         8  CHL1      C16             9.8942655210        3.8320125485        8.8869845243  MEMB      8               0.0000000000
       827         8  CHL1      H16A            9.1485545365        3.3207083755        8.2393870668  MEMB      8               0.0000000000
       828         8  CHL1      H16B           10.1001657262        4.8407255207        8.4818529641  MEMB      8               0.0000000000
       829         8  CHL1      C17            11.1991578153        3.0077014251        8.9548427849  MEMB      8               0.0000000000
       830         8  CHL1      H17            11.9859498655        3.7199952845        9.3043094802  MEMB      8               0.0000000000
       831         8  CHL1      C13            10.9544557173        2.0185774907       10.1308262011  MEMB      8               0.0000000000
       832         8  CHL1      C18            10.0055663434        0.8953123922        9.6578049118  MEMB      8               0.0000000000
       833         8  CHL1      H18A            9.5495722283        0.3636291812       10.5152805226  MEMB      8               0.0000000000
       834         8  CHL1      H18B            9.1906592780        1.2826181594        9.0179746819  MEMB      8               0.0000000000
       835         8  CHL1      H18C           10.5743155582        0.1518718618        9.0656804161  MEMB      8               0.0000000000
       836         8  CHL1      C12            12.1683881095        1.4717170160       10.9030547930  MEMB      8               0.0000000000
       837         8  CHL1      H12A           12.6882552759        0.7380303205       10.2689270727  MEMB      8               0.0000000000
       838         8  CHL1      H12B           12.8823638488        2.2986806106       11.1042694912  MEMB      8               0.0000000000
       839         8  CHL1      C11            11.7526726573        0.8422229911       12.2637585674  MEMB      8               0.0000000000
       840         8  CHL1      H11A           11.2235955470       -0.1052711197       12.0334825010  MEMB      8               0.0000000000
       841         8  CHL1      H11B           12.6783003577        0.5904582743       12.8226152471  MEMB      8               0.0000000000
       842         8  CHL1      C9             10.8542765431        1.7605474735       13.1673987268  MEMB      8               0.0000000000
       843         8  CHL1      H9             11.5151316571        2.6252242112       13.4200136431  MEMB      8               0.0000000000
       844         8  CHL1      C10            10.3755307145        1.1929248718       14.5406348664  MEMB      8               0.0000000000
       845         8  CHL1      C19            10.0107763604       -0.2973552285       14.3366045652  MEMB      8               0.0000000000
       846         8  CHL1      H19A            9.6248133316       -0.7713673355       15.2598857666  MEMB      8               0.0000000000
       847         8  CHL1      H19B            9.2523991911       -0.4056927135       13.5346599965  MEMB      8               0.0000000000
       848         8  CHL1      H19C           10.9105724445       -0.8778180873       14.0456680896  MEMB      8               0.0000000000
       849         8  CHL1      C1             11.5262510171        1.3536278505       15.5644717002  MEMB      8               0.0000000000
       850         8  CHL1      H1A            12.3794657081        0.7574333961       15.1864621875  MEMB      8               0.0000000000
       851         8  CHL1      H1B            11.8417630164        2.4193153918       15.5843848680  MEMB      8               0.0000000000
       852         8  CHL1      C2             11.1661133715        0.9621280739       17.0062445827  MEMB      8               0.0000000000
       853         8  CHL1      H2A            12.0320917550        1.1027834118       17.6830620214  MEMB      8               0.0000000000
       854         8  CHL1      H2B            10.8687279292       -0.1098138776       17.0131620979  MEMB      8               0.0000000000
       855         8  CHL1      C20            11.6321423618        2.4885165336        7.5790258533  MEMB      8               0.0000000000
       856         8  CHL1      H20            11.1638932786        1.4967884361        7.3895577973  MEMB      8               0.0000000000
       857         8  CHL1      C21            13.1609042422        2.3491514499        7.6341163188  MEMB      8               0.0000000000
       858         8  CHL1      H21A           13.6250940149        3.3439427298        7.7918290732  MEMB      8               0.0000000000
       859         8  CHL1      H21B           13.5388740421        1.9405836926        6.6765817271  MEMB      8               0.0000000000
       860         8  CHL1      H21C           13.4697226919        1.6822172390        8.4615779342  MEMB      8               0.0000000000
       861         8  CHL1      C22            11.2683628161        3.4045704707        6.3672389272  MEMB      8               0.0000000000
       862         8  CHL1      H22A           10.3009469287        3.9289676741        6.4919668251  MEMB      8               0.0000000000
       863         8  CHL1      H22B           12.0562114739        4.1794054388        6.2529963026  MEMB      8               0.0000000000
       864         8  CHL1      C23            11.1014607613        2.6323900912        5.0484357771  MEMB      8               0.0000000000
       865         8  CHL1      H23A           11.9817548042        1.9693895726        4.9041449485  MEMB      8               0.0000000000
       866         8  CHL1      H23B           10.1795331184        2.0173390896        5.1565087898  MEMB      8               0.0000000000
       867         8  CHL1      C24            10.9584392748        3.5350585745        3.8162417902  MEMB      8               0.0000000000
       868         8  CHL1      H24A           10.2105027571        4.3267448463        4.0397794429  MEMB      8               0.0000000000
       869         8  CHL1      H24B           11.9445314842        4.0240079240        3.6575188434  MEMB      8               0.0000000000
       870         8  CHL1      C25            10.5443996831        2.8475739746        2.4889745147  MEMB      8               0.0000000000
       871         8  CHL1      H25            10.4921739092        3.6540561958        1.7146197052  MEMB      8               0.0000000000
       872         8  CHL1      C26            11.5923901047        1.8386169641        1.9942768231  MEMB      8               0.0000000000
       873         8  CHL1      H26A           11.8735165481        1.1229558747        2.7909817420  MEMB      8               0.0000000000
       874         8  CHL1      H26B           11.2096511390        1.2636464931        1.1253102398  MEMB      8               0.0000000000
       875         8  CHL1      H26C           12.5097658099        2.3706606225        1.6752015076  MEMB      8               0.0000000000
       876         8  CHL1      C27             9.1416999507        2.2189264188        2.5513202866  MEMB      8               0.0000000000
       877         8  CHL1      H27A            9.0961071952        1.4229676963        3.3223856747  MEMB      8               0.0000000000
       878         8  CHL1      H27B            8.3830272036        2.9940902806        2.7908553125  MEMB      8               0.0000000000
       879         8  CHL1      H27C            8.8818185774        1.7624610808        1.5720444630  MEMB      8               0.0000000000
       880         9  OSM       N               3.9464335659      -10.0868126752       21.4461537338  MEMB      9               0.0000000000
       881         9  OSM       C15             4.3948178422       -8.7180771786       21.7708796863  MEMB      9               0.0000000000
       882         9  OSM       H15A            4.7278430520       -8.2014241395       20.8798667122  MEMB      9               0.0000000000
       883         9  OSM       H15B            5.2090711696       -8.7468357808       22.4958513868  MEMB      9               0.0000000000
       884         9  OSM       H15C            3.5758630062       -8.1737328810       22.2303844057  MEMB      9               0.0000000000
       885         9  OSM       C14             2.8690920281       -9.9863271700       20.4381667385  MEMB      9               0.0000000000
       886         9  OSM       H14A            2.1101787374       -9.2769842709       20.7211900445  MEMB      9               0.0000000000
       887         9  OSM       H14B            2.3754806757      -10.9534577787       20.3258782400  MEMB      9               0.0000000000
       888         9  OSM       H14C            3.2511853220       -9.7253835603       19.4590457136  MEMB      9               0.0000000000
       889         9  OSM       C13             5.0895929758      -10.8522612333       20.8387897288  MEMB      9               0.0000000000
       890         9  OSM       H13A            5.3503705238      -10.4539327629       19.8643970502  MEMB      9               0.0000000000
       891         9  OSM       H13B            4.8083597251      -11.8996206578       20.7095417445  MEMB      9               0.0000000000
       892         9  OSM       H13C            5.9753470396      -10.8376030137       21.4626305722  MEMB      9               0.0000000000
       893         9  OSM       C12             3.3628307181      -10.7894354372       22.6577617634  MEMB      9               0.0000000000
       894         9  OSM       H12A            2.4087688081      -10.3165513575       22.9001861482  MEMB      9               0.0000000000
       895         9  OSM       H12B            4.0149271037      -10.6788048093       23.5170566233  MEMB      9               0.0000000000
       896         9  OSM       C11             3.0564641390      -12.2939126970       22.4879211653  MEMB      9               0.0000000000
       897         9  OSM       H11A            2.4401147870      -12.5996207747       23.3683620771  MEMB      9               0.0000000000
       898         9  OSM       H11B            4.0233558006      -12.8443929940       22.5429056850  MEMB      9               0.0000000000
       899         9  OSM       P               1.9192165524      -14.0967599908       21.0929715411  MEMB      9               0.0000000000
       900         9  OSM       O13             2.9570586508      -14.9512805464       21.7035549956  MEMB      9               0.0000000000
       901         9  OSM       O14             0.5455713261      -14.2337397786       21.6301744361  MEMB      9               0.0000000000
       902         9  OSM       O11             1.8557968915      -14.3006996368       19.5270670872  MEMB      9               0.0000000000
       903         9  OSM       O12             2.3757476282      -12.5805154747       21.2531241786  MEMB      9               0.0000000000
       904         9  OSM       C1S             2.0682093825      -13.2801027880       18.5504112291  MEMB      9               0.0000000000
       905         9  OSM       H1S             3.1125051683      -12.8889342048       18.5886331767  MEMB      9               0.0000000000
       906         9  OSM       H1T             1.3674235052      -12.4316162291       18.6936987963  MEMB      9               0.0000000000
       907         9  OSM       NF              2.2126226753      -12.9317555326       16.0820259184  MEMB      9               0.0000000000
       908         9  OSM       HNF             1.4981814662      -12.3843250060       15.6670128876  MEMB      9               0.0000000000
       909         9  OSM       C2S             1.8456885496      -13.8743144292       17.1286695463  MEMB      9               0.0000000000
       910         9  OSM       H2S             2.5134277677      -14.7690631050       17.0615770352  MEMB      9               0.0000000000
       911         9  OSM       C3S             0.3818129247      -14.3311689673       16.9206701288  MEMB      9               0.0000000000
       912         9  OSM       H3S            -0.2659479272      -13.4359407861       16.7715065629  MEMB      9               0.0000000000
       913         9  OSM       O3             -0.1827958746      -15.0549747414       18.0051054783  MEMB      9               0.0000000000
       914         9  OSM       HO3             0.5379314891      -15.0744018187       18.6601605777  MEMB      9               0.0000000000
       915         9  OSM       C4S             0.3833165355      -15.1709841058       15.6712106562  MEMB      9               0.0000000000
       916         9  OSM       H4S             0.8207213543      -16.1718609703       15.8063563567  MEMB      9               0.0000000000
       917         9  OSM       C5S            -0.0781133752      -14.8082846557       14.4585937771  MEMB      9               0.0000000000
       918         9  OSM       H5S            -0.5514993974      -13.8219128250       14.3255237037  MEMB      9               0.0000000000
       919         9  OSM       C6S            -0.0378072423      -15.6954606346       13.2427060041  MEMB      9               0.0000000000
       920         9  OSM       H6S            -0.9480344027      -15.5374205710       12.6251665459  MEMB      9               0.0000000000
       921         9  OSM       H6T            -0.0282001372      -16.7596285934       13.5261823183  MEMB      9               0.0000000000
       922         9  OSM       C7S             1.1952474024      -15.5708202466       12.3511426073  MEMB      9               0.0000000000
       923         9  OSM       H7S             1.1868437045      -16.3997788472       11.6014250742  MEMB      9               0.0000000000
       924         9  OSM       H7T             2.1212772838      -15.6860332684       12.9609977175  MEMB      9               0.0000000000
       925         9  OSM       C8S             1.2060800573      -14.2523110959       11.6034573187  MEMB      9               0.0000000000
       926         9  OSM       H8S             2.1707421959      -14.1918270918       11.0500390146  MEMB      9               0.0000000000
       927         9  OSM       H8T             1.1824648550      -13.4048681650       12.3251768452  MEMB      9               0.0000000000
       928         9  OSM       C9S             0.0378680375      -14.0981087692       10.6143954398  MEMB      9               0.0000000000
       929         9  OSM       H9S            -0.9044270626      -13.8848203579       11.1695871680  MEMB      9               0.0000000000
       930         9  OSM       H9T            -0.1226171739      -15.0183813967       10.0114409489  MEMB      9               0.0000000000
       931         9  OSM       C10S            0.3624644668      -12.9242194301        9.7049634413  MEMB      9               0.0000000000
       932         9  OSM       H10S            0.8460471745      -12.2104574979       10.4026849154  MEMB      9               0.0000000000
       933         9  OSM       H10T           -0.5251004233      -12.4047590768        9.3100161296  MEMB      9               0.0000000000
       934         9  OSM       C11S            1.3158932413      -13.2895984643        8.5599718462  MEMB      9               0.0000000000
       935         9  OSM       H11S            1.8119448245      -14.2635988724        8.7723280091  MEMB      9               0.0000000000
       936         9  OSM       H11T            2.1147957587      -12.5192000051        8.4936434222  MEMB      9               0.0000000000
       937         9  OSM       C12S            0.6146074270      -13.3877117375        7.2040538153  MEMB      9               0.0000000000
       938         9  OSM       H12S            0.0219355896      -12.4662787451        6.9996581726  MEMB      9               0.0000000000
       939         9  OSM       H12T           -0.0946536298      -14.2446315898        7.2324996952  MEMB      9               0.0000000000
       940         9  OSM       C13S            1.5975339880      -13.5908879547        6.0503748394  MEMB      9               0.0000000000
       941         9  OSM       H13S            2.3923935932      -14.3092230318        6.3530935377  MEMB      9               0.0000000000
       942         9  OSM       H13T            2.0906061338      -12.6182362627        5.8203643643  MEMB      9               0.0000000000
       943         9  OSM       C14S            0.8798545960      -14.1436872071        4.8172474507  MEMB      9               0.0000000000
       944         9  OSM       H14S           -0.1116230827      -13.6489624979        4.7034562935  MEMB      9               0.0000000000
       945         9  OSM       H14T            0.6911069113      -15.2275513815        4.9932136680  MEMB      9               0.0000000000
       946         9  OSM       C15S            1.6876760583      -13.9678257439        3.5281273000  MEMB      9               0.0000000000
       947         9  OSM       H15S            1.3636742659      -14.7404599004        2.8010439692  MEMB      9               0.0000000000
       948         9  OSM       H15T            2.7619880211      -14.1420996276        3.7497167866  MEMB      9               0.0000000000
       949         9  OSM       C16S            1.5057688394      -12.5692740204        2.9207877165  MEMB      9               0.0000000000
       950         9  OSM       H16S            1.8714644686      -11.8371726869        3.6731508024  MEMB      9               0.0000000000
       951         9  OSM       H16T            0.4218711387      -12.3850727734        2.7572980744  MEMB      9               0.0000000000
       952         9  OSM       C17S            2.2380243801      -12.3281736738        1.5948891433  MEMB      9               0.0000000000
       953         9  OSM       H17S            2.8392627876      -13.2265100553        1.3463681191  MEMB      9               0.0000000000
       954         9  OSM       H17T            2.9537252023      -11.4905287564        1.7342045634  MEMB      9               0.0000000000
       955         9  OSM       C18S            1.3254337356      -11.9578311410        0.4213542366  MEMB      9               0.0000000000
       956         9  OSM       H18S            1.0402568730      -10.8858953846        0.4834976602  MEMB      9               0.0000000000
       957         9  OSM       H18T            0.3963723023      -12.5645148438        0.4224859393  MEMB      9               0.0000000000
       958         9  OSM       H18U            1.8535959753      -12.1193416545       -0.5403199156  MEMB      9               0.0000000000
       959         9  OSM       C1F             3.4708949330      -12.7389200338       15.7082837550  MEMB      9               0.0000000000
       960         9  OSM       OF              4.4151220165      -13.1705709180       16.3516371160  MEMB      9               0.0000000000
       961         9  OSM       C2F             3.6436476313      -11.9589186423       14.4496456156  MEMB      9               0.0000000000
       962         9  OSM       H2F             3.9277430934      -10.9208800131       14.7093569973  MEMB      9               0.0000000000
       963         9  OSM       H2G             2.6724156576      -11.9398003947       13.9067035429  MEMB      9               0.0000000000
       964         9  OSM       C3F             4.7134864450      -12.5506588431       13.5190986372  MEMB      9               0.0000000000
       965         9  OSM       H3F             4.4985670143      -13.6235742317       13.3139754427  MEMB      9               0.0000000000
       966         9  OSM       H3G             5.7051401096      -12.4880281998       14.0206558483  MEMB      9               0.0000000000
       967         9  OSM       C4F             4.7612928609      -11.7808836099       12.1963428852  MEMB      9               0.0000000000
       968         9  OSM       H4F             4.9162022176      -10.6999375678       12.4196348869  MEMB      9               0.0000000000
       969         9  OSM       H4G             3.7793342274      -11.8869273225       11.6817299344  MEMB      9               0.0000000000
       970         9  OSM       C5F             5.8785807267      -12.2545275493       11.2682901389  MEMB      9               0.0000000000
       971         9  OSM       H5F             5.6577151991      -13.2915007982       10.9448650003  MEMB      9               0.0000000000
       972         9  OSM       H5G             6.8347440850      -12.2637520376       11.8405674364  MEMB      9               0.0000000000
       973         9  OSM       C6F             6.0458818916      -11.3461421007       10.0447238906  MEMB      9               0.0000000000
       974         9  OSM       H6F             7.0592184617      -11.5042512168        9.6113804955  MEMB      9               0.0000000000
       975         9  OSM       H6G             5.9849337253      -10.2841316153       10.3765968935  MEMB      9               0.0000000000
       976         9  OSM       C7F             4.9946957772      -11.5960682655        8.9526676209  MEMB      9               0.0000000000
       977         9  OSM       H7F             4.0081994587      -11.7666493201        9.4360695720  MEMB      9               0.0000000000
       978         9  OSM       H7G             5.2506830907      -12.5252754785        8.3987835300  MEMB      9               0.0000000000
       979         9  OSM       C8F             4.8331060665      -10.4198781333        7.9722572422  MEMB      9               0.0000000000
       980         9  OSM       H8F             4.5129229443       -9.5215314298        8.5466040148  MEMB      9               0.0000000000
       981         9  OSM       H8G             4.0020124801      -10.6710856761        7.2758377231  MEMB      9               0.0000000000
       982         9  OSM       C9F             6.0997922377      -10.1156660790        7.2200472918  MEMB      9               0.0000000000
       983         9  OSM       H9F             7.0303154300      -10.4731249277        7.6847425732  MEMB      9               0.0000000000
       984         9  OSM       C10F            6.1739712396       -9.4512967806        6.0588210984  MEMB      9               0.0000000000
       985         9  OSM       H10F            7.1622056414       -9.3077717757        5.5968339373  MEMB      9               0.0000000000
       986         9  OSM       C11F            5.0107368090       -8.8826339993        5.2858203906  MEMB      9               0.0000000000
       987         9  OSM       H11F            5.3770786466       -8.0977155984        4.5902067490  MEMB      9               0.0000000000
       988         9  OSM       H11G            4.2947832677       -8.3779522766        5.9723840321  MEMB      9               0.0000000000
       989         9  OSM       C12F            4.2386612209       -9.9350227133        4.4647819874  MEMB      9               0.0000000000
       990         9  OSM       H12F            3.5193030365       -9.4068048124        3.8004750112  MEMB      9               0.0000000000
       991         9  OSM       H12G            3.6432720381      -10.5775710438        5.1523629528  MEMB      9               0.0000000000
       992         9  OSM       C13F            5.1328649173      -10.8401969877        3.6059483728  MEMB      9               0.0000000000
       993         9  OSM       H13F            4.5117863382      -11.6246728858        3.1249584737  MEMB      9               0.0000000000
       994         9  OSM       H13G            5.8425316530      -11.3663809111        4.2664917111  MEMB      9               0.0000000000
       995         9  OSM       C14F            5.9699491357      -10.0908973623        2.5668776603  MEMB      9               0.0000000000
       996         9  OSM       H14F            7.0189411879       -9.9880454827        2.9179308002  MEMB      9               0.0000000000
       997         9  OSM       H14G            5.5415697132       -9.0655751832        2.4630928235  MEMB      9               0.0000000000
       998         9  OSM       C15F            5.9160412735      -10.7223323277        1.1749882484  MEMB      9               0.0000000000
       999         9  OSM       H15F            6.2036735358       -9.9294941888        0.4521495841  MEMB      9               0.0000000000
      1000         9  OSM       H15G            4.8644078284      -11.0273016221        0.9961820665  MEMB      9               0.0000000000
      1001         9  OSM       C16F            6.8293571176      -11.9172760498        0.8950018372  MEMB      9               0.0000000000
      1002         9  OSM       H16F            6.5843792058      -12.7350905768        1.6058065006  MEMB      9               0.0000000000
      1003         9  OSM       H16G            7.8865435601      -11.6017903748        1.0460378986  MEMB      9               0.0000000000
      1004         9  OSM       C17F            6.7019856277      -12.4469507399       -0.5442438054  MEMB      9               0.0000000000
      1005         9  OSM       H17F            7.3790120337      -13.3112067013       -0.6661775214  MEMB      9               0.0000000000
      1006         9  OSM       H17G            7.0519328126      -11.6575304474       -1.2453471197  MEMB      9               0.0000000000
      1007         9  OSM       C18F            5.3075446633      -12.9315802863       -0.9394371737  MEMB      9               0.0000000000
      1008         9  OSM       H18F            5.0286946015      -13.8162928271       -0.3385091419  MEMB      9               0.0000000000
      1009         9  OSM       H18G            5.2686112422      -13.1867175692       -2.0210113585  MEMB      9               0.0000000000
      1010         9  OSM       H18H            4.5383328132      -12.1630143999       -0.7453932398  MEMB      9               0.0000000000
      1011        10  CHL1      C3            -10.0944535185        7.5724218347       17.5359051109  MEMB      10              0.0000000000
      1012        10  CHL1      H3             -9.3052582495        8.3697819340       17.4965697083  MEMB      10              0.0000000000
      1013        10  CHL1      O3             -9.9941865443        6.8602509951       18.7597600212  MEMB      10              0.0000000000
      1014        10  CHL1      H3'            -9.0280452524        6.9776997604       18.8943941979  MEMB      10              0.0000000000
      1015        10  CHL1      C4            -11.4602031540        8.2775466631       17.4371018668  MEMB      10              0.0000000000
      1016        10  CHL1      H4A           -12.2591739555        7.5682854052       17.7293975250  MEMB      10              0.0000000000
      1017        10  CHL1      H4B           -11.4734608337        9.0936622100       18.1968451506  MEMB      10              0.0000000000
      1018        10  CHL1      C5            -11.7002961624        8.8098587070       16.0384901797  MEMB      10              0.0000000000
      1019        10  CHL1      C6            -11.9519091955       10.1032636251       15.7880432996  MEMB      10              0.0000000000
      1020        10  CHL1      H6            -11.9550760803       10.8332498019       16.6119323219  MEMB      10              0.0000000000
      1021        10  CHL1      C7            -12.2976327043       10.6150967411       14.4176487110  MEMB      10              0.0000000000
      1022        10  CHL1      H7A           -13.0776893035       11.4031577507       14.4711877734  MEMB      10              0.0000000000
      1023        10  CHL1      H7B           -11.3982095868       11.0763267948       13.9524560381  MEMB      10              0.0000000000
      1024        10  CHL1      C8            -12.7911272226        9.4558569341       13.5098982287  MEMB      10              0.0000000000
      1025        10  CHL1      H8            -13.7383872311        9.0581034941       13.9375255681  MEMB      10              0.0000000000
      1026        10  CHL1      C14           -13.0578008668        9.9510218995       12.1043357338  MEMB      10              0.0000000000
      1027        10  CHL1      H14           -12.0839046480       10.3472838906       11.7182384407  MEMB      10              0.0000000000
      1028        10  CHL1      C15           -14.0604447893       11.1018430594       11.9651318292  MEMB      10              0.0000000000
      1029        10  CHL1      H15A          -14.9182801079       10.9444530417       12.6517068344  MEMB      10              0.0000000000
      1030        10  CHL1      H15B          -13.5884258032       12.0699812934       12.2080123127  MEMB      10              0.0000000000
      1031        10  CHL1      C16           -14.5139304803       11.0001008106       10.5053554265  MEMB      10              0.0000000000
      1032        10  CHL1      H16A          -15.6184598898       10.8717408972       10.4859722861  MEMB      10              0.0000000000
      1033        10  CHL1      H16B          -14.2207386045       11.8889292993        9.9138728986  MEMB      10              0.0000000000
      1034        10  CHL1      C17           -13.8213765610        9.7613396402        9.8864538040  MEMB      10              0.0000000000
      1035        10  CHL1      H17           -12.8321334835       10.1296386571        9.5185240547  MEMB      10              0.0000000000
      1036        10  CHL1      C13           -13.5178768327        8.8828301324       11.1149235214  MEMB      10              0.0000000000
      1037        10  CHL1      C18           -14.8514805037        8.2613476986       11.6237059196  MEMB      10              0.0000000000
      1038        10  CHL1      H18A          -14.6792573291        7.6429669944       12.5226446167  MEMB      10              0.0000000000
      1039        10  CHL1      H18B          -15.6055934603        9.0218214852       11.8962467645  MEMB      10              0.0000000000
      1040        10  CHL1      H18C          -15.3237146311        7.6268200085       10.8574987431  MEMB      10              0.0000000000
      1041        10  CHL1      C12           -12.3573260274        7.8793501730       10.9882498184  MEMB      10              0.0000000000
      1042        10  CHL1      H12A          -12.6271939282        7.0444826453       10.3161359896  MEMB      10              0.0000000000
      1043        10  CHL1      H12B          -11.4794300768        8.4023953322       10.5528401240  MEMB      10              0.0000000000
      1044        10  CHL1      C11           -11.9650369095        7.2942734479       12.3586801099  MEMB      10              0.0000000000
      1045        10  CHL1      H11A          -12.8006847973        6.6265664538       12.6200276777  MEMB      10              0.0000000000
      1046        10  CHL1      H11B          -11.0595682178        6.6631131390       12.2458365606  MEMB      10              0.0000000000
      1047        10  CHL1      C9            -11.7439970576        8.3466822094       13.4915834592  MEMB      10              0.0000000000
      1048        10  CHL1      H9            -10.7839990203        8.8572187406       13.2268717387  MEMB      10              0.0000000000
      1049        10  CHL1      C10           -11.5585516065        7.7602217879       14.9188742836  MEMB      10              0.0000000000
      1050        10  CHL1      C19           -12.5998294763        6.6422818418       15.1411019289  MEMB      10              0.0000000000
      1051        10  CHL1      H19A          -13.6149348837        6.9739385855       14.8460906116  MEMB      10              0.0000000000
      1052        10  CHL1      H19B          -12.3118048874        5.7699413341       14.5200004828  MEMB      10              0.0000000000
      1053        10  CHL1      H19C          -12.6412977304        6.2674937120       16.1796275332  MEMB      10              0.0000000000
      1054        10  CHL1      C1            -10.1311294220        7.1700378963       15.0281265221  MEMB      10              0.0000000000
      1055        10  CHL1      H1A           -10.0024315792        6.3858479198       14.2532016759  MEMB      10              0.0000000000
      1056        10  CHL1      H1B            -9.3942597543        7.9768652821       14.8095164036  MEMB      10              0.0000000000
      1057        10  CHL1      C2             -9.8241890685        6.5694236994       16.4052775730  MEMB      10              0.0000000000
      1058        10  CHL1      H2A            -8.7511360255        6.2753024190       16.4358435411  MEMB      10              0.0000000000
      1059        10  CHL1      H2B           -10.4495355534        5.6628093533       16.5499675797  MEMB      10              0.0000000000
      1060        10  CHL1      C20           -14.5584641118        9.1904420962        8.6564811810  MEMB      10              0.0000000000
      1061        10  CHL1      H20           -15.3928358963        8.5312244611        8.9770615426  MEMB      10              0.0000000000
      1062        10  CHL1      C21           -13.5342021964        8.3880786930        7.8245380899  MEMB      10              0.0000000000
      1063        10  CHL1      H21A          -13.0801828514        7.5732498131        8.4116948814  MEMB      10              0.0000000000
      1064        10  CHL1      H21B          -12.7168630374        9.0548094522        7.4758959950  MEMB      10              0.0000000000
      1065        10  CHL1      H21C          -14.0091665395        7.9359510397        6.9305087828  MEMB      10              0.0000000000
      1066        10  CHL1      C22           -15.1540065954       10.3066653520        7.7474188215  MEMB      10              0.0000000000
      1067        10  CHL1      H22A          -15.6985731923       11.0759403240        8.3329359277  MEMB      10              0.0000000000
      1068        10  CHL1      H22B          -14.2785434906       10.7941922469        7.2714648374  MEMB      10              0.0000000000
      1069        10  CHL1      C23           -16.1585024843        9.8729603982        6.6557499274  MEMB      10              0.0000000000
      1070        10  CHL1      H23A          -15.7656709467        8.9731375753        6.1409711712  MEMB      10              0.0000000000
      1071        10  CHL1      H23B          -17.1145116359        9.6330114773        7.1597357717  MEMB      10              0.0000000000
      1072        10  CHL1      C24           -16.4070949009       10.9752851524        5.6055693871  MEMB      10              0.0000000000
      1073        10  CHL1      H24A          -16.6077827553       11.9324030146        6.1221503374  MEMB      10              0.0000000000
      1074        10  CHL1      H24B          -15.4621079454       11.0714616502        5.0308892351  MEMB      10              0.0000000000
      1075        10  CHL1      C25           -17.5628341691       10.8398718774        4.5970841339  MEMB      10              0.0000000000
      1076        10  CHL1      H25           -17.5360800869        9.8093250126        4.1791604282  MEMB      10              0.0000000000
      1077        10  CHL1      C26           -18.9256615105       11.1345578227        5.2461385594  MEMB      10              0.0000000000
      1078        10  CHL1      H26A          -19.7556502898       10.8978690825        4.5477367413  MEMB      10              0.0000000000
      1079        10  CHL1      H26B          -19.0604432384       10.5535264876        6.1748562015  MEMB      10              0.0000000000
      1080        10  CHL1      H26C          -18.9934476252       12.2085138200        5.5227876088  MEMB      10              0.0000000000
      1081        10  CHL1      C27           -17.3525264160       11.8480887771        3.4523524582  MEMB      10              0.0000000000
      1082        10  CHL1      H27A          -17.4886473066       12.8840059774        3.8334781045  MEMB      10              0.0000000000
      1083        10  CHL1      H27B          -16.3263616485       11.7672715488        3.0403581952  MEMB      10              0.0000000000
      1084        10  CHL1      H27C          -18.0819830568       11.6720811861        2.6361336721  MEMB      10              0.0000000000
      1085        11  CHL1      C3             -6.4034322198      -12.3549393805       17.6411838439  MEMB      11              0.0000000000
      1086        11  CHL1      H3             -7.0520051564      -11.4479724167       17.6743167664  MEMB      11              0.0000000000
      1087        11  CHL1      O3             -6.3620705705      -12.9527730177       18.9303325631  MEMB      11              0.0000000000
      1088        11  CHL1      H3'            -5.9401724562      -12.2903135738       19.5037435384  MEMB      11              0.0000000000
      1089        11  CHL1      C4             -6.9933177506      -13.3470924994       16.6284699962  MEMB      11              0.0000000000
      1090        11  CHL1      H4A            -6.4502963768      -14.3114262051       16.7253914598  MEMB      11              0.0000000000
      1091        11  CHL1      H4B            -8.0395645583      -13.5626740313       16.9368725127  MEMB      11              0.0000000000
      1092        11  CHL1      C5             -6.9059364796      -12.8343955664       15.2022038162  MEMB      11              0.0000000000
      1093        11  CHL1      C6             -7.9835869506      -12.7485936135       14.4020868810  MEMB      11              0.0000000000
      1094        11  CHL1      H6             -8.9685611530      -13.0602838675       14.7810476876  MEMB      11              0.0000000000
      1095        11  CHL1      C7             -7.8925260694      -12.3978868445       12.9398825989  MEMB      11              0.0000000000
      1096        11  CHL1      H7A            -8.5747152879      -13.0450531840       12.3487491902  MEMB      11              0.0000000000
      1097        11  CHL1      H7B            -8.1928128483      -11.3407721592       12.7707697802  MEMB      11              0.0000000000
      1098        11  CHL1      C8             -6.4397602692      -12.5963033939       12.4195296376  MEMB      11              0.0000000000
      1099        11  CHL1      H8             -6.2305241649      -13.6855913062       12.4931684756  MEMB      11              0.0000000000
      1100        11  CHL1      C14            -6.3021531476      -12.2219471187       10.9555779538  MEMB      11              0.0000000000
      1101        11  CHL1      H14            -6.6260222416      -11.1543204483       10.8666645499  MEMB      11              0.0000000000
      1102        11  CHL1      C15            -7.1646913918      -13.0112726599        9.9646671575  MEMB      11              0.0000000000
      1103        11  CHL1      H15A           -6.9572634910      -14.0988731874       10.0735334199  MEMB      11              0.0000000000
      1104        11  CHL1      H15B           -8.2489515679      -12.8348500033       10.0863168730  MEMB      11              0.0000000000
      1105        11  CHL1      C16            -6.6362732884      -12.5017052374        8.6266135673  MEMB      11              0.0000000000
      1106        11  CHL1      H16A           -6.7327938503      -13.2875083045        7.8505833300  MEMB      11              0.0000000000
      1107        11  CHL1      H16B           -7.2191186475      -11.6106071186        8.3055158523  MEMB      11              0.0000000000
      1108        11  CHL1      C17            -5.1498848976      -12.0625217745        8.8644264279  MEMB      11              0.0000000000
      1109        11  CHL1      H17            -5.1076244571      -10.9591946785        8.7111076957  MEMB      11              0.0000000000
      1110        11  CHL1      C13            -4.8800400189      -12.2889408590       10.3877698176  MEMB      11              0.0000000000
      1111        11  CHL1      C18            -4.2731801455      -13.6919004984       10.6112707780  MEMB      11              0.0000000000
      1112        11  CHL1      H18A           -4.7165127466      -14.4133033724        9.9132016243  MEMB      11              0.0000000000
      1113        11  CHL1      H18B           -3.1784421021      -13.6925187900       10.4679551044  MEMB      11              0.0000000000
      1114        11  CHL1      H18C           -4.4259583308      -14.0684463376       11.6375385234  MEMB      11              0.0000000000
      1115        11  CHL1      C12            -4.0613004467      -11.2335414336       11.1544292083  MEMB      11              0.0000000000
      1116        11  CHL1      H12A           -3.0182654865      -11.1984029578       10.7744306666  MEMB      11              0.0000000000
      1117        11  CHL1      H12B           -4.5208685950      -10.2354546742       10.9942618713  MEMB      11              0.0000000000
      1118        11  CHL1      C11            -4.0556255781      -11.5568484193       12.6723783571  MEMB      11              0.0000000000
      1119        11  CHL1      H11A           -3.4061281218      -12.4445878812       12.7873660107  MEMB      11              0.0000000000
      1120        11  CHL1      H11B           -3.5563787739      -10.7319110557       13.2212901335  MEMB      11              0.0000000000
      1121        11  CHL1      C9             -5.4716960128      -11.8025444820       13.3103550377  MEMB      11              0.0000000000
      1122        11  CHL1      H9             -5.9172596389      -10.7808467784       13.3889363673  MEMB      11              0.0000000000
      1123        11  CHL1      C10            -5.4908050357      -12.3974967451       14.7555243986  MEMB      11              0.0000000000
      1124        11  CHL1      C19            -4.5972999925      -13.6459729571       14.7555435201  MEMB      11              0.0000000000
      1125        11  CHL1      H19A           -4.9702917199      -14.3117019013       13.9640525268  MEMB      11              0.0000000000
      1126        11  CHL1      H19B           -3.5348403892      -13.3982299817       14.5617542462  MEMB      11              0.0000000000
      1127        11  CHL1      H19C           -4.6127384743      -14.1941969272       15.7163201629  MEMB      11              0.0000000000
      1128        11  CHL1      C1             -4.9304863117      -11.4089820928       15.8012389552  MEMB      11              0.0000000000
      1129        11  CHL1      H1A            -3.8676775447      -11.2425653291       15.5402495449  MEMB      11              0.0000000000
      1130        11  CHL1      H1B            -5.4628077831      -10.4360137406       15.7408984100  MEMB      11              0.0000000000
      1131        11  CHL1      C2             -4.9891029731      -11.9322263420       17.2481252274  MEMB      11              0.0000000000
      1132        11  CHL1      H2A            -4.6476734942      -11.1327229522       17.9337454248  MEMB      11              0.0000000000
      1133        11  CHL1      H2B            -4.2977374567      -12.7965696811       17.3660511524  MEMB      11              0.0000000000
      1134        11  CHL1      C20            -4.2562194316      -12.7015179950        7.7812245194  MEMB      11              0.0000000000
      1135        11  CHL1      H20            -4.4156785975      -13.8063204940        7.7989121134  MEMB      11              0.0000000000
      1136        11  CHL1      C21            -2.7632218399      -12.4209023365        8.0022010327  MEMB      11              0.0000000000
      1137        11  CHL1      H21A           -2.5774731038      -11.3434011441        8.1782172531  MEMB      11              0.0000000000
      1138        11  CHL1      H21B           -2.1779499238      -12.7369860257        7.1148608997  MEMB      11              0.0000000000
      1139        11  CHL1      H21C           -2.3734374757      -13.0074162652        8.8486462135  MEMB      11              0.0000000000
      1140        11  CHL1      C22            -4.6260825445      -12.2092195132        6.3568424627  MEMB      11              0.0000000000
      1141        11  CHL1      H22A           -5.7195563055      -12.0571239511        6.2437619193  MEMB      11              0.0000000000
      1142        11  CHL1      H22B           -4.1402722473      -11.2191929077        6.2010764904  MEMB      11              0.0000000000
      1143        11  CHL1      C23            -4.1868830871      -13.1596296116        5.2290990864  MEMB      11              0.0000000000
      1144        11  CHL1      H23A           -3.1201784345      -13.4378367292        5.3635045342  MEMB      11              0.0000000000
      1145        11  CHL1      H23B           -4.7859314228      -14.0969023500        5.2716748296  MEMB      11              0.0000000000
      1146        11  CHL1      C24            -4.3727956340      -12.4921892635        3.8631070734  MEMB      11              0.0000000000
      1147        11  CHL1      H24A           -5.4561108432      -12.2946895677        3.7024360909  MEMB      11              0.0000000000
      1148        11  CHL1      H24B           -3.8566430083      -11.5039686142        3.8791318591  MEMB      11              0.0000000000
      1149        11  CHL1      C25            -3.8320765810      -13.2896843214        2.6632137829  MEMB      11              0.0000000000
      1150        11  CHL1      H25            -4.3598273885      -14.2715576452        2.6099502632  MEMB      11              0.0000000000
      1151        11  CHL1      C26            -4.1286962644      -12.5092253019        1.3784580241  MEMB      11              0.0000000000
      1152        11  CHL1      H26A           -3.7729330706      -13.0630654251        0.4859017380  MEMB      11              0.0000000000
      1153        11  CHL1      H26B           -5.2183548357      -12.3324083437        1.2866521523  MEMB      11              0.0000000000
      1154        11  CHL1      H26C           -3.6290049613      -11.5216084814        1.4036811291  MEMB      11              0.0000000000
      1155        11  CHL1      C27            -2.3246365563      -13.5492861447        2.7815553110  MEMB      11              0.0000000000
      1156        11  CHL1      H27A           -2.1170323712      -14.3910687323        3.4743666193  MEMB      11              0.0000000000
      1157        11  CHL1      H27B           -1.8843319375      -13.7810885156        1.7902101983  MEMB      11              0.0000000000
      1158        11  CHL1      H27C           -1.8206595017      -12.6445260934        3.1668867358  MEMB      11              0.0000000000
      1159        12  SAPE      N               0.9962360631       13.1687427295       19.9500783310  MEMB      12              0.0000000000
      1160        12  SAPE      HN1             1.9145313286       12.6663260573       20.1196773653  MEMB      12              0.0000000000
      1161        12  SAPE      HN2             0.1976918562       12.5222464883       20.0511857472  MEMB      12              0.0000000000
      1162        12  SAPE      HN3             1.0710508691       13.3990314538       18.9342379081  MEMB      12              0.0000000000
      1163        12  SAPE      C12             0.9835706156       14.4386605623       20.7802524561  MEMB      12              0.0000000000
      1164        12  SAPE      H12A            0.3671791141       14.2613300165       21.6819629844  MEMB      12              0.0000000000
      1165        12  SAPE      H12B            0.5104462046       15.2330571340       20.1655644063  MEMB      12              0.0000000000
      1166        12  SAPE      C11             2.3938758606       14.9143023991       21.2092849281  MEMB      12              0.0000000000
      1167        12  SAPE      H11A            2.7764687079       14.3176856883       22.0716626062  MEMB      12              0.0000000000
      1168        12  SAPE      H11B            2.3118771844       15.9596943938       21.5832797131  MEMB      12              0.0000000000
      1169        12  SAPE      P               4.3280214890       13.7315326342       19.8962709277  MEMB      12              0.0000000000
      1170        12  SAPE      O13             5.3787791457       13.8620420028       20.9140888232  MEMB      12              0.0000000000
      1171        12  SAPE      O14             3.4967961912       12.5067534938       19.8592265301  MEMB      12              0.0000000000
      1172        12  SAPE      O12             3.3050249161       14.9166141838       20.1210503758  MEMB      12              0.0000000000
      1173        12  SAPE      O11             4.9119315638       14.0307015399       18.4622605291  MEMB      12              0.0000000000
      1174        12  SAPE      C1              4.4784613209       15.1899401920       17.7478850696  MEMB      12              0.0000000000
      1175        12  SAPE      HA              4.4944945654       16.1032255044       18.3864103593  MEMB      12              0.0000000000
      1176        12  SAPE      HB              5.1787547369       15.3675975938       16.9025558425  MEMB      12              0.0000000000
      1177        12  SAPE      C2              3.0653556544       14.9828073854       17.1591918441  MEMB      12              0.0000000000
      1178        12  SAPE      HS              2.3668408302       14.8183640377       18.0095298116  MEMB      12              0.0000000000
      1179        12  SAPE      O21             3.1345775035       13.8592219017       16.2611861081  MEMB      12              0.0000000000
      1180        12  SAPE      C21             2.1056871385       13.0494443627       16.3244862018  MEMB      12              0.0000000000
      1181        12  SAPE      O22             1.2474884760       13.0302526729       17.2006588306  MEMB      12              0.0000000000
      1182        12  SAPE      C22             2.0614713728       12.2170845745       15.0456363333  MEMB      12              0.0000000000
      1183        12  SAPE      H2R             0.9988896788       11.9701029064       14.8496831280  MEMB      12              0.0000000000
      1184        12  SAPE      H2S             2.4350954623       12.8678805066       14.2305758350  MEMB      12              0.0000000000
      1185        12  SAPE      C3              2.5191555716       16.2381698934       16.4294977850  MEMB      12              0.0000000000
      1186        12  SAPE      HX              3.3938851532       16.8765914327       16.1572211153  MEMB      12              0.0000000000
      1187        12  SAPE      HY              1.9118561110       16.8337994543       17.1476921048  MEMB      12              0.0000000000
      1188        12  SAPE      O31             1.6844921784       15.8374626351       15.3167982991  MEMB      12              0.0000000000
      1189        12  SAPE      C31             2.2116904222       16.0760999781       14.1209412736  MEMB      12              0.0000000000
      1190        12  SAPE      O32             3.1439866763       16.8283732344       13.8957583866  MEMB      12              0.0000000000
      1191        12  SAPE      C32             1.4633438626       15.2581576265       13.0652447602  MEMB      12              0.0000000000
      1192        12  SAPE      H2X             0.5124390479       15.7492106883       12.8202354942  MEMB      12              0.0000000000
      1193        12  SAPE      H2Y             1.2158315426       14.2596670865       13.4575648562  MEMB      12              0.0000000000
      1194        12  SAPE      C23             2.9253294375       10.9363893188       15.0139722305  MEMB      12              0.0000000000
      1195        12  SAPE      H3R             2.4072231489       10.1471263168       15.5998286880  MEMB      12              0.0000000000
      1196        12  SAPE      H3S             3.9169568380       11.0862258425       15.4980336280  MEMB      12              0.0000000000
      1197        12  SAPE      C24             3.1091913147       10.4706687234       13.5483911757  MEMB      12              0.0000000000
      1198        12  SAPE      H4R             2.1703253109       10.6887543883       12.9905025558  MEMB      12              0.0000000000
      1199        12  SAPE      H4S             3.2287361719        9.3637740275       13.5570795954  MEMB      12              0.0000000000
      1200        12  SAPE      C25             4.3153005268       11.0819200371       12.8714411052  MEMB      12              0.0000000000
      1201        12  SAPE      H5R             5.1126350033       11.3767162592       13.5734806522  MEMB      12              0.0000000000
      1202        12  SAPE      C26             4.4888022968       11.3485650886       11.5621499654  MEMB      12              0.0000000000
      1203        12  SAPE      H6R             5.4301044144       11.8284615598       11.2448968026  MEMB      12              0.0000000000
      1204        12  SAPE      C27             3.4806755510       11.0931078867       10.4708856518  MEMB      12              0.0000000000
      1205        12  SAPE      H7R             2.8125305254       11.9841047946       10.4404900239  MEMB      12              0.0000000000
      1206        12  SAPE      H7S             2.8250670274       10.2368453937       10.7476628152  MEMB      12              0.0000000000
      1207        12  SAPE      C28             4.0156783550       10.8808183461        9.0732988961  MEMB      12              0.0000000000
      1208        12  SAPE      H8R             5.1072577630       10.9079766249        8.9318076861  MEMB      12              0.0000000000
      1209        12  SAPE      C29             3.2108129916       10.6997471956        8.0114876919  MEMB      12              0.0000000000
      1210        12  SAPE      H9R             3.6384405105       10.5340765557        7.0080406127  MEMB      12              0.0000000000
      1211        12  SAPE      C210            1.7100884828       10.6973303123        8.1388783624  MEMB      12              0.0000000000
      1212        12  SAPE      H10R            1.3896390131       11.4771428796        8.8659753626  MEMB      12              0.0000000000
      1213        12  SAPE      H10S            1.4174849234        9.7342243978        8.5909497367  MEMB      12              0.0000000000
      1214        12  SAPE      C211            0.9502626458       10.8487628526        6.8505055999  MEMB      12              0.0000000000
      1215        12  SAPE      H11R            1.2313469050       10.1495761625        6.0476484703  MEMB      12              0.0000000000
      1216        12  SAPE      C212           -0.0252053566       11.7472797222        6.6235290147  MEMB      12              0.0000000000
      1217        12  SAPE      H12R           -0.5033439774       11.7490872483        5.6353208209  MEMB      12              0.0000000000
      1218        12  SAPE      C213           -0.5601562868       12.7828549487        7.5935354173  MEMB      12              0.0000000000
      1219        12  SAPE      H13R           -0.8690969908       12.2812507753        8.5395336149  MEMB      12              0.0000000000
      1220        12  SAPE      H13S           -1.5057683397       13.2021038316        7.1832188022  MEMB      12              0.0000000000
      1221        12  SAPE      C214            0.3719646690       13.9331827402        7.9159151538  MEMB      12              0.0000000000
      1222        12  SAPE      H14R            0.7892393062       13.9151644914        8.9333929849  MEMB      12              0.0000000000
      1223        12  SAPE      C215            0.7054737456       14.9460324229        7.0903798561  MEMB      12              0.0000000000
      1224        12  SAPE      H15R            1.3907345477       15.7347806912        7.4412679411  MEMB      12              0.0000000000
      1225        12  SAPE      C216            0.1913835940       15.0944538552        5.6837204136  MEMB      12              0.0000000000
      1226        12  SAPE      H16R           -0.6118318461       15.8541791693        5.6517609864  MEMB      12              0.0000000000
      1227        12  SAPE      H16S           -0.2765395132       14.1439546299        5.3502514473  MEMB      12              0.0000000000
      1228        12  SAPE      C217            1.2308085393       15.4445230385        4.6039003682  MEMB      12              0.0000000000
      1229        12  SAPE      H17R            0.7676687905       15.1090510364        3.6515665932  MEMB      12              0.0000000000
      1230        12  SAPE      H17S            2.1690895714       14.8646605348        4.7526962481  MEMB      12              0.0000000000
      1231        12  SAPE      C218            1.5781445906       16.9325560357        4.4911816980  MEMB      12              0.0000000000
      1232        12  SAPE      H18R            2.5103633400       17.0834913942        5.0563934625  MEMB      12              0.0000000000
      1233        12  SAPE      H18S            0.8087806451       17.5378169903        5.0058442424  MEMB      12              0.0000000000
      1234        12  SAPE      C219            1.7209165847       17.4873580759        3.0611797377  MEMB      12              0.0000000000
      1235        12  SAPE      H19R            2.4163956839       18.3558849285        3.1076500349  MEMB      12              0.0000000000
      1236        12  SAPE      H19S            0.7447689698       17.8851064162        2.7082409660  MEMB      12              0.0000000000
      1237        12  SAPE      C220            2.2380398333       16.5153997615        2.0051533202  MEMB      12              0.0000000000
      1238        12  SAPE      H20R            3.2583370702       16.1795987180        2.2807042279  MEMB      12              0.0000000000
      1239        12  SAPE      H20S            2.2898444847       17.0193114103        1.0233287491  MEMB      12              0.0000000000
      1240        12  SAPE      H20T            1.5773975236       15.6345341419        1.8827255749  MEMB      12              0.0000000000
      1241        12  SAPE      C33             2.2951742264       15.1696066239       11.7837204960  MEMB      12              0.0000000000
      1242        12  SAPE      H3X             2.3859712312       16.1967077405       11.3681845033  MEMB      12              0.0000000000
      1243        12  SAPE      H3Y             1.7641628952       14.5496841923       11.0253574352  MEMB      12              0.0000000000
      1244        12  SAPE      C34             3.6619650639       14.5441487653       12.0737013912  MEMB      12              0.0000000000
      1245        12  SAPE      H4X             3.4657263248       13.4843197967       12.2949142671  MEMB      12              0.0000000000
      1246        12  SAPE      H4Y             4.1534725382       14.9552246720       12.9811071612  MEMB      12              0.0000000000
      1247        12  SAPE      C35             4.6710093927       14.7390837790       10.9510510296  MEMB      12              0.0000000000
      1248        12  SAPE      H5X             4.3681778075       14.0801791612       10.1156470028  MEMB      12              0.0000000000
      1249        12  SAPE      H5Y             5.6654802891       14.3905441070       11.3146853824  MEMB      12              0.0000000000
      1250        12  SAPE      C36             4.7731517166       16.2180012656       10.5371173882  MEMB      12              0.0000000000
      1251        12  SAPE      H6X             4.7557904835       16.8178863364       11.4818141136  MEMB      12              0.0000000000
      1252        12  SAPE      H6Y             3.9007847373       16.5305527660        9.9254796326  MEMB      12              0.0000000000
      1253        12  SAPE      C37             6.0674093984       16.5741117302        9.8095397932  MEMB      12              0.0000000000
      1254        12  SAPE      H7X             6.8735515659       16.0334762352       10.3301594602  MEMB      12              0.0000000000
      1255        12  SAPE      H7Y             6.2700049042       17.6578592889        9.9502550395  MEMB      12              0.0000000000
      1256        12  SAPE      C38             6.0734934961       16.2658168359        8.3066094398  MEMB      12              0.0000000000
      1257        12  SAPE      H8X             7.0586933778       16.5399217933        7.8706532117  MEMB      12              0.0000000000
      1258        12  SAPE      H8Y             5.3011877189       16.9036612503        7.8333350745  MEMB      12              0.0000000000
      1259        12  SAPE      C39             5.7362775226       14.8164282403        7.9539757236  MEMB      12              0.0000000000
      1260        12  SAPE      H9X             4.6862335972       14.6365618261        8.2768135403  MEMB      12              0.0000000000
      1261        12  SAPE      H9Y             6.4048270843       14.1101678007        8.4905783453  MEMB      12              0.0000000000
      1262        12  SAPE      C310            5.7334727626       14.5355035216        6.4548281806  MEMB      12              0.0000000000
      1263        12  SAPE      H10X            6.7537273466       14.5555606452        6.0242091458  MEMB      12              0.0000000000
      1264        12  SAPE      H10Y            5.1421028975       15.3488924531        5.9762784531  MEMB      12              0.0000000000
      1265        12  SAPE      C311            5.0145779699       13.2228434783        6.1415322274  MEMB      12              0.0000000000
      1266        12  SAPE      H11X            4.0785324487       13.2130064064        6.7518071762  MEMB      12              0.0000000000
      1267        12  SAPE      H11Y            5.6189783034       12.3426067853        6.4417446408  MEMB      12              0.0000000000
      1268        12  SAPE      C312            4.5987533227       13.1472255082        4.6736989872  MEMB      12              0.0000000000
      1269        12  SAPE      H12X            5.4549974164       12.8346816788        4.0381873342  MEMB      12              0.0000000000
      1270        12  SAPE      H12Y            4.3157862662       14.1819618272        4.3761637450  MEMB      12              0.0000000000
      1271        12  SAPE      C313            3.3930781755       12.2210968412        4.4619119549  MEMB      12              0.0000000000
      1272        12  SAPE      H13X            2.7209336014       12.3226410832        5.3451999808  MEMB      12              0.0000000000
      1273        12  SAPE      H13Y            3.7445575649       11.1683765598        4.4288314376  MEMB      12              0.0000000000
      1274        12  SAPE      C314            2.5183962675       12.5339260396        3.2354956650  MEMB      12              0.0000000000
      1275        12  SAPE      H14X            1.6545634264       13.1462071188        3.5626963383  MEMB      12              0.0000000000
      1276        12  SAPE      H14Y            2.0810438686       11.5881417210        2.8515684395  MEMB      12              0.0000000000
      1277        12  SAPE      C315            3.2167116965       13.2803406586        2.0992223098  MEMB      12              0.0000000000
      1278        12  SAPE      H15X            3.7092985148       14.2110700432        2.4418325929  MEMB      12              0.0000000000
      1279        12  SAPE      H15Y            2.4296035675       13.5913331871        1.3746874840  MEMB      12              0.0000000000
      1280        12  SAPE      C316            4.2445276285       12.4215288972        1.3821229493  MEMB      12              0.0000000000
      1281        12  SAPE      H16X            5.2780387177       12.7277167388        1.6542606593  MEMB      12              0.0000000000
      1282        12  SAPE      H16Y            4.1194617980       11.3641033962        1.7157864607  MEMB      12              0.0000000000
      1283        12  SAPE      C317            4.0271270167       12.4760345623       -0.1224726227  MEMB      12              0.0000000000
      1284        12  SAPE      H17X            2.9459888859       12.5605767783       -0.3660823975  MEMB      12              0.0000000000
      1285        12  SAPE      H17Y            4.3361471977       11.4825598277       -0.4861746412  MEMB      12              0.0000000000
      1286        12  SAPE      C318            4.8251870182       13.5497341983       -0.8547010963  MEMB      12              0.0000000000
      1287        12  SAPE      H18X            4.2005515340       14.0617439321       -1.6148409614  MEMB      12              0.0000000000
      1288        12  SAPE      H18Y            5.6883642243       13.0907950061       -1.3828115161  MEMB      12              0.0000000000
      1289        12  SAPE      H18Z            5.2213985334       14.3096303174       -0.1484509065  MEMB      12              0.0000000000
      1290        13  CHL1      C3            -13.6103390223        0.6394313515       17.0576246832  MEMB      13              0.0000000000
      1291        13  CHL1      H3            -13.2352411841        1.5205410329       16.4854078250  MEMB      13              0.0000000000
      1292        13  CHL1      O3            -13.4466717592        0.8965291278       18.4525964828  MEMB      13              0.0000000000
      1293        13  CHL1      H3'           -13.7898924075        0.1128644739       18.9209705357  MEMB      13              0.0000000000
      1294        13  CHL1      C4            -15.0890618573        0.3979381223       16.7178839478  MEMB      13              0.0000000000
      1295        13  CHL1      H4A           -15.4325143729       -0.4587958643       17.3373463685  MEMB      13              0.0000000000
      1296        13  CHL1      H4B           -15.6555353467        1.2872894935       17.0699544663  MEMB      13              0.0000000000
      1297        13  CHL1      C5            -15.3397575680        0.1062305281       15.2414242172  MEMB      13              0.0000000000
      1298        13  CHL1      C6            -16.2388861558        0.8267396973       14.5635615978  MEMB      13              0.0000000000
      1299        13  CHL1      H6            -16.8141370635        1.5920499371       15.1002736068  MEMB      13              0.0000000000
      1300        13  CHL1      C7            -16.5391531480        0.7124766889       13.1003237781  MEMB      13              0.0000000000
      1301        13  CHL1      H7A           -17.6107779807        0.4399078175       12.9563774808  MEMB      13              0.0000000000
      1302        13  CHL1      H7B           -16.4256448495        1.7143637449       12.6532730398  MEMB      13              0.0000000000
      1303        13  CHL1      C8            -15.6872459240       -0.3246080955       12.3254549684  MEMB      13              0.0000000000
      1304        13  CHL1      H8            -16.3232000724       -1.2337292678       12.2492776575  MEMB      13              0.0000000000
      1305        13  CHL1      C14           -15.2827320068        0.1661555021       10.9349307470  MEMB      13              0.0000000000
      1306        13  CHL1      H14           -14.4398546855        0.8862253368       11.0899973535  MEMB      13              0.0000000000
      1307        13  CHL1      C15           -16.2793659039        0.9787089134       10.1124760487  MEMB      13              0.0000000000
      1308        13  CHL1      H15A          -17.2591584178        0.4632761686       10.1316476665  MEMB      13              0.0000000000
      1309        13  CHL1      H15B          -16.4151786944        2.0135053800       10.4823570877  MEMB      13              0.0000000000
      1310        13  CHL1      C16           -15.6399464171        0.9640183082        8.7219193620  MEMB      13              0.0000000000
      1311        13  CHL1      H16A          -16.3830140921        0.5904408950        7.9905417414  MEMB      13              0.0000000000
      1312        13  CHL1      H16B          -15.2799660200        1.9639046766        8.4147132864  MEMB      13              0.0000000000
      1313        13  CHL1      C17           -14.4589270872       -0.0430259883        8.7272804561  MEMB      13              0.0000000000
      1314        13  CHL1      H17           -13.5263396847        0.5395929382        8.9091416886  MEMB      13              0.0000000000
      1315        13  CHL1      C13           -14.7134738779       -0.9005349805        9.9948627951  MEMB      13              0.0000000000
      1316        13  CHL1      C18           -15.8007985347       -1.9646001235        9.6800289172  MEMB      13              0.0000000000
      1317        13  CHL1      H18A          -15.4191638131       -2.7150525775        8.9607167660  MEMB      13              0.0000000000
      1318        13  CHL1      H18B          -16.1049858266       -2.5098810821       10.5934020454  MEMB      13              0.0000000000
      1319        13  CHL1      H18C          -16.7054626489       -1.5027237473        9.2364260911  MEMB      13              0.0000000000
      1320        13  CHL1      C12           -13.4723483187       -1.5032724339       10.6874977148  MEMB      13              0.0000000000
      1321        13  CHL1      H12A          -13.1276587527       -2.4025026311       10.1402248017  MEMB      13              0.0000000000
      1322        13  CHL1      H12B          -12.6589652699       -0.7458270005       10.6649857967  MEMB      13              0.0000000000
      1323        13  CHL1      C11           -13.7309861013       -1.8730664165       12.1699646265  MEMB      13              0.0000000000
      1324        13  CHL1      H11A          -14.4260824945       -2.7426454594       12.1807867321  MEMB      13              0.0000000000
      1325        13  CHL1      H11B          -12.7727638330       -2.1816504523       12.6279980322  MEMB      13              0.0000000000
      1326        13  CHL1      C9            -14.3699548068       -0.7149571480       12.9999901621  MEMB      13              0.0000000000
      1327        13  CHL1      H9            -13.6956017885        0.1670375353       12.8837369045  MEMB      13              0.0000000000
      1328        13  CHL1      C10           -14.4262678282       -0.9238717145       14.5401229481  MEMB      13              0.0000000000
      1329        13  CHL1      C19           -15.0269797613       -2.3214691655       14.7888350947  MEMB      13              0.0000000000
      1330        13  CHL1      H19A          -15.1007511068       -2.5009172016       15.8792656153  MEMB      13              0.0000000000
      1331        13  CHL1      H19B          -16.0455280617       -2.4030852401       14.3516033677  MEMB      13              0.0000000000
      1332        13  CHL1      H19C          -14.3946840469       -3.1202780109       14.3617385889  MEMB      13              0.0000000000
      1333        13  CHL1      C1            -12.9748376468       -0.8336054509       15.1186278231  MEMB      13              0.0000000000
      1334        13  CHL1      H1A           -12.4208884207       -1.7475935633       14.8436797695  MEMB      13              0.0000000000
      1335        13  CHL1      H1B           -12.4627634446        0.0211781682       14.6273715561  MEMB      13              0.0000000000
      1336        13  CHL1      C2            -12.8400312741       -0.6130221839       16.6417469467  MEMB      13              0.0000000000
      1337        13  CHL1      H2A           -11.7684897756       -0.5228691983       16.9188301415  MEMB      13              0.0000000000
      1338        13  CHL1      H2B           -13.2717513240       -1.4791229586       17.1931486463  MEMB      13              0.0000000000
      1339        13  CHL1      C20           -14.3364307605       -0.6922582186        7.3370062355  MEMB      13              0.0000000000
      1340        13  CHL1      H20           -15.3108785195       -1.1815658029        7.1339033967  MEMB      13              0.0000000000
      1341        13  CHL1      C21           -13.2166947157       -1.7482034357        7.3186470421  MEMB      13              0.0000000000
      1342        13  CHL1      H21A          -13.1297597859       -2.2041112227        6.3105897120  MEMB      13              0.0000000000
      1343        13  CHL1      H21B          -13.4256073357       -2.5667568479        8.0334194367  MEMB      13              0.0000000000
      1344        13  CHL1      H21C          -12.2449151053       -1.2805815515        7.5780788043  MEMB      13              0.0000000000
      1345        13  CHL1      C22           -14.1023852296        0.3520351434        6.1995416371  MEMB      13              0.0000000000
      1346        13  CHL1      H22A          -14.7291508417        1.2539853104        6.3584664799  MEMB      13              0.0000000000
      1347        13  CHL1      H22B          -13.0424858118        0.6799452927        6.2660071787  MEMB      13              0.0000000000
      1348        13  CHL1      C23           -14.4006780648       -0.1116847704        4.7532601487  MEMB      13              0.0000000000
      1349        13  CHL1      H23A          -13.8803980861        0.5901625267        4.0607588188  MEMB      13              0.0000000000
      1350        13  CHL1      H23B          -13.9863730486       -1.1263180349        4.5727637882  MEMB      13              0.0000000000
      1351        13  CHL1      C24           -15.8980557625       -0.0600984408        4.3917514795  MEMB      13              0.0000000000
      1352        13  CHL1      H24A          -16.4698079885       -0.7274946777        5.0649738842  MEMB      13              0.0000000000
      1353        13  CHL1      H24B          -16.2799346953        0.9666492313        4.5843500783  MEMB      13              0.0000000000
      1354        13  CHL1      C25           -16.2199787469       -0.4259302283        2.9223198542  MEMB      13              0.0000000000
      1355        13  CHL1      H25           -15.3474554697       -0.9634731665        2.4794230381  MEMB      13              0.0000000000
      1356        13  CHL1      C26           -17.4218520862       -1.3796134513        2.8490645895  MEMB      13              0.0000000000
      1357        13  CHL1      H26A          -18.2496790837       -0.9789586165        3.4606852183  MEMB      13              0.0000000000
      1358        13  CHL1      H26B          -17.7651912906       -1.5000949705        1.7999263883  MEMB      13              0.0000000000
      1359        13  CHL1      H26C          -17.1654037981       -2.3844052807        3.2378357579  MEMB      13              0.0000000000
      1360        13  CHL1      C27           -16.4921008882        0.8405403170        2.0870919214  MEMB      13              0.0000000000
      1361        13  CHL1      H27A          -16.7505892305        0.5748429675        1.0389484956  MEMB      13              0.0000000000
      1362        13  CHL1      H27B          -17.3424363174        1.4106562076        2.5191318197  MEMB      13              0.0000000000
      1363        13  CHL1      H27C          -15.6030625439        1.5036804350        2.0800614377  MEMB      13              0.0000000000
      1364        14  SLPC      N              -5.1866691462       15.6686418741       17.6846347819  MEMB      14              0.0000000000
      1365        14  SLPC      C13            -4.8465545321       17.0881844828       17.9708165992  MEMB      14              0.0000000000
      1366        14  SLPC      H13A           -4.4427007279       17.5864555570       17.0918467410  MEMB      14              0.0000000000
      1367        14  SLPC      H13B           -5.6946521138       17.6346444999       18.3594831975  MEMB      14              0.0000000000
      1368        14  SLPC      H13C           -4.0524021602       17.1682003558       18.7160583415  MEMB      14              0.0000000000
      1369        14  SLPC      C14            -5.5543986085       14.9745861322       18.9540306933  MEMB      14              0.0000000000
      1370        14  SLPC      H14A           -5.7869953404       13.9334646014       18.7080575013  MEMB      14              0.0000000000
      1371        14  SLPC      H14B           -4.7072778595       14.9605741270       19.6313066408  MEMB      14              0.0000000000
      1372        14  SLPC      H14C           -6.4126558105       15.4099705137       19.4335043270  MEMB      14              0.0000000000
      1373        14  SLPC      C15            -3.9648529365       14.9917651383       17.1450515366  MEMB      14              0.0000000000
      1374        14  SLPC      H15A           -4.2140775078       13.9659469755       16.8442941057  MEMB      14              0.0000000000
      1375        14  SLPC      H15B           -3.5192905066       15.5298153844       16.3229774824  MEMB      14              0.0000000000
      1376        14  SLPC      H15C           -3.2325024034       14.8701168096       17.9308332278  MEMB      14              0.0000000000
      1377        14  SLPC      C12            -6.3413467155       15.5169536043       16.7178896487  MEMB      14              0.0000000000
      1378        14  SLPC      H12A           -6.2227962293       16.2342232544       15.9214661027  MEMB      14              0.0000000000
      1379        14  SLPC      H12B           -7.2551199508       15.7461252372       17.2544450689  MEMB      14              0.0000000000
      1380        14  SLPC      C11            -6.5408662405       14.1149322295       16.0815916617  MEMB      14              0.0000000000
      1381        14  SLPC      H11A           -5.6944908226       13.9368177738       15.3731619705  MEMB      14              0.0000000000
      1382        14  SLPC      H11B           -7.4660748217       14.1156939717       15.4630038383  MEMB      14              0.0000000000
      1383        14  SLPC      P              -5.7737346424       11.7980992203       17.0496689538  MEMB      14              0.0000000000
      1384        14  SLPC      O13            -4.4702770893       12.1366734100       17.6666763110  MEMB      14              0.0000000000
      1385        14  SLPC      O14            -6.5067919018       10.6364478989       17.5887015166  MEMB      14              0.0000000000
      1386        14  SLPC      O12            -6.6646301287       13.1041751757       17.0841575627  MEMB      14              0.0000000000
      1387        14  SLPC      O11            -5.5593101806       11.6124188646       15.5067058766  MEMB      14              0.0000000000
      1388        14  SLPC      C1             -4.4719602903       10.8333255436       15.0171920448  MEMB      14              0.0000000000
      1389        14  SLPC      HA             -3.9600902014       10.2312773019       15.8056572140  MEMB      14              0.0000000000
      1390        14  SLPC      HB             -4.9110373110       10.0989648430       14.3135887319  MEMB      14              0.0000000000
      1391        14  SLPC      C2             -3.3956327358       11.6924539236       14.2791527474  MEMB      14              0.0000000000
      1392        14  SLPC      HS             -2.6135188182       11.9373103541       15.0354715106  MEMB      14              0.0000000000
      1393        14  SLPC      O21            -3.9841812196       12.9131194974       13.7799788003  MEMB      14              0.0000000000
      1394        14  SLPC      C21            -3.0911973763       13.8201868525       13.4236087944  MEMB      14              0.0000000000
      1395        14  SLPC      O22            -1.8826778076       13.6664557687       13.4704369966  MEMB      14              0.0000000000
      1396        14  SLPC      C22            -3.7927469480       15.0718062219       12.9100700664  MEMB      14              0.0000000000
      1397        14  SLPC      H2R            -4.8725866738       15.0045720199       13.1525733695  MEMB      14              0.0000000000
      1398        14  SLPC      H2S            -3.3645020407       15.9448844726       13.4387427428  MEMB      14              0.0000000000
      1399        14  SLPC      C3             -2.7587285257       10.8644230959       13.1226570601  MEMB      14              0.0000000000
      1400        14  SLPC      HX             -2.1281922866       10.0880736971       13.6077788065  MEMB      14              0.0000000000
      1401        14  SLPC      HY             -2.0761743719       11.4708245046       12.4888892985  MEMB      14              0.0000000000
      1402        14  SLPC      O31            -3.7854014412       10.2020056861       12.3628140900  MEMB      14              0.0000000000
      1403        14  SLPC      C31            -4.2024628259       10.7584977382       11.2458368939  MEMB      14              0.0000000000
      1404        14  SLPC      O32            -3.6466432871       11.6619608142       10.6444657446  MEMB      14              0.0000000000
      1405        14  SLPC      C32            -5.4652120824        9.9989798243       10.7925588495  MEMB      14              0.0000000000
      1406        14  SLPC      H2X            -5.8361755487        9.3897619486       11.6432962935  MEMB      14              0.0000000000
      1407        14  SLPC      H2Y            -5.1754659131        9.2911822307        9.9986804918  MEMB      14              0.0000000000
      1408        14  SLPC      C23            -3.5914578566       15.1964185203       11.3879753576  MEMB      14              0.0000000000
      1409        14  SLPC      H3R            -3.4291506533       14.1871593687       10.9351276688  MEMB      14              0.0000000000
      1410        14  SLPC      H3S            -2.6790114317       15.7958090433       11.1730809014  MEMB      14              0.0000000000
      1411        14  SLPC      C24            -4.7876455993       15.7946416832       10.6449988399  MEMB      14              0.0000000000
      1412        14  SLPC      H4R            -4.9063931842       16.8648290677       10.9244130201  MEMB      14              0.0000000000
      1413        14  SLPC      H4S            -5.7193283917       15.2486413067       10.9169908299  MEMB      14              0.0000000000
      1414        14  SLPC      C25            -4.5438134271       15.6542676958        9.1396100110  MEMB      14              0.0000000000
      1415        14  SLPC      H5R            -4.4844595302       14.5744978588        8.8727107099  MEMB      14              0.0000000000
      1416        14  SLPC      H5S            -3.5441227412       16.0992466559        8.9233247277  MEMB      14              0.0000000000
      1417        14  SLPC      C26            -5.5844079323       16.3443352485        8.2575727295  MEMB      14              0.0000000000
      1418        14  SLPC      H6R            -5.7312695031       17.3768712914        8.6494058972  MEMB      14              0.0000000000
      1419        14  SLPC      H6S            -6.5614376713       15.8174620578        8.3073932201  MEMB      14              0.0000000000
      1420        14  SLPC      C27            -5.0888135178       16.4461816414        6.8087059169  MEMB      14              0.0000000000
      1421        14  SLPC      H7R            -4.0071766278       16.6747202917        6.8657863349  MEMB      14              0.0000000000
      1422        14  SLPC      H7S            -5.5733276508       17.3140521596        6.3180109531  MEMB      14              0.0000000000
      1423        14  SLPC      C28            -5.3120532290       15.1727063616        5.9694567076  MEMB      14              0.0000000000
      1424        14  SLPC      H8R            -6.3062036992       14.7588500269        6.2408507069  MEMB      14              0.0000000000
      1425        14  SLPC      H8S            -4.5613347311       14.4167237638        6.2901714601  MEMB      14              0.0000000000
      1426        14  SLPC      C29            -5.1925184769       15.4059147892        4.4789484304  MEMB      14              0.0000000000
      1427        14  SLPC      H9R            -4.2147306575       15.7845546483        4.1545272208  MEMB      14              0.0000000000
      1428        14  SLPC      C210           -6.1351905260       15.2072947030        3.5370026067  MEMB      14              0.0000000000
      1429        14  SLPC      H10R           -5.8884423349       15.4236112849        2.4841330515  MEMB      14              0.0000000000
      1430        14  SLPC      C211           -7.5392839661       14.7055972129        3.7564606608  MEMB      14              0.0000000000
      1431        14  SLPC      H11R           -8.2238729911       15.4939326468        3.3751656169  MEMB      14              0.0000000000
      1432        14  SLPC      H11S           -7.7873992150       14.6208807543        4.8351579929  MEMB      14              0.0000000000
      1433        14  SLPC      C212           -7.8608625786       13.3910980442        3.0887327371  MEMB      14              0.0000000000
      1434        14  SLPC      H12R           -7.6682815435       12.4891631671        3.6914897469  MEMB      14              0.0000000000
      1435        14  SLPC      C213           -8.3864842012       13.2617176719        1.8577592006  MEMB      14              0.0000000000
      1436        14  SLPC      H13R           -8.6686774419       12.2645233266        1.4861184630  MEMB      14              0.0000000000
      1437        14  SLPC      C214           -8.7306534360       14.4171074276        0.9571759193  MEMB      14              0.0000000000
      1438        14  SLPC      H14R           -8.1443016261       15.3264811048        1.2104824960  MEMB      14              0.0000000000
      1439        14  SLPC      H14S           -9.7843378653       14.6777520485        1.1564396909  MEMB      14              0.0000000000
      1440        14  SLPC      C215           -8.5752842199       14.1429615377       -0.5541135323  MEMB      14              0.0000000000
      1441        14  SLPC      H15R           -9.1155624272       14.9368197642       -1.1196907934  MEMB      14              0.0000000000
      1442        14  SLPC      H15S           -9.0351944086       13.1649536261       -0.8172814799  MEMB      14              0.0000000000
      1443        14  SLPC      C216           -7.1222305667       14.1938423371       -1.0256605844  MEMB      14              0.0000000000
      1444        14  SLPC      H16R           -7.0223099529       13.7384764911       -2.0357205381  MEMB      14              0.0000000000
      1445        14  SLPC      H16S           -6.5235171500       13.5860942078       -0.3138640090  MEMB      14              0.0000000000
      1446        14  SLPC      C217           -6.5820277533       15.6305037454       -1.0402794722  MEMB      14              0.0000000000
      1447        14  SLPC      H17R           -5.5984458580       15.6099688131       -0.5205256017  MEMB      14              0.0000000000
      1448        14  SLPC      H17S           -7.2516509630       16.2885459880       -0.4439042395  MEMB      14              0.0000000000
      1449        14  SLPC      C218           -6.4106952722       16.2534270994       -2.4280910919  MEMB      14              0.0000000000
      1450        14  SLPC      H18R           -5.4680279729       15.9007190697       -2.8877778953  MEMB      14              0.0000000000
      1451        14  SLPC      H18S           -6.3410508008       17.3603629246       -2.3585029601  MEMB      14              0.0000000000
      1452        14  SLPC      H18T           -7.2611973386       15.9934899214       -3.0924698968  MEMB      14              0.0000000000
      1453        14  SLPC      C33            -6.6124218823       10.9079741052       10.2976575307  MEMB      14              0.0000000000
      1454        14  SLPC      H3X            -6.8717535808       11.6498641740       11.0869272125  MEMB      14              0.0000000000
      1455        14  SLPC      H3Y            -7.5125568179       10.2718930399       10.1303794086  MEMB      14              0.0000000000
      1456        14  SLPC      C34            -6.3066921420       11.6516518672        8.9914360345  MEMB      14              0.0000000000
      1457        14  SLPC      H4X            -5.5054635354       12.4017040817        9.1821422550  MEMB      14              0.0000000000
      1458        14  SLPC      H4Y            -7.2102814940       12.2214386411        8.6784188002  MEMB      14              0.0000000000
      1459        14  SLPC      C35            -5.8635340574       10.7575198196        7.8248331845  MEMB      14              0.0000000000
      1460        14  SLPC      H5X            -6.6672396175       10.0348361979        7.5652044335  MEMB      14              0.0000000000
      1461        14  SLPC      H5Y            -4.9515314362       10.1810807300        8.0998532473  MEMB      14              0.0000000000
      1462        14  SLPC      C36            -5.5058173888       11.6214062911        6.6161201772  MEMB      14              0.0000000000
      1463        14  SLPC      H6X            -4.6908223416       12.3099507723        6.9354588960  MEMB      14              0.0000000000
      1464        14  SLPC      H6Y            -6.3793505172       12.2490310424        6.3289962243  MEMB      14              0.0000000000
      1465        14  SLPC      C37            -5.0380214299       10.8225033197        5.3984990893  MEMB      14              0.0000000000
      1466        14  SLPC      H7X            -5.9134402894       10.2863254385        4.9666949057  MEMB      14              0.0000000000
      1467        14  SLPC      H7Y            -4.2876179374       10.0591778120        5.7017130128  MEMB      14              0.0000000000
      1468        14  SLPC      C38            -4.4197390278       11.7407001817        4.3370295357  MEMB      14              0.0000000000
      1469        14  SLPC      H8X            -5.0427603012       12.6547178958        4.2444920331  MEMB      14              0.0000000000
      1470        14  SLPC      H8Y            -4.4548193846       11.2145623782        3.3573141223  MEMB      14              0.0000000000
      1471        14  SLPC      C39            -2.9624866250       12.1227026285        4.6607301755  MEMB      14              0.0000000000
      1472        14  SLPC      H9X            -2.3545193231       11.1937634883        4.5683492011  MEMB      14              0.0000000000
      1473        14  SLPC      H9Y            -2.8983739236       12.4691869566        5.7132581617  MEMB      14              0.0000000000
      1474        14  SLPC      C310           -2.3501607000       13.2111239617        3.7556613685  MEMB      14              0.0000000000
      1475        14  SLPC      H10X           -1.2428252980       13.1017406716        3.7665705092  MEMB      14              0.0000000000
      1476        14  SLPC      H10Y           -2.5938480833       14.2201551905        4.1528950274  MEMB      14              0.0000000000
      1477        14  SLPC      C311           -2.8511764000       13.0750228990        2.3225584734  MEMB      14              0.0000000000
      1478        14  SLPC      H11X           -3.9187764662       13.3920510731        2.2683489885  MEMB      14              0.0000000000
      1479        14  SLPC      H11Y           -2.7879286563       11.9849961451        2.1023341373  MEMB      14              0.0000000000
      1480        14  SLPC      C312           -2.0706550789       13.7984588688        1.2246151893  MEMB      14              0.0000000000
      1481        14  SLPC      H12X           -1.0181921747       13.4348496313        1.2278793165  MEMB      14              0.0000000000
      1482        14  SLPC      H12Y           -2.0533662282       14.8936612439        1.4225944907  MEMB      14              0.0000000000
      1483        14  SLPC      C313           -2.7053048991       13.5352379087       -0.1564586419  MEMB      14              0.0000000000
      1484        14  SLPC      H13X           -2.0414200120       13.9581965952       -0.9391170643  MEMB      14              0.0000000000
      1485        14  SLPC      H13Y           -3.6728948326       14.0800073722       -0.2307425604  MEMB      14              0.0000000000
      1486        14  SLPC      C314           -2.9341183083       12.0437795009       -0.4919841171  MEMB      14              0.0000000000
      1487        14  SLPC      H14X           -2.1303139490       11.4286319583       -0.0349338186  MEMB      14              0.0000000000
      1488        14  SLPC      H14Y           -2.8511426727       11.9307615954       -1.5979352662  MEMB      14              0.0000000000
      1489        14  SLPC      C315           -4.3223973684       11.5024453744       -0.0957309695  MEMB      14              0.0000000000
      1490        14  SLPC      H15X           -5.0752741046       12.1610466837       -0.5752410714  MEMB      14              0.0000000000
      1491        14  SLPC      H15Y           -4.4878238754       11.5524794298        0.9998046618  MEMB      14              0.0000000000
      1492        14  SLPC      C316           -4.5669014704       10.0527533225       -0.5452811062  MEMB      14              0.0000000000
      1493        14  SLPC      H16X           -3.7772555404        9.4009159776       -0.1087150046  MEMB      14              0.0000000000
      1494        14  SLPC      H16Y           -4.4392096525       10.0107062771       -1.6464297959  MEMB      14              0.0000000000
      1495        14  SLPC      C317           -5.9532347294        9.4840767916       -0.1628372029  MEMB      14              0.0000000000
      1496        14  SLPC      H17X           -5.8844592473        9.0609820576        0.8655484945  MEMB      14              0.0000000000
      1497        14  SLPC      H17Y           -6.1790249950        8.6338089982       -0.8471321663  MEMB      14              0.0000000000
      1498        14  SLPC      C318           -7.1310444108       10.4713515761       -0.1861947689  MEMB      14              0.0000000000
      1499        14  SLPC      H18X           -8.0709712655        9.9697578330        0.1288566278  MEMB      14              0.0000000000
      1500        14  SLPC      H18Y           -7.2851243773       10.9032659755       -1.1959865844  MEMB      14              0.0000000000
      1501        14  SLPC      H18Z           -6.9375151128       11.3102477592        0.5134226432  MEMB      14              0.0000000000
      1502        15  SAPC      N               9.5093425235      -12.2354173655       19.0861307822  MEMB      15              0.0000000000
      1503        15  SAPC      C12            10.4121555084      -13.3301062161       19.6433166802  MEMB      15              0.0000000000
      1504        15  SAPC      H12A           10.5126397274      -14.1029337448       18.9020900828  MEMB      15              0.0000000000
      1505        15  SAPC      H12B            9.9452349308      -13.7723342023       20.5211914718  MEMB      15              0.0000000000
      1506        15  SAPC      C13            10.0684535344      -11.7570903955       17.7755231367  MEMB      15              0.0000000000
      1507        15  SAPC      H13A           11.0620900217      -11.3545341269       17.9201699259  MEMB      15              0.0000000000
      1508        15  SAPC      H13B           10.0559925028      -12.5689486955       17.0426884586  MEMB      15              0.0000000000
      1509        15  SAPC      H13C            9.4321099897      -10.9971674355       17.3362590125  MEMB      15              0.0000000000
      1510        15  SAPC      C14             8.1269174035      -12.7640156442       18.8416443473  MEMB      15              0.0000000000
      1511        15  SAPC      H14A            7.6979535624      -13.2508281560       19.7146332878  MEMB      15              0.0000000000
      1512        15  SAPC      H14B            7.4416540683      -11.9671383309       18.5634508877  MEMB      15              0.0000000000
      1513        15  SAPC      H14C            8.1189071907      -13.4959252736       18.0282386444  MEMB      15              0.0000000000
      1514        15  SAPC      C15             9.4719532126      -11.1151201232       20.0829474473  MEMB      15              0.0000000000
      1515        15  SAPC      H15A            9.0853921367      -10.1880438845       19.6866314534  MEMB      15              0.0000000000
      1516        15  SAPC      H15B            8.9165093283      -11.4067805814       20.9718234438  MEMB      15              0.0000000000
      1517        15  SAPC      H15C           10.4949320590      -10.9645460235       20.4450234717  MEMB      15              0.0000000000
      1518        15  SAPC      C11            11.8216193288      -12.8930704348       20.1036151546  MEMB      15              0.0000000000
      1519        15  SAPC      H11A           12.2646468727      -12.1879698159       19.3578124128  MEMB      15              0.0000000000
      1520        15  SAPC      H11B           12.4840049999      -13.7904114593       20.1725331043  MEMB      15              0.0000000000
      1521        15  SAPC      P              12.9828205390      -11.7202417805       22.1027401227  MEMB      15              0.0000000000
      1522        15  SAPC      O13            12.5860581754      -10.8906133778       23.2726787875  MEMB      15              0.0000000000
      1523        15  SAPC      O14            13.9536046571      -12.7971423995       22.3668683633  MEMB      15              0.0000000000
      1524        15  SAPC      O12            11.6917408844      -12.2912442911       21.3891029960  MEMB      15              0.0000000000
      1525        15  SAPC      O11            13.5858514979      -10.7998502241       20.9630134342  MEMB      15              0.0000000000
      1526        15  SAPC      C1             14.8093407040      -10.1196016962       21.2642030352  MEMB      15              0.0000000000
      1527        15  SAPC      HA             14.5669468277       -9.2857935431       21.9559442636  MEMB      15              0.0000000000
      1528        15  SAPC      HB             15.5497498342      -10.7853563388       21.7702054202  MEMB      15              0.0000000000
      1529        15  SAPC      C2             15.5425464556       -9.5041809062       20.0225286203  MEMB      15              0.0000000000
      1530        15  SAPC      HS             16.1171003239       -8.6229551498       20.3660038056  MEMB      15              0.0000000000
      1531        15  SAPC      O21            14.6834399042       -9.1366374681       18.9353589049  MEMB      15              0.0000000000
      1532        15  SAPC      C21            13.5491433611       -8.4777784484       19.1227792627  MEMB      15              0.0000000000
      1533        15  SAPC      O22            13.1510041614       -7.9877409713       20.1664282333  MEMB      15              0.0000000000
      1534        15  SAPC      C22            12.7450951082       -8.4537229196       17.8209716818  MEMB      15              0.0000000000
      1535        15  SAPC      H2R            11.7018193379       -8.7406302319       18.0663768438  MEMB      15              0.0000000000
      1536        15  SAPC      H2S            12.7423232832       -7.4044335523       17.4618083563  MEMB      15              0.0000000000
      1537        15  SAPC      C3             16.6371629160      -10.4514552021       19.4478112146  MEMB      15              0.0000000000
      1538        15  SAPC      HX             17.2615114891      -10.8092880814       20.2911437875  MEMB      15              0.0000000000
      1539        15  SAPC      HY             17.3201233807       -9.8823314968       18.7750088420  MEMB      15              0.0000000000
      1540        15  SAPC      O31            16.0489629579      -11.5945687489       18.8200945245  MEMB      15              0.0000000000
      1541        15  SAPC      C31            15.9561774217      -11.5583501813       17.5069623464  MEMB      15              0.0000000000
      1542        15  SAPC      O32            16.4553519591      -10.7333702923       16.7636929017  MEMB      15              0.0000000000
      1543        15  SAPC      C32            15.0446299352      -12.7013928811       17.1155902542  MEMB      15              0.0000000000
      1544        15  SAPC      H2X            14.2286547042      -12.7208915869       17.8704623222  MEMB      15              0.0000000000
      1545        15  SAPC      H2Y            15.6339040720      -13.6338201703       17.2086252821  MEMB      15              0.0000000000
      1546        15  SAPC      C23            13.3266698054       -9.4023302851       16.7471660645  MEMB      15              0.0000000000
      1547        15  SAPC      H3R            13.2678220637      -10.4416149693       17.1373351495  MEMB      15              0.0000000000
      1548        15  SAPC      H3S            14.4075834366       -9.1727051145       16.5738246510  MEMB      15              0.0000000000
      1549        15  SAPC      C24            12.5953609974       -9.3387216112       15.3987865395  MEMB      15              0.0000000000
      1550        15  SAPC      H4R            11.4999102949       -9.4188021191       15.5784281011  MEMB      15              0.0000000000
      1551        15  SAPC      H4S            12.8843589836      -10.2148630170       14.7878695638  MEMB      15              0.0000000000
      1552        15  SAPC      C25            12.9430473131       -8.0569469872       14.6903883467  MEMB      15              0.0000000000
      1553        15  SAPC      H5R            12.3874519688       -7.1880061265       15.0801734450  MEMB      15              0.0000000000
      1554        15  SAPC      C26            13.8794567110       -7.8352917414       13.7399838781  MEMB      15              0.0000000000
      1555        15  SAPC      H6R            13.9626173160       -6.8045282880       13.3685819780  MEMB      15              0.0000000000
      1556        15  SAPC      C27            14.8877824757       -8.7425598334       13.0584848507  MEMB      15              0.0000000000
      1557        15  SAPC      H7R            15.8045799637       -8.7452181774       13.6911645192  MEMB      15              0.0000000000
      1558        15  SAPC      H7S            15.1938253608       -8.2140282648       12.1337220053  MEMB      15              0.0000000000
      1559        15  SAPC      C28            14.5986255359      -10.1769867984       12.6882641694  MEMB      15              0.0000000000
      1560        15  SAPC      H8R            14.6042631524      -10.8613988240       13.5445562442  MEMB      15              0.0000000000
      1561        15  SAPC      C29            14.4337805948      -10.7029622815       11.4570504105  MEMB      15              0.0000000000
      1562        15  SAPC      H9R            14.2796378197      -11.7932435539       11.3897569955  MEMB      15              0.0000000000
      1563        15  SAPC      C210           14.4976914331       -9.9553126551       10.1404953383  MEMB      15              0.0000000000
      1564        15  SAPC      H10R           15.5515744952       -9.9356359541        9.7823792576  MEMB      15              0.0000000000
      1565        15  SAPC      H10S           14.1915166408       -8.9000105764       10.3017617440  MEMB      15              0.0000000000
      1566        15  SAPC      C211           13.5963656139      -10.5236090248        9.0717301501  MEMB      15              0.0000000000
      1567        15  SAPC      H11R           12.8350954572      -11.2266646179        9.4478039012  MEMB      15              0.0000000000
      1568        15  SAPC      C212           13.6171497462      -10.2709906137        7.7440220875  MEMB      15              0.0000000000
      1569        15  SAPC      H12R           12.8616301735      -10.7754745013        7.1266421630  MEMB      15              0.0000000000
      1570        15  SAPC      C213           14.5309578314       -9.3660883096        6.9427025635  MEMB      15              0.0000000000
      1571        15  SAPC      H13R           15.1025271507       -9.9797720549        6.2158552038  MEMB      15              0.0000000000
      1572        15  SAPC      H13S           15.2801140917       -8.8799692753        7.6064003225  MEMB      15              0.0000000000
      1573        15  SAPC      C214           13.7722221102       -8.3118977278        6.1784830255  MEMB      15              0.0000000000
      1574        15  SAPC      H14R           12.9748945239       -7.8428267155        6.7702055676  MEMB      15              0.0000000000
      1575        15  SAPC      C215           13.9583570701       -7.8884437750        4.9072245092  MEMB      15              0.0000000000
      1576        15  SAPC      H15R           13.2855091709       -7.1112487692        4.5167957572  MEMB      15              0.0000000000
      1577        15  SAPC      C216           14.9712969665       -8.3457459318        3.8840078950  MEMB      15              0.0000000000
      1578        15  SAPC      H16R           14.4151788850       -8.6036229968        2.9612433180  MEMB      15              0.0000000000
      1579        15  SAPC      H16S           15.4956139114       -9.2706607292        4.2146604375  MEMB      15              0.0000000000
      1580        15  SAPC      C217           16.0440309393       -7.3104235791        3.4653166420  MEMB      15              0.0000000000
      1581        15  SAPC      H17R           16.9932922673       -7.5835977429        3.9784960079  MEMB      15              0.0000000000
      1582        15  SAPC      H17S           15.7522386839       -6.2968297531        3.8082500493  MEMB      15              0.0000000000
      1583        15  SAPC      C218           16.3192645893       -7.1986277035        1.9469476540  MEMB      15              0.0000000000
      1584        15  SAPC      H18R           15.6156128203       -6.4520430247        1.5214473025  MEMB      15              0.0000000000
      1585        15  SAPC      H18S           16.1279820775       -8.1608440607        1.4352632069  MEMB      15              0.0000000000
      1586        15  SAPC      C219           17.7611483545       -6.7336061985        1.6694212268  MEMB      15              0.0000000000
      1587        15  SAPC      H19R           18.4601100305       -7.3972702037        2.2301373055  MEMB      15              0.0000000000
      1588        15  SAPC      H19S           17.8511733419       -5.7104463878        2.0962946177  MEMB      15              0.0000000000
      1589        15  SAPC      C220           18.2150755765       -6.6755160027        0.2061490787  MEMB      15              0.0000000000
      1590        15  SAPC      H20R           19.2388062196       -6.2414170737        0.1463866128  MEMB      15              0.0000000000
      1591        15  SAPC      H20S           17.5315818376       -6.0396274957       -0.3955295474  MEMB      15              0.0000000000
      1592        15  SAPC      H20T           18.2486176644       -7.6907277226       -0.2432634120  MEMB      15              0.0000000000
      1593        15  SAPC      C33            14.4415132026      -12.5382683071       15.7082775688  MEMB      15              0.0000000000
      1594        15  SAPC      H3X            15.0760032479      -13.0762341066       14.9722214981  MEMB      15              0.0000000000
      1595        15  SAPC      H3Y            14.4569777426      -11.4714655174       15.4087709289  MEMB      15              0.0000000000
      1596        15  SAPC      C34            12.9890454570      -13.0226153864       15.7247341484  MEMB      15              0.0000000000
      1597        15  SAPC      H4X            12.3588870074      -12.2719299988       16.2424545139  MEMB      15              0.0000000000
      1598        15  SAPC      H4Y            12.9556541699      -13.9425897139       16.3491196786  MEMB      15              0.0000000000
      1599        15  SAPC      C35            12.3892890352      -13.3592340331       14.3618892747  MEMB      15              0.0000000000
      1600        15  SAPC      H5X            11.8549981101      -14.3282752615       14.4925212698  MEMB      15              0.0000000000
      1601        15  SAPC      H5Y            13.1750641556      -13.5023845282       13.5883791777  MEMB      15              0.0000000000
      1602        15  SAPC      C36            11.3922968532      -12.3234483443       13.8359490159  MEMB      15              0.0000000000
      1603        15  SAPC      H6X            11.9354246302      -11.6024784891       13.1810587617  MEMB      15              0.0000000000
      1604        15  SAPC      H6Y            10.9543824886      -11.7376867287       14.6735078140  MEMB      15              0.0000000000
      1605        15  SAPC      C37            10.2329186366      -12.9566292904       13.0549314468  MEMB      15              0.0000000000
      1606        15  SAPC      H7X             9.8776359575      -12.2180579824       12.3137907638  MEMB      15              0.0000000000
      1607        15  SAPC      H7Y             9.3745021292      -13.1507804363       13.7310547485  MEMB      15              0.0000000000
      1608        15  SAPC      C38            10.5858666912      -14.2483221257       12.3050610958  MEMB      15              0.0000000000
      1609        15  SAPC      H8X            10.5046289998      -15.1072850643       13.0096200117  MEMB      15              0.0000000000
      1610        15  SAPC      H8Y            11.6289286852      -14.1998845190       11.9213562863  MEMB      15              0.0000000000
      1611        15  SAPC      C39             9.6498518866      -14.4702595496       11.1218663974  MEMB      15              0.0000000000
      1612        15  SAPC      H9X             8.6371162238      -14.1536296907       11.4563168929  MEMB      15              0.0000000000
      1613        15  SAPC      H9Y             9.6020778302      -15.5497846779       10.8544075496  MEMB      15              0.0000000000
      1614        15  SAPC      C310           10.0829056232      -13.6446936668        9.9089044658  MEMB      15              0.0000000000
      1615        15  SAPC      H10X           10.5773526929      -12.7082964462       10.2487840779  MEMB      15              0.0000000000
      1616        15  SAPC      H10Y            9.1861210247      -13.3370459099        9.3323960885  MEMB      15              0.0000000000
      1617        15  SAPC      C311           11.0399561882      -14.4045223389        8.9810135611  MEMB      15              0.0000000000
      1618        15  SAPC      H11X           10.5669657062      -15.3588155862        8.6607651756  MEMB      15              0.0000000000
      1619        15  SAPC      H11Y           11.9710221837      -14.6345639556        9.5389358795  MEMB      15              0.0000000000
      1620        15  SAPC      C312           11.3977457703      -13.5608403294        7.7565411186  MEMB      15              0.0000000000
      1621        15  SAPC      H12X           11.7806377147      -12.5861859627        8.1265180912  MEMB      15              0.0000000000
      1622        15  SAPC      H12Y           10.4560146326      -13.3704190799        7.1922125577  MEMB      15              0.0000000000
      1623        15  SAPC      C313           12.4472017399      -14.1709908000        6.8127230993  MEMB      15              0.0000000000
      1624        15  SAPC      H13X           11.9970790637      -15.0585839457        6.3164858973  MEMB      15              0.0000000000
      1625        15  SAPC      H13Y           13.3278563776      -14.5216275981        7.3984115592  MEMB      15              0.0000000000
      1626        15  SAPC      C314           12.9301358514      -13.1862323443        5.7251110297  MEMB      15              0.0000000000
      1627        15  SAPC      H14X           13.4265628713      -13.7615201374        4.9135533145  MEMB      15              0.0000000000
      1628        15  SAPC      H14Y           13.6940768801      -12.5049428599        6.1565153964  MEMB      15              0.0000000000
      1629        15  SAPC      C315           11.7856613674      -12.3447046664        5.1331855926  MEMB      15              0.0000000000
      1630        15  SAPC      H15X           11.3142175804      -11.7438452538        5.9435047617  MEMB      15              0.0000000000
      1631        15  SAPC      H15Y           11.0262867036      -13.0578670495        4.7582451036  MEMB      15              0.0000000000
      1632        15  SAPC      C316           12.1755791920      -11.3373523584        4.0365883088  MEMB      15              0.0000000000
      1633        15  SAPC      H16X           13.0221613856      -10.7160299489        4.4035807839  MEMB      15              0.0000000000
      1634        15  SAPC      H16Y           11.3064323515      -10.6587104288        3.8668609908  MEMB      15              0.0000000000
      1635        15  SAPC      C317           12.5254381120      -11.9595844516        2.6796645584  MEMB      15              0.0000000000
      1636        15  SAPC      H17X           11.6904965039      -12.6108153969        2.3580432035  MEMB      15              0.0000000000
      1637        15  SAPC      H17Y           13.3997858920      -12.6340097188        2.7887117458  MEMB      15              0.0000000000
      1638        15  SAPC      C318           12.7940386009      -10.9195519589        1.5823146708  MEMB      15              0.0000000000
      1639        15  SAPC      H18X           13.4078672090      -11.3490190217        0.7642714196  MEMB      15              0.0000000000
      1640        15  SAPC      H18Y           13.3607919499      -10.0655665529        1.9944695406  MEMB      15              0.0000000000
      1641        15  SAPC      H18Z           11.8480212555      -10.5498680273        1.1320400122  MEMB      15              0.0000000000
      1642        16  SAPC      N              16.1706890858       -5.7820224050       22.3454545446  MEMB      16              0.0000000000
      1643        16  SAPC      C12            16.6976026285       -4.6760068895       21.4456065766  MEMB      16              0.0000000000
      1644        16  SAPC      H12A           17.1626351903       -5.1114621597       20.5574475908  MEMB      16              0.0000000000
      1645        16  SAPC      H12B           17.4415065233       -4.0647041794       21.9234421109  MEMB      16              0.0000000000
      1646        16  SAPC      C13            15.2541031523       -5.2237236966       23.3948706516  MEMB      16              0.0000000000
      1647        16  SAPC      H13A           14.4863443131       -4.6064295332       22.9106077574  MEMB      16              0.0000000000
      1648        16  SAPC      H13B           14.7532734328       -6.0291702653       23.9207056753  MEMB      16              0.0000000000
      1649        16  SAPC      H13C           15.7452601221       -4.5717051963       24.0931639595  MEMB      16              0.0000000000
      1650        16  SAPC      C14            15.2677091649       -6.6017661753       21.4954140044  MEMB      16              0.0000000000
      1651        16  SAPC      H14A           14.7924395622       -7.4316985031       21.9885482810  MEMB      16              0.0000000000
      1652        16  SAPC      H14B           14.4444382599       -5.9604208177       21.1336505582  MEMB      16              0.0000000000
      1653        16  SAPC      H14C           15.7184371480       -6.8737641247       20.5453826537  MEMB      16              0.0000000000
      1654        16  SAPC      C15            17.2772225047       -6.5977836099       22.9458546098  MEMB      16              0.0000000000
      1655        16  SAPC      H15A           16.8826555859       -7.3834518941       23.5887156736  MEMB      16              0.0000000000
      1656        16  SAPC      H15B           17.8636843014       -7.0788832557       22.1700976457  MEMB      16              0.0000000000
      1657        16  SAPC      H15C           17.9397309340       -5.9749968964       23.5419448787  MEMB      16              0.0000000000
      1658        16  SAPC      C11            15.6435174960       -3.7359643511       20.8338881444  MEMB      16              0.0000000000
      1659        16  SAPC      H11A           16.1832522011       -2.9065028969       20.3065782466  MEMB      16              0.0000000000
      1660        16  SAPC      H11B           15.0699458688       -3.2429224395       21.6246822039  MEMB      16              0.0000000000
      1661        16  SAPC      P              15.2854650410       -4.6531249828       18.4927190520  MEMB      16              0.0000000000
      1662        16  SAPC      O13            16.7150886496       -4.9934863151       18.6412473466  MEMB      16              0.0000000000
      1663        16  SAPC      O14            14.4054473394       -5.6073987639       17.8045468102  MEMB      16              0.0000000000
      1664        16  SAPC      O12            14.7456279163       -4.4580796384       19.9740471935  MEMB      16              0.0000000000
      1665        16  SAPC      O11            15.0701636780       -3.1864382671       17.9549125700  MEMB      16              0.0000000000
      1666        16  SAPC      C1             13.9495146830       -2.4761957399       18.5052995913  MEMB      16              0.0000000000
      1667        16  SAPC      HA             13.1306920096       -3.1497303521       18.8763423596  MEMB      16              0.0000000000
      1668        16  SAPC      HB             14.2772999956       -1.8385747538       19.3481414050  MEMB      16              0.0000000000
      1669        16  SAPC      C2             13.2910644258       -1.6326647206       17.4279425261  MEMB      16              0.0000000000
      1670        16  SAPC      HS             12.4329479451       -1.1170462591       17.9114253107  MEMB      16              0.0000000000
      1671        16  SAPC      O21            12.9113564962       -2.5599242737       16.4238813637  MEMB      16              0.0000000000
      1672        16  SAPC      C21            11.6810213365       -2.9511098734       16.3640236685  MEMB      16              0.0000000000
      1673        16  SAPC      O22            10.7784137905       -2.5918758443       17.1007219679  MEMB      16              0.0000000000
      1674        16  SAPC      C22            11.6058319773       -3.8849735995       15.1508785662  MEMB      16              0.0000000000
      1675        16  SAPC      H2R            12.1116435745       -3.3311503267       14.3308327985  MEMB      16              0.0000000000
      1676        16  SAPC      H2S            12.2159675467       -4.7806668276       15.3950334851  MEMB      16              0.0000000000
      1677        16  SAPC      C3             14.2739714499       -0.5634952758       16.8585192853  MEMB      16              0.0000000000
      1678        16  SAPC      HX             14.9861076771       -0.3529234792       17.6912940493  MEMB      16              0.0000000000
      1679        16  SAPC      HY             13.7491222962        0.3799711762       16.6498634914  MEMB      16              0.0000000000
      1680        16  SAPC      O31            15.0472988202       -0.9496424657       15.7160526750  MEMB      16              0.0000000000
      1681        16  SAPC      C31            14.4901474722       -1.4326538672       14.6046707756  MEMB      16              0.0000000000
      1682        16  SAPC      O32            13.3450478046       -1.3005414093       14.2293974631  MEMB      16              0.0000000000
      1683        16  SAPC      C32            15.6301874713       -2.0685150125       13.8255556790  MEMB      16              0.0000000000
      1684        16  SAPC      H2X            16.3708514643       -2.2940167659       14.5992103817  MEMB      16              0.0000000000
      1685        16  SAPC      H2Y            15.9627020951       -1.2647135687       13.1458140486  MEMB      16              0.0000000000
      1686        16  SAPC      C23            10.2153281165       -4.3093413980       14.6188979870  MEMB      16              0.0000000000
      1687        16  SAPC      H3R             9.4559546357       -3.5156428062       14.8105608971  MEMB      16              0.0000000000
      1688        16  SAPC      H3S             9.8873659347       -5.2187827229       15.1709941326  MEMB      16              0.0000000000
      1689        16  SAPC      C24            10.2626609130       -4.5777910565       13.0911957936  MEMB      16              0.0000000000
      1690        16  SAPC      H4R            10.1183703671       -3.5986711177       12.5857467650  MEMB      16              0.0000000000
      1691        16  SAPC      H4S             9.3848630033       -5.2038893316       12.8220850213  MEMB      16              0.0000000000
      1692        16  SAPC      C25            11.5359507238       -5.2413497734       12.6130285272  MEMB      16              0.0000000000
      1693        16  SAPC      H5R            11.8203887711       -6.1297961769       13.1956783720  MEMB      16              0.0000000000
      1694        16  SAPC      C26            12.3323253133       -4.8474354568       11.5965319940  MEMB      16              0.0000000000
      1695        16  SAPC      H6R            13.2179085806       -5.4602482351       11.3540982168  MEMB      16              0.0000000000
      1696        16  SAPC      C27            12.1326987845       -3.6521854013       10.6929576442  MEMB      16              0.0000000000
      1697        16  SAPC      H7R            11.1021247467       -3.2570840704       10.7937414381  MEMB      16              0.0000000000
      1698        16  SAPC      H7S            12.2100315865       -4.0100377858        9.6464363580  MEMB      16              0.0000000000
      1699        16  SAPC      C28            13.1048434683       -2.5213728694       10.9376330025  MEMB      16              0.0000000000
      1700        16  SAPC      H8R            13.3044649229       -2.3116552506       12.0004106148  MEMB      16              0.0000000000
      1701        16  SAPC      C29            13.5860333970       -1.6462357256       10.0329029699  MEMB      16              0.0000000000
      1702        16  SAPC      H9R            14.2339966104       -0.8259287430       10.3798100035  MEMB      16              0.0000000000
      1703        16  SAPC      C210           13.2171235146       -1.6333873143        8.5760466709  MEMB      16              0.0000000000
      1704        16  SAPC      H10R           12.2045815820       -1.1805185408        8.5896722593  MEMB      16              0.0000000000
      1705        16  SAPC      H10S           13.0665315815       -2.6727948065        8.2207359599  MEMB      16              0.0000000000
      1706        16  SAPC      C211           14.0455309803       -0.9149026075        7.5278572803  MEMB      16              0.0000000000
      1707        16  SAPC      H11R           15.0415870871       -0.5352462399        7.8094724046  MEMB      16              0.0000000000
      1708        16  SAPC      C212           13.5567035433       -0.7154502503        6.2809364878  MEMB      16              0.0000000000
      1709        16  SAPC      H12R           14.1872103382       -0.3012282581        5.4771083969  MEMB      16              0.0000000000
      1710        16  SAPC      C213           12.1764641115       -1.2074245221        5.9242216851  MEMB      16              0.0000000000
      1711        16  SAPC      H13R           11.5386096742       -0.8466814035        6.7490981621  MEMB      16              0.0000000000
      1712        16  SAPC      H13S           12.2051969932       -2.3148534341        5.9677631646  MEMB      16              0.0000000000
      1713        16  SAPC      C214           11.3594218089       -0.7899493496        4.7358853991  MEMB      16              0.0000000000
      1714        16  SAPC      H14R           10.9422251143        0.2135393444        4.8123832227  MEMB      16              0.0000000000
      1715        16  SAPC      C215           11.0036909761       -1.4878451038        3.6506264753  MEMB      16              0.0000000000
      1716        16  SAPC      H15R           10.3756274368       -0.9773057982        2.9061353480  MEMB      16              0.0000000000
      1717        16  SAPC      C216           11.3306663638       -2.9075782093        3.2874118481  MEMB      16              0.0000000000
      1718        16  SAPC      H16R           10.4173175703       -3.4633886736        2.9844224263  MEMB      16              0.0000000000
      1719        16  SAPC      H16S           11.8046425554       -3.4733546622        4.1231860059  MEMB      16              0.0000000000
      1720        16  SAPC      C217           12.3280275068       -2.8438279438        2.1195379336  MEMB      16              0.0000000000
      1721        16  SAPC      H17R           12.6098861046       -3.8776034187        1.8280586334  MEMB      16              0.0000000000
      1722        16  SAPC      H17S           13.2413550249       -2.3459289096        2.5017584998  MEMB      16              0.0000000000
      1723        16  SAPC      C218           11.9131215096       -2.0242599735        0.8810406357  MEMB      16              0.0000000000
      1724        16  SAPC      H18R           12.7129715720       -2.1449838072        0.1147332221  MEMB      16              0.0000000000
      1725        16  SAPC      H18S           11.8848099622       -0.9436537917        1.1405399548  MEMB      16              0.0000000000
      1726        16  SAPC      C219           10.5756082726       -2.4228441161        0.2547524217  MEMB      16              0.0000000000
      1727        16  SAPC      H19R           10.3782779491       -1.7571357813       -0.6169349055  MEMB      16              0.0000000000
      1728        16  SAPC      H19S            9.7504843786       -2.2685374791        0.9849494104  MEMB      16              0.0000000000
      1729        16  SAPC      C220           10.5771829838       -3.8702505559       -0.2145014215  MEMB      16              0.0000000000
      1730        16  SAPC      H20R           11.4532880297       -4.0504873614       -0.8645956681  MEMB      16              0.0000000000
      1731        16  SAPC      H20S            9.6569125393       -4.1124510806       -0.7855835261  MEMB      16              0.0000000000
      1732        16  SAPC      H20T           10.6568392927       -4.5565559449        0.6546321831  MEMB      16              0.0000000000
      1733        16  SAPC      C33            15.6051777766       -3.4304531244       13.1030817974  MEMB      16              0.0000000000
      1734        16  SAPC      H3X            16.4573544612       -3.2828388979       12.3982838168  MEMB      16              0.0000000000
      1735        16  SAPC      H3Y            14.7199353866       -3.6451719782       12.4967532380  MEMB      16              0.0000000000
      1736        16  SAPC      C34            15.9483934777       -4.6472092271       13.9906613399  MEMB      16              0.0000000000
      1737        16  SAPC      H4X            14.9891222722       -5.1325246452       14.2728371857  MEMB      16              0.0000000000
      1738        16  SAPC      H4Y            16.4109136099       -4.3237756571       14.9459038911  MEMB      16              0.0000000000
      1739        16  SAPC      C35            16.8942321052       -5.6761627745       13.3201172284  MEMB      16              0.0000000000
      1740        16  SAPC      H5X            16.7165989295       -6.6723846308       13.7831821843  MEMB      16              0.0000000000
      1741        16  SAPC      H5Y            17.9515263524       -5.3965946611       13.5235631631  MEMB      16              0.0000000000
      1742        16  SAPC      C36            16.6738218431       -5.7281911492       11.8060815269  MEMB      16              0.0000000000
      1743        16  SAPC      H6X            17.0839752029       -4.7970901654       11.3542647456  MEMB      16              0.0000000000
      1744        16  SAPC      H6Y            15.5726686494       -5.7619973342       11.6286433773  MEMB      16              0.0000000000
      1745        16  SAPC      C37            17.3083033352       -6.8555022977       10.9867892355  MEMB      16              0.0000000000
      1746        16  SAPC      H7X            17.2610146957       -7.8188742687       11.5382805806  MEMB      16              0.0000000000
      1747        16  SAPC      H7Y            18.3799962221       -6.6306851215       10.7890904664  MEMB      16              0.0000000000
      1748        16  SAPC      C38            16.5394848175       -6.9838391756        9.6559279279  MEMB      16              0.0000000000
      1749        16  SAPC      H8X            15.5175088321       -7.3425722196        9.9046522481  MEMB      16              0.0000000000
      1750        16  SAPC      H8Y            17.0124142640       -7.7519653059        9.0059151113  MEMB      16              0.0000000000
      1751        16  SAPC      C39            16.3767061537       -5.6563024714        8.8868572405  MEMB      16              0.0000000000
      1752        16  SAPC      H9X            17.3390093197       -5.4147871465        8.3998999672  MEMB      16              0.0000000000
      1753        16  SAPC      H9Y            16.1327055002       -4.8062029002        9.5568664670  MEMB      16              0.0000000000
      1754        16  SAPC      C310           15.2305265241       -5.6833154528        7.8673526225  MEMB      16              0.0000000000
      1755        16  SAPC      H10X           14.2757815015       -5.8746220246        8.4090906812  MEMB      16              0.0000000000
      1756        16  SAPC      H10Y           15.4113954221       -6.5218705888        7.1642713230  MEMB      16              0.0000000000
      1757        16  SAPC      C311           15.1089316225       -4.3755574469        7.0675018545  MEMB      16              0.0000000000
      1758        16  SAPC      H11X           15.1170975607       -3.5143700960        7.7672039210  MEMB      16              0.0000000000
      1759        16  SAPC      H11Y           14.1405234454       -4.3636793846        6.5170837705  MEMB      16              0.0000000000
      1760        16  SAPC      C312           16.2554726501       -4.2420395758        6.0621317154  MEMB      16              0.0000000000
      1761        16  SAPC      H12X           16.1974661939       -5.1303972561        5.4008147267  MEMB      16              0.0000000000
      1762        16  SAPC      H12Y           17.2245028650       -4.2819776893        6.6053208464  MEMB      16              0.0000000000
      1763        16  SAPC      C313           16.2606662772       -2.9852741649        5.1837009693  MEMB      16              0.0000000000
      1764        16  SAPC      H13X           17.2582056132       -2.9393961127        4.6864348728  MEMB      16              0.0000000000
      1765        16  SAPC      H13Y           16.1674369318       -2.0708950017        5.8055246295  MEMB      16              0.0000000000
      1766        16  SAPC      C314           15.1926137198       -3.0210619789        4.0849418171  MEMB      16              0.0000000000
      1767        16  SAPC      H14X           14.4068464842       -2.2636315463        4.2837225863  MEMB      16              0.0000000000
      1768        16  SAPC      H14Y           14.6844500758       -4.0131135628        4.0994824337  MEMB      16              0.0000000000
      1769        16  SAPC      C315           15.7690285936       -2.8334674422        2.6745281527  MEMB      16              0.0000000000
      1770        16  SAPC      H15X           15.0946648489       -3.3423545522        1.9462816440  MEMB      16              0.0000000000
      1771        16  SAPC      H15Y           16.7555602548       -3.3407125537        2.5999829058  MEMB      16              0.0000000000
      1772        16  SAPC      C316           15.8835756836       -1.3683371709        2.2338067546  MEMB      16              0.0000000000
      1773        16  SAPC      H16X           16.5420624196       -0.8055761399        2.9314147643  MEMB      16              0.0000000000
      1774        16  SAPC      H16Y           14.8797799022       -0.8846539723        2.2439800563  MEMB      16              0.0000000000
      1775        16  SAPC      C317           16.4539525140       -1.3119715459        0.8165944668  MEMB      16              0.0000000000
      1776        16  SAPC      H17X           15.7819069604       -1.8821374630        0.1336371403  MEMB      16              0.0000000000
      1777        16  SAPC      H17Y           17.4236089127       -1.8532689667        0.8537534122  MEMB      16              0.0000000000
      1778        16  SAPC      C318           16.6662458029        0.0908909334        0.2473939503  MEMB      16              0.0000000000
      1779        16  SAPC      H18X           17.0987436464        0.0204618176       -0.7750721139  MEMB      16              0.0000000000
      1780        16  SAPC      H18Y           17.3637145606        0.6796119150        0.8819389229  MEMB      16              0.0000000000
      1781        16  SAPC      H18Z           15.6956071506        0.6228465647        0.1714189567  MEMB      16              0.0000000000
      1782        17  SLPC      N              15.5681470995        7.3121336551       19.6830660535  MEMB      17              0.0000000000
      1783        17  SLPC      C13            14.6780922363        6.3614115776       18.9358910940  MEMB      17              0.0000000000
      1784        17  SLPC      H13A           14.7082527847        5.3709383303       19.3652513999  MEMB      17              0.0000000000
      1785        17  SLPC      H13B           13.6632978947        6.7229828782       18.8974265846  MEMB      17              0.0000000000
      1786        17  SLPC      H13C           15.0343320241        6.3017519758       17.9031003273  MEMB      17              0.0000000000
      1787        17  SLPC      C14            16.8541372658        6.6095689481       19.9245621756  MEMB      17              0.0000000000
      1788        17  SLPC      H14A           17.5303007698        7.2010124009       20.5357454944  MEMB      17              0.0000000000
      1789        17  SLPC      H14B           16.6822178017        5.6816485473       20.4539634658  MEMB      17              0.0000000000
      1790        17  SLPC      H14C           17.3384544913        6.4001952808       18.9809753739  MEMB      17              0.0000000000
      1791        17  SLPC      C15            14.9446836308        7.6541927629       21.0005957555  MEMB      17              0.0000000000
      1792        17  SLPC      H15A           14.7058266894        6.7442053563       21.5408885526  MEMB      17              0.0000000000
      1793        17  SLPC      H15B           15.6347604855        8.2324068889       21.6096049225  MEMB      17              0.0000000000
      1794        17  SLPC      H15C           14.0168288637        8.1964787450       20.8595268394  MEMB      17              0.0000000000
      1795        17  SLPC      C12            15.8030420524        8.5445811241       18.8184658388  MEMB      17              0.0000000000
      1796        17  SLPC      H12A           16.2177062792        9.3531822818       19.4079144061  MEMB      17              0.0000000000
      1797        17  SLPC      H12B           14.8298309676        8.8709094284       18.4516422300  MEMB      17              0.0000000000
      1798        17  SLPC      C11            16.6620341850        8.4008239958       17.5373097102  MEMB      17              0.0000000000
      1799        17  SLPC      H11A           17.6389140751        7.9176646439       17.7562073126  MEMB      17              0.0000000000
      1800        17  SLPC      H11B           16.8792109741        9.4186243830       17.1334655275  MEMB      17              0.0000000000
      1801        17  SLPC      P              16.5701412629        7.2449829671       15.1852904194  MEMB      17              0.0000000000
      1802        17  SLPC      O13            15.7795891068        7.8311439331       14.0885172917  MEMB      17              0.0000000000
      1803        17  SLPC      O14            18.0326246530        7.4686899055       15.1940092802  MEMB      17              0.0000000000
      1804        17  SLPC      O12            15.9293347483        7.6586160174       16.5833791858  MEMB      17              0.0000000000
      1805        17  SLPC      O11            16.2895095784        5.6897418782       15.2648186969  MEMB      17              0.0000000000
      1806        17  SLPC      C1             16.8601715629        4.8817048330       16.2990094371  MEMB      17              0.0000000000
      1807        17  SLPC      HA             17.9447732811        5.1157947047       16.4139612497  MEMB      17              0.0000000000
      1808        17  SLPC      HB             16.3675026522        5.0728273575       17.2725673308  MEMB      17              0.0000000000
      1809        17  SLPC      C2             16.7211941360        3.3675534394       15.9475509317  MEMB      17              0.0000000000
      1810        17  SLPC      HS             17.4733163279        2.7848427607       16.5251978836  MEMB      17              0.0000000000
      1811        17  SLPC      O21            16.9188217843        3.1618104304       14.5442511844  MEMB      17              0.0000000000
      1812        17  SLPC      C21            18.1208925243        3.5138967382       14.1348987483  MEMB      17              0.0000000000
      1813        17  SLPC      O22            19.0968621470        3.6396967346       14.8698990027  MEMB      17              0.0000000000
      1814        17  SLPC      C22            18.1212404068        3.5643005575       12.6007585931  MEMB      17              0.0000000000
      1815        17  SLPC      H2R            18.9411352041        2.8852903322       12.2889360952  MEMB      17              0.0000000000
      1816        17  SLPC      H2S            17.1582250026        3.1774153529       12.2110159322  MEMB      17              0.0000000000
      1817        17  SLPC      C3             15.3255629507        2.7883816428       16.3196152226  MEMB      17              0.0000000000
      1818        17  SLPC      HX             15.3066468145        2.6078424359       17.4148223910  MEMB      17              0.0000000000
      1819        17  SLPC      HY             15.2162379854        1.7953689097       15.8199168577  MEMB      17              0.0000000000
      1820        17  SLPC      O31            14.2579563210        3.6985794115       15.9849626877  MEMB      17              0.0000000000
      1821        17  SLPC      C31            13.9797818759        3.7153612137       14.6708356401  MEMB      17              0.0000000000
      1822        17  SLPC      O32            14.2403305885        2.8083732234       13.9008560051  MEMB      17              0.0000000000
      1823        17  SLPC      C32            13.2302328692        4.9896936723       14.2971172596  MEMB      17              0.0000000000
      1824        17  SLPC      H2X            13.7684398901        5.8533010002       14.7395284361  MEMB      17              0.0000000000
      1825        17  SLPC      H2Y            12.2161193782        4.9192554600       14.7347550060  MEMB      17              0.0000000000
      1826        17  SLPC      C23            18.4605469323        4.9335503000       11.9766877019  MEMB      17              0.0000000000
      1827        17  SLPC      H3R            18.9842024989        4.7042643590       11.0202654289  MEMB      17              0.0000000000
      1828        17  SLPC      H3S            19.1716909396        5.4932614140       12.6244014458  MEMB      17              0.0000000000
      1829        17  SLPC      C24            17.2536978598        5.8253502361       11.6463186900  MEMB      17              0.0000000000
      1830        17  SLPC      H4R            16.6225995707        5.9413044215       12.5538614707  MEMB      17              0.0000000000
      1831        17  SLPC      H4S            16.6211507445        5.3481672012       10.8654176745  MEMB      17              0.0000000000
      1832        17  SLPC      C25            17.6998951686        7.2202328419       11.1647664766  MEMB      17              0.0000000000
      1833        17  SLPC      H5R            18.4006422843        7.6418209801       11.9203029972  MEMB      17              0.0000000000
      1834        17  SLPC      H5S            16.8200113375        7.8998981939       11.1102109083  MEMB      17              0.0000000000
      1835        17  SLPC      C26            18.3769545381        7.1298163807        9.7976570422  MEMB      17              0.0000000000
      1836        17  SLPC      H6R            17.6182722626        6.8203200751        9.0527999072  MEMB      17              0.0000000000
      1837        17  SLPC      H6S            19.1510099518        6.3345617775        9.8425031448  MEMB      17              0.0000000000
      1838        17  SLPC      C27            19.0677599442        8.3994052105        9.2839187875  MEMB      17              0.0000000000
      1839        17  SLPC      H7R            19.9283281276        8.6097787987        9.9514424826  MEMB      17              0.0000000000
      1840        17  SLPC      H7S            18.3690421814        9.2618948550        9.3502665963  MEMB      17              0.0000000000
      1841        17  SLPC      C28            19.5566318900        8.2379538272        7.8261370605  MEMB      17              0.0000000000
      1842        17  SLPC      H8R            20.2317362873        9.0884401564        7.5786554630  MEMB      17              0.0000000000
      1843        17  SLPC      H8S            18.6736670964        8.3374156968        7.1604158724  MEMB      17              0.0000000000
      1844        17  SLPC      C29            20.2672910743        6.9213304156        7.5956082135  MEMB      17              0.0000000000
      1845        17  SLPC      H9R            21.2868193789        6.8751774405        8.0077050876  MEMB      17              0.0000000000
      1846        17  SLPC      C210           19.8066154843        5.8292750821        6.9512543519  MEMB      17              0.0000000000
      1847        17  SLPC      H10R           20.4911648159        4.9758425751        6.8551624294  MEMB      17              0.0000000000
      1848        17  SLPC      C211           18.4639808822        5.6292309720        6.2843891668  MEMB      17              0.0000000000
      1849        17  SLPC      H11R           18.6377573855        5.1332034357        5.3044891011  MEMB      17              0.0000000000
      1850        17  SLPC      H11S           18.0892790967        6.6248994336        6.0091357644  MEMB      17              0.0000000000
      1851        17  SLPC      C212           17.3667873924        4.9127861764        7.0566455473  MEMB      17              0.0000000000
      1852        17  SLPC      H12R           17.4734338255        4.9289431193        8.1524627760  MEMB      17              0.0000000000
      1853        17  SLPC      C213           16.3004763373        4.2596765659        6.5299136345  MEMB      17              0.0000000000
      1854        17  SLPC      H13R           15.5821032643        3.7956097221        7.2189808546  MEMB      17              0.0000000000
      1855        17  SLPC      C214           15.9667915780        4.0996155917        5.0594360467  MEMB      17              0.0000000000
      1856        17  SLPC      H14R           16.7847602633        4.5129411580        4.4306878223  MEMB      17              0.0000000000
      1857        17  SLPC      H14S           15.0539519120        4.6958893769        4.8311572751  MEMB      17              0.0000000000
      1858        17  SLPC      C215           15.7111247223        2.6666615790        4.5310066348  MEMB      17              0.0000000000
      1859        17  SLPC      H15R           14.6998096782        2.3330992260        4.8513996015  MEMB      17              0.0000000000
      1860        17  SLPC      H15S           16.4497192757        1.9538532673        4.9590637469  MEMB      17              0.0000000000
      1861        17  SLPC      C216           15.7961275286        2.5615949038        2.9909320072  MEMB      17              0.0000000000
      1862        17  SLPC      H16R           15.4128773976        1.5610027715        2.6852924888  MEMB      17              0.0000000000
      1863        17  SLPC      H16S           16.8626902660        2.6193588903        2.6759524818  MEMB      17              0.0000000000
      1864        17  SLPC      C217           14.9958667014        3.6477298131        2.2539782737  MEMB      17              0.0000000000
      1865        17  SLPC      H17R           15.4254726798        4.6494887218        2.4827701195  MEMB      17              0.0000000000
      1866        17  SLPC      H17S           13.9601143030        3.6396086668        2.6602033983  MEMB      17              0.0000000000
      1867        17  SLPC      C218           14.9507966010        3.4773761036        0.7312577762  MEMB      17              0.0000000000
      1868        17  SLPC      H18R           14.5830712083        2.4656479256        0.4587196866  MEMB      17              0.0000000000
      1869        17  SLPC      H18S           15.9592368569        3.6204188621        0.2864961339  MEMB      17              0.0000000000
      1870        17  SLPC      H18T           14.2598982230        4.2249564710        0.2843066233  MEMB      17              0.0000000000
      1871        17  SLPC      C33            13.1495451336        5.1481543054       12.7577049414  MEMB      17              0.0000000000
      1872        17  SLPC      H3X            12.9946592992        4.1467172169       12.2961423321  MEMB      17              0.0000000000
      1873        17  SLPC      H3Y            14.1234681075        5.5312176668       12.3793659001  MEMB      17              0.0000000000
      1874        17  SLPC      C34            11.9966736663        6.0426034126       12.2851931099  MEMB      17              0.0000000000
      1875        17  SLPC      H4X            11.2886906771        6.2087982028       13.1270789522  MEMB      17              0.0000000000
      1876        17  SLPC      H4Y            11.4300660289        5.5399660365       11.4776789994  MEMB      17              0.0000000000
      1877        17  SLPC      C35            12.4273794821        7.3785130438       11.6829995518  MEMB      17              0.0000000000
      1878        17  SLPC      H5X            13.3345216598        7.7819555072       12.1818062477  MEMB      17              0.0000000000
      1879        17  SLPC      H5Y            11.5874486787        8.0811880807       11.8536614815  MEMB      17              0.0000000000
      1880        17  SLPC      C36            12.6636314096        7.3603260993       10.1712315446  MEMB      17              0.0000000000
      1881        17  SLPC      H6X            12.5880485825        8.4202021907        9.8319347062  MEMB      17              0.0000000000
      1882        17  SLPC      H6Y            11.8774510755        6.7887211226        9.6341732477  MEMB      17              0.0000000000
      1883        17  SLPC      C37            14.0597326180        6.8597918773        9.8100361593  MEMB      17              0.0000000000
      1884        17  SLPC      H7X            14.0396360090        5.7630922257        9.6352121485  MEMB      17              0.0000000000
      1885        17  SLPC      H7Y            14.7434031232        7.0518782200       10.6717948602  MEMB      17              0.0000000000
      1886        17  SLPC      C38            14.6584672537        7.5927418570        8.6071286288  MEMB      17              0.0000000000
      1887        17  SLPC      H8X            15.6623174589        7.1552323806        8.4345389731  MEMB      17              0.0000000000
      1888        17  SLPC      H8Y            14.8108664051        8.6616483005        8.8850050975  MEMB      17              0.0000000000
      1889        17  SLPC      C39            13.8331300537        7.5208720472        7.3129769895  MEMB      17              0.0000000000
      1890        17  SLPC      H9X            12.8278403672        7.9642390109        7.4912548600  MEMB      17              0.0000000000
      1891        17  SLPC      H9Y            13.6954454935        6.4610773562        7.0091394794  MEMB      17              0.0000000000
      1892        17  SLPC      C310           14.5071734554        8.3090243560        6.1790075469  MEMB      17              0.0000000000
      1893        17  SLPC      H10X           14.6193856792        9.3343196019        6.5739058660  MEMB      17              0.0000000000
      1894        17  SLPC      H10Y           13.8685569747        8.3246821567        5.2702753147  MEMB      17              0.0000000000
      1895        17  SLPC      C311           15.9037896785        7.7970084805        5.8352684674  MEMB      17              0.0000000000
      1896        17  SLPC      H11X           15.7959068597        6.7164513440        5.6226730593  MEMB      17              0.0000000000
      1897        17  SLPC      H11Y           16.5437972096        7.9055775422        6.7385082900  MEMB      17              0.0000000000
      1898        17  SLPC      C312           16.6622472031        8.4482965490        4.6636063556  MEMB      17              0.0000000000
      1899        17  SLPC      H12X           17.7224035185        8.5782923223        4.9890368896  MEMB      17              0.0000000000
      1900        17  SLPC      H12Y           16.2871967553        9.4595938466        4.4214513101  MEMB      17              0.0000000000
      1901        17  SLPC      C313           16.7013710161        7.5445567085        3.4243133927  MEMB      17              0.0000000000
      1902        17  SLPC      H13X           15.7959595602        7.7029029634        2.8006816014  MEMB      17              0.0000000000
      1903        17  SLPC      H13Y           16.6883118968        6.4815227409        3.7433563741  MEMB      17              0.0000000000
      1904        17  SLPC      C314           17.9801863554        7.7210115042        2.5975596682  MEMB      17              0.0000000000
      1905        17  SLPC      H14X           18.8624756582        7.5472659772        3.2527570293  MEMB      17              0.0000000000
      1906        17  SLPC      H14Y           18.0511165075        8.7729791770        2.2465838521  MEMB      17              0.0000000000
      1907        17  SLPC      C315           18.0183993458        6.7544755316        1.4034662735  MEMB      17              0.0000000000
      1908        17  SLPC      H15X           18.3442006050        7.3085628341        0.4959268838  MEMB      17              0.0000000000
      1909        17  SLPC      H15Y           16.9960247687        6.3591066530        1.2048133500  MEMB      17              0.0000000000
      1910        17  SLPC      C316           18.9996436568        5.6040124534        1.6295163002  MEMB      17              0.0000000000
      1911        17  SLPC      H16X           18.7891881018        4.7729979784        0.9185958594  MEMB      17              0.0000000000
      1912        17  SLPC      H16Y           18.8714712534        5.2081580822        2.6617218917  MEMB      17              0.0000000000
      1913        17  SLPC      C317           20.4396648637        6.0792398306        1.4216644137  MEMB      17              0.0000000000
      1914        17  SLPC      H17X           20.6097377022        7.0360738857        1.9638442219  MEMB      17              0.0000000000
      1915        17  SLPC      H17Y           20.5680864013        6.2982593480        0.3400959069  MEMB      17              0.0000000000
      1916        17  SLPC      C318           21.4814231471        5.0671875675        1.8761426750  MEMB      17              0.0000000000
      1917        17  SLPC      H18X           21.4517543322        4.9586379288        2.9806760604  MEMB      17              0.0000000000
      1918        17  SLPC      H18Y           22.5024666473        5.3890990233        1.5773807730  MEMB      17              0.0000000000
      1919        17  SLPC      H18Z           21.2768950345        4.0764199182        1.4151792572  MEMB      17              0.0000000000
      1920        18  SAPE      N              10.4822106804       16.9934627106       18.9511914726  MEMB      18              0.0000000000
      1921        18  SAPE      HN1            11.0687307198       16.5230818011       19.6903425551  MEMB      18              0.0000000000
      1922        18  SAPE      HN2            11.1484722124       17.1740349157       18.1658426540  MEMB      18              0.0000000000
      1923        18  SAPE      HN3            10.0756863594       17.8712669741       19.3707901579  MEMB      18              0.0000000000
      1924        18  SAPE      C12             9.4835520575       15.9092572675       18.7349053920  MEMB      18              0.0000000000
      1925        18  SAPE      H12A            9.3572032715       15.7771395081       17.6474384370  MEMB      18              0.0000000000
      1926        18  SAPE      H12B            8.5227407581       16.2210532975       19.1933263725  MEMB      18              0.0000000000
      1927        18  SAPE      C11            10.0336418924       14.6468032498       19.4212846516  MEMB      18              0.0000000000
      1928        18  SAPE      H11A           10.2026700631       13.8666808902       18.6386425400  MEMB      18              0.0000000000
      1929        18  SAPE      H11B            9.2594543793       14.2284635687       20.1012816839  MEMB      18              0.0000000000
      1930        18  SAPE      P              12.1706672802       13.7840739085       20.6362064513  MEMB      18              0.0000000000
      1931        18  SAPE      O13            12.7258657267       14.1850119163       21.9417680382  MEMB      18              0.0000000000
      1932        18  SAPE      O14            11.4215828817       12.5018666203       20.6286839707  MEMB      18              0.0000000000
      1933        18  SAPE      O12            11.2272252761       14.9552415014       20.1726479998  MEMB      18              0.0000000000
      1934        18  SAPE      O11            13.3103564538       13.7337405428       19.5323893744  MEMB      18              0.0000000000
      1935        18  SAPE      C1             14.3153227707       12.7106073948       19.6456400522  MEMB      18              0.0000000000
      1936        18  SAPE      HA             15.3063683961       13.1862851601       19.4627995031  MEMB      18              0.0000000000
      1937        18  SAPE      HB             14.3891469686       12.2708679259       20.6674153993  MEMB      18              0.0000000000
      1938        18  SAPE      C2             14.1304705115       11.5319322514       18.6275015731  MEMB      18              0.0000000000
      1939        18  SAPE      HS             15.0697680714       10.9394964389       18.6609611280  MEMB      18              0.0000000000
      1940        18  SAPE      O21            13.8923595049       12.0037427314       17.3021924400  MEMB      18              0.0000000000
      1941        18  SAPE      C21            14.8454944639       12.7550178220       16.8092818751  MEMB      18              0.0000000000
      1942        18  SAPE      O22            16.0160221857       12.7317505606       17.1462411048  MEMB      18              0.0000000000
      1943        18  SAPE      C22            14.2902339649       13.5881051887       15.6697719964  MEMB      18              0.0000000000
      1944        18  SAPE      H2R            15.1385103702       14.1896746451       15.2794752748  MEMB      18              0.0000000000
      1945        18  SAPE      H2S            13.9669182259       12.8997307848       14.8703008557  MEMB      18              0.0000000000
      1946        18  SAPE      C3             12.9553222380       10.5780800692       18.9664305697  MEMB      18              0.0000000000
      1947        18  SAPE      HX             12.0076554298       11.1447019705       18.8322961158  MEMB      18              0.0000000000
      1948        18  SAPE      HY             13.0251149906       10.3016044061       20.0374274599  MEMB      18              0.0000000000
      1949        18  SAPE      O31            13.0202736111        9.3871802381       18.1521760564  MEMB      18              0.0000000000
      1950        18  SAPE      C31            12.1437788364        9.3290600353       17.1303365549  MEMB      18              0.0000000000
      1951        18  SAPE      O32            11.1545830034       10.0222525685       16.9985472936  MEMB      18              0.0000000000
      1952        18  SAPE      C32            12.5943044291        8.2490470389       16.1628221561  MEMB      18              0.0000000000
      1953        18  SAPE      H2X            11.8779728588        7.4041524084       16.2430556216  MEMB      18              0.0000000000
      1954        18  SAPE      H2Y            13.5965420406        7.8819299214       16.4516843713  MEMB      18              0.0000000000
      1955        18  SAPE      C23            13.1436397200       14.5379454947       16.0988032374  MEMB      18              0.0000000000
      1956        18  SAPE      H3R            12.9146699398       15.2012771151       15.2343892408  MEMB      18              0.0000000000
      1957        18  SAPE      H3S            13.5042735946       15.1696422622       16.9442605859  MEMB      18              0.0000000000
      1958        18  SAPE      C24            11.8045366675       13.8980108319       16.5115780233  MEMB      18              0.0000000000
      1959        18  SAPE      H4R            11.1256046683       14.7360188117       16.7734358211  MEMB      18              0.0000000000
      1960        18  SAPE      H4S            11.9514238261       13.2996230705       17.4362390518  MEMB      18              0.0000000000
      1961        18  SAPE      C25            11.2149388151       13.0224261817       15.4429559702  MEMB      18              0.0000000000
      1962        18  SAPE      H5R            11.8378346478       12.1568608057       15.1885573349  MEMB      18              0.0000000000
      1963        18  SAPE      C26            10.0269299069       13.1686099831       14.8304957377  MEMB      18              0.0000000000
      1964        18  SAPE      H6R             9.7765513047       12.4904249671       14.0021160495  MEMB      18              0.0000000000
      1965        18  SAPE      C27             9.0034291199       14.2489226780       15.0723182497  MEMB      18              0.0000000000
      1966        18  SAPE      H7R             8.8340992326       14.3263549704       16.1656845448  MEMB      18              0.0000000000
      1967        18  SAPE      H7S             8.0237666829       13.9337493020       14.6474640298  MEMB      18              0.0000000000
      1968        18  SAPE      C28             9.3771118224       15.6012954677       14.5223924442  MEMB      18              0.0000000000
      1969        18  SAPE      H8R             9.3672883902       16.4342954549       15.2416873993  MEMB      18              0.0000000000
      1970        18  SAPE      C29             9.7348865864       15.8724231837       13.2562682646  MEMB      18              0.0000000000
      1971        18  SAPE      H9R             9.9619226255       16.9194055044       13.0059145154  MEMB      18              0.0000000000
      1972        18  SAPE      C210            9.8351691204       14.8824278691       12.1194734232  MEMB      18              0.0000000000
      1973        18  SAPE      H10R            9.2764647277       13.9502869817       12.3465335325  MEMB      18              0.0000000000
      1974        18  SAPE      H10S           10.9004468224       14.5919941111       11.9821571489  MEMB      18              0.0000000000
      1975        18  SAPE      C211            9.3018336849       15.4722273509       10.8460072330  MEMB      18              0.0000000000
      1976        18  SAPE      H11R            9.1105918613       16.5580213690       10.8633697616  MEMB      18              0.0000000000
      1977        18  SAPE      C212            9.0888175383       14.8218249430        9.6923280371  MEMB      18              0.0000000000
      1978        18  SAPE      H12R            8.7171798727       15.4065931695        8.8360349967  MEMB      18              0.0000000000
      1979        18  SAPE      C213            9.3320482872       13.3669081807        9.3876805557  MEMB      18              0.0000000000
      1980        18  SAPE      H13R            8.4608205426       12.9200248395        8.8563088155  MEMB      18              0.0000000000
      1981        18  SAPE      H13S            9.5105072223       12.7606351730       10.3031718794  MEMB      18              0.0000000000
      1982        18  SAPE      C214           10.5625702524       13.4125001376        8.5252232338  MEMB      18              0.0000000000
      1983        18  SAPE      H14R           11.5110051095       13.2774968260        9.0681603414  MEMB      18              0.0000000000
      1984        18  SAPE      C215           10.5967337506       13.6588455418        7.2033442067  MEMB      18              0.0000000000
      1985        18  SAPE      H15R           11.5738302523       13.8782403565        6.7592084313  MEMB      18              0.0000000000
      1986        18  SAPE      C216            9.4197341118       13.9322252825        6.3045427042  MEMB      18              0.0000000000
      1987        18  SAPE      H16R            8.9328395926       14.8935216256        6.5837519893  MEMB      18              0.0000000000
      1988        18  SAPE      H16S            8.6576466031       13.1280005780        6.4178901511  MEMB      18              0.0000000000
      1989        18  SAPE      C217            9.8083186191       14.0098846039        4.8118411074  MEMB      18              0.0000000000
      1990        18  SAPE      H17R            8.8758696922       14.1852143500        4.2273423362  MEMB      18              0.0000000000
      1991        18  SAPE      H17S           10.2325568097       13.0359526962        4.4803151950  MEMB      18              0.0000000000
      1992        18  SAPE      C218           10.7935544254       15.1480726222        4.4922128363  MEMB      18              0.0000000000
      1993        18  SAPE      H18R           11.8044590219       14.8857897026        4.8762717693  MEMB      18              0.0000000000
      1994        18  SAPE      H18S           10.4592593234       16.0658557931        5.0277191608  MEMB      18              0.0000000000
      1995        18  SAPE      C219           10.9055255803       15.4728444084        2.9949230266  MEMB      18              0.0000000000
      1996        18  SAPE      H19R           11.6046753886       16.3322144998        2.8720211133  MEMB      18              0.0000000000
      1997        18  SAPE      H19S            9.9075471295       15.8019530614        2.6263457145  MEMB      18              0.0000000000
      1998        18  SAPE      C220           11.4046273586       14.3166780297        2.1283748367  MEMB      18              0.0000000000
      1999        18  SAPE      H20R           10.7749487825       13.4138189866        2.2613139724  MEMB      18              0.0000000000
      2000        18  SAPE      H20S           12.4493735211       14.0543893414        2.3976197982  MEMB      18              0.0000000000
      2001        18  SAPE      H20T           11.3845035519       14.6081698970        1.0576711996  MEMB      18              0.0000000000
      2002        18  SAPE      C33            12.6380346660        8.7390681353       14.6979465074  MEMB      18              0.0000000000
      2003        18  SAPE      H3X            11.6006922100        8.8271040039       14.3198264300  MEMB      18              0.0000000000
      2004        18  SAPE      H3Y            13.1392869652        7.9205942291       14.1386096314  MEMB      18              0.0000000000
      2005        18  SAPE      C34            13.4145773116       10.0412310532       14.3828556833  MEMB      18              0.0000000000
      2006        18  SAPE      H4X            14.4965722044        9.8012304793       14.3091708748  MEMB      18              0.0000000000
      2007        18  SAPE      H4Y            13.3040507268       10.7666733737       15.2092550337  MEMB      18              0.0000000000
      2008        18  SAPE      C35            12.9479634076       10.6790421718       13.0545901784  MEMB      18              0.0000000000
      2009        18  SAPE      H5X            12.1025392626       11.3757704273       13.2292201364  MEMB      18              0.0000000000
      2010        18  SAPE      H5Y            12.5354004825        9.8566670670       12.4362006297  MEMB      18              0.0000000000
      2011        18  SAPE      C36            14.0174274035       11.3485323356       12.1670770614  MEMB      18              0.0000000000
      2012        18  SAPE      H6X            14.9570967396       10.7497369355       12.1956569186  MEMB      18              0.0000000000
      2013        18  SAPE      H6Y            14.2430326533       12.3697861908       12.5402312220  MEMB      18              0.0000000000
      2014        18  SAPE      C37            13.5189876227       11.4035952376       10.7089558120  MEMB      18              0.0000000000
      2015        18  SAPE      H7X            12.5199543919       11.8938913962       10.6765596924  MEMB      18              0.0000000000
      2016        18  SAPE      H7Y            13.3777540863       10.3500148547       10.3722503666  MEMB      18              0.0000000000
      2017        18  SAPE      C38            14.4443001414       12.0863255701        9.6884575666  MEMB      18              0.0000000000
      2018        18  SAPE      H8X            15.4843436450       11.7113345535        9.8205939220  MEMB      18              0.0000000000
      2019        18  SAPE      H8Y            14.4399693737       13.1844433028        9.8634002213  MEMB      18              0.0000000000
      2020        18  SAPE      C39            13.9695640845       11.7603093650        8.2597883496  MEMB      18              0.0000000000
      2021        18  SAPE      H9X            12.8563890881       11.7388668779        8.2655311046  MEMB      18              0.0000000000
      2022        18  SAPE      H9Y            14.3045152580       10.7352449469        8.0066635825  MEMB      18              0.0000000000
      2023        18  SAPE      C310           14.3997515540       12.7366370661        7.1541372378  MEMB      18              0.0000000000
      2024        18  SAPE      H10X           15.4934929220       12.6675011916        6.9713311232  MEMB      18              0.0000000000
      2025        18  SAPE      H10Y           14.1828455152       13.7739079261        7.5033155826  MEMB      18              0.0000000000
      2026        18  SAPE      C311           13.6116158868       12.5087418555        5.8451429398  MEMB      18              0.0000000000
      2027        18  SAPE      H11X           13.6861485184       13.4157524385        5.2101058487  MEMB      18              0.0000000000
      2028        18  SAPE      H11Y           12.5420762723       12.3575775467        6.0839799157  MEMB      18              0.0000000000
      2029        18  SAPE      C312           14.0127509706       11.2858373569        5.0141742518  MEMB      18              0.0000000000
      2030        18  SAPE      H12X           13.2011469980       10.5272508617        5.0525571635  MEMB      18              0.0000000000
      2031        18  SAPE      H12Y           14.9432476925       10.8704852519        5.4549687565  MEMB      18              0.0000000000
      2032        18  SAPE      C313           14.3639326938       11.6303608946        3.5703158738  MEMB      18              0.0000000000
      2033        18  SAPE      H13X           15.4239821215       11.9453412520        3.6432093054  MEMB      18              0.0000000000
      2034        18  SAPE      H13Y           13.7593849319       12.4756694728        3.1826761404  MEMB      18              0.0000000000
      2035        18  SAPE      C314           14.3926641858       10.4956743891        2.5484440420  MEMB      18              0.0000000000
      2036        18  SAPE      H14X           13.4108729904       10.4444324872        2.0309824884  MEMB      18              0.0000000000
      2037        18  SAPE      H14Y           14.5699909245        9.5254512628        3.0557123307  MEMB      18              0.0000000000
      2038        18  SAPE      C315           15.5173803357       10.7761278135        1.5349501823  MEMB      18              0.0000000000
      2039        18  SAPE      H15X           16.4650736081       10.9749416109        2.0864120584  MEMB      18              0.0000000000
      2040        18  SAPE      H15Y           15.2580831175       11.6989670293        0.9806437100  MEMB      18              0.0000000000
      2041        18  SAPE      C316           15.8127559308        9.6895009412        0.5116509115  MEMB      18              0.0000000000
      2042        18  SAPE      H16X           16.4708322988        8.9345582530        0.9731860895  MEMB      18              0.0000000000
      2043        18  SAPE      H16Y           16.3633442478       10.1259789337       -0.3521032395  MEMB      18              0.0000000000
      2044        18  SAPE      C317           14.5953270533        8.9339953208        0.0223583147  MEMB      18              0.0000000000
      2045        18  SAPE      H17X           13.9550763329        8.6109540023        0.8700806623  MEMB      18              0.0000000000
      2046        18  SAPE      H17Y           14.9990254238        8.0106506262       -0.4390203133  MEMB      18              0.0000000000
      2047        18  SAPE      C318           13.7687520733        9.6981121905       -0.9946485648  MEMB      18              0.0000000000
      2048        18  SAPE      H18X           13.0526144871        8.9989109500       -1.4575496874  MEMB      18              0.0000000000
      2049        18  SAPE      H18Y           14.4094800070       10.1241666213       -1.7949424020  MEMB      18              0.0000000000
      2050        18  SAPE      H18Z           13.1979804914       10.5167976826       -0.5105548167  MEMB      18              0.0000000000
      2051        19  CHL1      C3             -1.2730851696      -18.1753474690       17.4140873855  MEMB      19              0.0000000000
      2052        19  CHL1      H3             -0.8380871375      -17.2045837293       17.1088116874  MEMB      19              0.0000000000
      2053        19  CHL1      O3             -0.9405271568      -18.4214735933       18.7664156670  MEMB      19              0.0000000000
      2054        19  CHL1      H3'            -1.1135181078      -17.6032171730       19.2621044310  MEMB      19              0.0000000000
      2055        19  CHL1      C4             -2.8012135168      -18.1308377610       17.1907123538  MEMB      19              0.0000000000
      2056        19  CHL1      H4A            -3.2182866679      -19.1000118356       17.5420908936  MEMB      19              0.0000000000
      2057        19  CHL1      H4B            -3.2348257086      -17.3477840545       17.8488958197  MEMB      19              0.0000000000
      2058        19  CHL1      C5             -3.1833263458      -17.9166978184       15.7343208644  MEMB      19              0.0000000000
      2059        19  CHL1      C6             -4.1473022230      -17.0758549516       15.3281513103  MEMB      19              0.0000000000
      2060        19  CHL1      H6             -4.7109098463      -16.5017007315       16.0783512246  MEMB      19              0.0000000000
      2061        19  CHL1      C7             -4.5350725765      -16.8962585793       13.8768476338  MEMB      19              0.0000000000
      2062        19  CHL1      H7A            -5.6347323602      -16.8286208273       13.7324386673  MEMB      19              0.0000000000
      2063        19  CHL1      H7B            -4.0869942671      -15.9366915844       13.5573485676  MEMB      19              0.0000000000
      2064        19  CHL1      C8             -3.9063462467      -17.8742163082       12.8479189538  MEMB      19              0.0000000000
      2065        19  CHL1      H8             -4.4724349996      -18.8199844448       12.8271963422  MEMB      19              0.0000000000
      2066        19  CHL1      C14            -3.9529881433      -17.2623612324       11.4484191813  MEMB      19              0.0000000000
      2067        19  CHL1      H14            -3.4533535871      -16.2654576219       11.5453669594  MEMB      19              0.0000000000
      2068        19  CHL1      C15            -5.3427642475      -16.9852659617       10.8348310628  MEMB      19              0.0000000000
      2069        19  CHL1      H15A           -6.0302587709      -17.8287681487       11.0564339681  MEMB      19              0.0000000000
      2070        19  CHL1      H15B           -5.7847769789      -16.0522060361       11.2368061614  MEMB      19              0.0000000000
      2071        19  CHL1      C16            -5.0625455196      -16.9032398705        9.3178436013  MEMB      19              0.0000000000
      2072        19  CHL1      H16A           -5.6034067762      -17.7380662275        8.8399499121  MEMB      19              0.0000000000
      2073        19  CHL1      H16B           -5.4288044770      -15.9723006314        8.8496563189  MEMB      19              0.0000000000
      2074        19  CHL1      C17            -3.5169229852      -17.0859495917        9.1498910198  MEMB      19              0.0000000000
      2075        19  CHL1      H17            -3.0721904542      -16.0794421927        9.3416655659  MEMB      19              0.0000000000
      2076        19  CHL1      C13            -3.1566772168      -17.9784629091       10.3599462074  MEMB      19              0.0000000000
      2077        19  CHL1      C18            -3.7194418718      -19.3999285302       10.1276495816  MEMB      19              0.0000000000
      2078        19  CHL1      H18A           -4.7821821041      -19.4118734352        9.8336887142  MEMB      19              0.0000000000
      2079        19  CHL1      H18B           -3.1324448927      -19.9407757183        9.3583445297  MEMB      19              0.0000000000
      2080        19  CHL1      H18C           -3.6432213604      -19.9795983511       11.0624934988  MEMB      19              0.0000000000
      2081        19  CHL1      C12            -1.6909479249      -18.0681743118       10.7996915186  MEMB      19              0.0000000000
      2082        19  CHL1      H12A           -1.1142523446      -18.6648789333       10.0629572832  MEMB      19              0.0000000000
      2083        19  CHL1      H12B           -1.2627891568      -17.0444301148       10.8372221144  MEMB      19              0.0000000000
      2084        19  CHL1      C11            -1.5577094462      -18.7419538125       12.1854587309  MEMB      19              0.0000000000
      2085        19  CHL1      H11A           -1.7999504327      -19.8203913083       12.1016265434  MEMB      19              0.0000000000
      2086        19  CHL1      H11B           -0.4878533055      -18.6695413751       12.4711505443  MEMB      19              0.0000000000
      2087        19  CHL1      C9             -2.4590556143      -18.0985348305       13.2810853544  MEMB      19              0.0000000000
      2088        19  CHL1      H9             -2.0850090548      -17.0612949911       13.3830237525  MEMB      19              0.0000000000
      2089        19  CHL1      C10            -2.3353351321      -18.6867301949       14.7149294484  MEMB      19              0.0000000000
      2090        19  CHL1      C19            -2.9954931693      -20.0465754696       14.7619394867  MEMB      19              0.0000000000
      2091        19  CHL1      H19A           -4.0195437912      -20.0616885498       14.3440821477  MEMB      19              0.0000000000
      2092        19  CHL1      H19B           -2.3453377040      -20.7262505244       14.1760310203  MEMB      19              0.0000000000
      2093        19  CHL1      H19C           -3.0630949616      -20.4629094434       15.7916323471  MEMB      19              0.0000000000
      2094        19  CHL1      C1             -0.8430754051      -18.9075937985       15.1010540003  MEMB      19              0.0000000000
      2095        19  CHL1      H1A            -0.4003164569      -19.6938666238       14.4522802453  MEMB      19              0.0000000000
      2096        19  CHL1      H1B            -0.2694990246      -17.9823378349       14.9532666755  MEMB      19              0.0000000000
      2097        19  CHL1      C2             -0.6301960330      -19.2702250436       16.5688660416  MEMB      19              0.0000000000
      2098        19  CHL1      H2A             0.4578518501      -19.3323094063       16.7875330610  MEMB      19              0.0000000000
      2099        19  CHL1      H2B            -1.0886976768      -20.2528047566       16.8070442904  MEMB      19              0.0000000000
      2100        19  CHL1      C20            -3.0212306492      -17.5112443045        7.7530803866  MEMB      19              0.0000000000
      2101        19  CHL1      H20            -3.0757809625      -18.6186862128        7.6915183385  MEMB      19              0.0000000000
      2102        19  CHL1      C21            -1.5499810295      -17.0750340510        7.5739062259  MEMB      19              0.0000000000
      2103        19  CHL1      H21A           -1.1829421050      -17.3641471623        6.5673628935  MEMB      19              0.0000000000
      2104        19  CHL1      H21B           -0.8821439362      -17.5341757384        8.3242698874  MEMB      19              0.0000000000
      2105        19  CHL1      H21C           -1.4693591063      -15.9708531523        7.6649097980  MEMB      19              0.0000000000
      2106        19  CHL1      C22            -3.8490539488      -16.9185242095        6.5772604748  MEMB      19              0.0000000000
      2107        19  CHL1      H22A           -4.9259572923      -17.0278063859        6.7915582387  MEMB      19              0.0000000000
      2108        19  CHL1      H22B           -3.6404178779      -15.8288917219        6.5076727698  MEMB      19              0.0000000000
      2109        19  CHL1      C23            -3.6351173592      -17.5645673425        5.1880541368  MEMB      19              0.0000000000
      2110        19  CHL1      H23A           -4.4781527302      -17.2507371334        4.5310550291  MEMB      19              0.0000000000
      2111        19  CHL1      H23B           -2.7046343324      -17.1672927561        4.7256509863  MEMB      19              0.0000000000
      2112        19  CHL1      C24            -3.5538323358      -19.0995585592        5.2266739740  MEMB      19              0.0000000000
      2113        19  CHL1      H24A           -2.4859452781      -19.3791718496        5.3774962760  MEMB      19              0.0000000000
      2114        19  CHL1      H24B           -4.1167163408      -19.4999894880        6.0909202304  MEMB      19              0.0000000000
      2115        19  CHL1      C25            -4.0781647973      -19.8506005546        3.9887964317  MEMB      19              0.0000000000
      2116        19  CHL1      H25            -3.7286847290      -20.8960977393        4.1313308873  MEMB      19              0.0000000000
      2117        19  CHL1      C26            -5.6080321131      -19.9317260596        3.8969729144  MEMB      19              0.0000000000
      2118        19  CHL1      H26A           -6.0347313879      -20.3757875612        4.8171400351  MEMB      19              0.0000000000
      2119        19  CHL1      H26B           -6.0519515728      -18.9306373774        3.7297678371  MEMB      19              0.0000000000
      2120        19  CHL1      H26C           -5.9023579157      -20.5890158476        3.0534251368  MEMB      19              0.0000000000
      2121        19  CHL1      C27            -3.4891587017      -19.3161038051        2.6854533807  MEMB      19              0.0000000000
      2122        19  CHL1      H27A           -2.3813018580      -19.3862651913        2.7090759122  MEMB      19              0.0000000000
      2123        19  CHL1      H27B           -3.8721868346      -19.9047200553        1.8229213800  MEMB      19              0.0000000000
      2124        19  CHL1      H27C           -3.7762101584      -18.2545510114        2.5406902040  MEMB      19              0.0000000000
      2125        20  CHL1      C3            -14.0852423407      -11.4227670932       17.2205506699  MEMB      20              0.0000000000
      2126        20  CHL1      H3            -14.5557326521      -10.4344693597       17.0036624582  MEMB      20              0.0000000000
      2127        20  CHL1      O3            -14.2510756851      -11.6919260786       18.6093433795  MEMB      20              0.0000000000
      2128        20  CHL1      H3'           -13.3671939797      -11.8538914774       18.9650165061  MEMB      20              0.0000000000
      2129        20  CHL1      C4            -14.7862252871      -12.5159452898       16.4028929370  MEMB      20              0.0000000000
      2130        20  CHL1      H4A           -14.3868133283      -13.4952523662       16.7434636813  MEMB      20              0.0000000000
      2131        20  CHL1      H4B           -15.8659622068      -12.5080459228       16.6731522814  MEMB      20              0.0000000000
      2132        20  CHL1      C5            -14.5729071587      -12.3482538186       14.9074869381  MEMB      20              0.0000000000
      2133        20  CHL1      C6            -15.6155061956      -12.2218703284       14.0704276181  MEMB      20              0.0000000000
      2134        20  CHL1      H6            -16.6401675891      -12.2648765353       14.4677130090  MEMB      20              0.0000000000
      2135        20  CHL1      C7            -15.4833908849      -12.1380008857       12.5787609137  MEMB      20              0.0000000000
      2136        20  CHL1      H7A           -16.2704447024      -12.7482161985       12.0882051768  MEMB      20              0.0000000000
      2137        20  CHL1      H7B           -15.6243784299      -11.0860037134       12.2479110555  MEMB      20              0.0000000000
      2138        20  CHL1      C8            -14.0912543381      -12.6284632855       12.1011410315  MEMB      20              0.0000000000
      2139        20  CHL1      H8            -14.0272058888      -13.7230399863       12.2659887971  MEMB      20              0.0000000000
      2140        20  CHL1      C14           -13.9317674590      -12.3610655941       10.6112751774  MEMB      20              0.0000000000
      2141        20  CHL1      H14           -13.9908146454      -11.2460976590       10.5076994250  MEMB      20              0.0000000000
      2142        20  CHL1      C15           -15.0151242658      -12.9114592894        9.6625098783  MEMB      20              0.0000000000
      2143        20  CHL1      H15A          -15.2083518787      -13.9798234520        9.9009280139  MEMB      20              0.0000000000
      2144        20  CHL1      H15B          -15.9648826141      -12.3456333870        9.7307824381  MEMB      20              0.0000000000
      2145        20  CHL1      C16           -14.3661567265      -12.7905466369        8.2766754106  MEMB      20              0.0000000000
      2146        20  CHL1      H16A          -14.4009032197      -13.7763624775        7.7653409086  MEMB      20              0.0000000000
      2147        20  CHL1      H16B          -14.8845443034      -12.0386428046        7.6469454782  MEMB      20              0.0000000000
      2148        20  CHL1      C17           -12.8825103915      -12.3640290966        8.5238190241  MEMB      20              0.0000000000
      2149        20  CHL1      H17           -12.8863097742      -11.2455812491        8.5407861916  MEMB      20              0.0000000000
      2150        20  CHL1      C13           -12.5934005371      -12.7682270877        9.9916553574  MEMB      20              0.0000000000
      2151        20  CHL1      C18           -12.3744762995      -14.3006493422       10.0662094583  MEMB      20              0.0000000000
      2152        20  CHL1      H18A          -13.1480541352      -14.8579314007        9.5029432920  MEMB      20              0.0000000000
      2153        20  CHL1      H18B          -11.3839025020      -14.5648735982        9.6442125938  MEMB      20              0.0000000000
      2154        20  CHL1      H18C          -12.3993764759      -14.6545383553       11.1154981612  MEMB      20              0.0000000000
      2155        20  CHL1      C12           -11.5032232995      -11.9930179683       10.7551956225  MEMB      20              0.0000000000
      2156        20  CHL1      H12A          -10.4939880639      -12.2644023358       10.3912288853  MEMB      20              0.0000000000
      2157        20  CHL1      H12B          -11.6634057305      -10.9206752510       10.5489376469  MEMB      20              0.0000000000
      2158        20  CHL1      C11           -11.5720409831      -12.2249041248       12.2834168378  MEMB      20              0.0000000000
      2159        20  CHL1      H11A          -11.2735720048      -13.2816610234       12.4388570685  MEMB      20              0.0000000000
      2160        20  CHL1      H11B          -10.8205300525      -11.5794899958       12.7841423320  MEMB      20              0.0000000000
      2161        20  CHL1      C9            -12.9752742841      -11.9568403972       12.9157000173  MEMB      20              0.0000000000
      2162        20  CHL1      H9            -13.1547464967      -10.8586639084       12.8134166604  MEMB      20              0.0000000000
      2163        20  CHL1      C10           -13.0962335010      -12.2777136735       14.4446666500  MEMB      20              0.0000000000
      2164        20  CHL1      C19           -12.3869107920      -13.6322364754       14.6996054832  MEMB      20              0.0000000000
      2165        20  CHL1      H19A          -12.5629318261      -14.0156401107       15.7234409906  MEMB      20              0.0000000000
      2166        20  CHL1      H19B          -12.7351624050      -14.3973814546       13.9786372804  MEMB      20              0.0000000000
      2167        20  CHL1      H19C          -11.2892479556      -13.5269028912       14.5873805865  MEMB      20              0.0000000000
      2168        20  CHL1      C1            -12.4128827805      -11.1791741747       15.3167205587  MEMB      20              0.0000000000
      2169        20  CHL1      H1A           -11.3270698243      -11.1611584940       15.0875533141  MEMB      20              0.0000000000
      2170        20  CHL1      H1B           -12.8310792569      -10.1853310131       15.0386733897  MEMB      20              0.0000000000
      2171        20  CHL1      C2            -12.5955750817      -11.3692763719       16.8463717393  MEMB      20              0.0000000000
      2172        20  CHL1      H2A           -12.1076312299      -10.5367737213       17.3944708877  MEMB      20              0.0000000000
      2173        20  CHL1      H2B           -12.1117326534      -12.3233232536       17.1512138827  MEMB      20              0.0000000000
      2174        20  CHL1      C20           -11.9665783009      -12.7511244930        7.3465206616  MEMB      20              0.0000000000
      2175        20  CHL1      H20           -12.0652745046      -13.8406624648        7.1364780669  MEMB      20              0.0000000000
      2176        20  CHL1      C21           -10.4895704239      -12.4670654073        7.6799265664  MEMB      20              0.0000000000
      2177        20  CHL1      H21A           -9.8486352901      -12.5759587452        6.7820868506  MEMB      20              0.0000000000
      2178        20  CHL1      H21B          -10.1214003359      -13.1833679078        8.4415829675  MEMB      20              0.0000000000
      2179        20  CHL1      H21C          -10.3751935157      -11.4417879862        8.0797530241  MEMB      20              0.0000000000
      2180        20  CHL1      C22           -12.4250365153      -11.9678033174        6.0785181331  MEMB      20              0.0000000000
      2181        20  CHL1      H22A          -13.4859919959      -12.2279267396        5.8649411121  MEMB      20              0.0000000000
      2182        20  CHL1      H22B          -12.3865443841      -10.8788111691        6.3065384225  MEMB      20              0.0000000000
      2183        20  CHL1      C23           -11.6554025670      -12.1928215328        4.7643699129  MEMB      20              0.0000000000
      2184        20  CHL1      H23A          -10.6212718305      -11.7964484819        4.8536561294  MEMB      20              0.0000000000
      2185        20  CHL1      H23B          -11.5952853772      -13.2807421984        4.5588577224  MEMB      20              0.0000000000
      2186        20  CHL1      C24           -12.3688497193      -11.4866354319        3.5941901729  MEMB      20              0.0000000000
      2187        20  CHL1      H24A          -13.3224609814      -12.0159525293        3.3741040021  MEMB      20              0.0000000000
      2188        20  CHL1      H24B          -12.6302996547      -10.4562789667        3.9263768506  MEMB      20              0.0000000000
      2189        20  CHL1      C25           -11.5520495907      -11.3579145651        2.2904496931  MEMB      20              0.0000000000
      2190        20  CHL1      H25           -10.5665487018      -10.8995751765        2.5439445838  MEMB      20              0.0000000000
      2191        20  CHL1      C26           -11.2964119091      -12.7168649692        1.6252047429  MEMB      20              0.0000000000
      2192        20  CHL1      H26A          -10.8003826937      -12.5827874457        0.6404034366  MEMB      20              0.0000000000
      2193        20  CHL1      H26B          -10.6364967199      -13.3355631529        2.2632423866  MEMB      20              0.0000000000
      2194        20  CHL1      H26C          -12.2521607213      -13.2596377261        1.4659583652  MEMB      20              0.0000000000
      2195        20  CHL1      C27           -12.2627644851      -10.4201913913        1.3019585481  MEMB      20              0.0000000000
      2196        20  CHL1      H27A          -13.2561255124      -10.8373772806        1.0332251408  MEMB      20              0.0000000000
      2197        20  CHL1      H27B          -12.4101734413       -9.4166713911        1.7542213007  MEMB      20              0.0000000000
      2198        20  CHL1      H27C          -11.6633607702      -10.3072313441        0.3740336733  MEMB      20              0.0000000000
      2199        21  OSM       N             -19.7210521253       -7.4436509764       21.9659415595  MEMB      21              0.0000000000
      2200        21  OSM       C15           -20.8510377599       -8.3491433858       22.3257665911  MEMB      21              0.0000000000
      2201        21  OSM       H15A          -20.6384306328       -8.9141868092       23.2181180453  MEMB      21              0.0000000000
      2202        21  OSM       H15B          -21.1234498457       -8.9963516388       21.4946406324  MEMB      21              0.0000000000
      2203        21  OSM       H15C          -21.7541856868       -7.7612198024       22.4973198698  MEMB      21              0.0000000000
      2204        21  OSM       C14           -19.5713726099       -6.4777924477       23.0991103673  MEMB      21              0.0000000000
      2205        21  OSM       H14A          -19.4390676074       -6.9686194353       24.0475972168  MEMB      21              0.0000000000
      2206        21  OSM       H14B          -20.4566359330       -5.8429952302       23.1119899957  MEMB      21              0.0000000000
      2207        21  OSM       H14C          -18.7411414089       -5.8036214526       22.8944836717  MEMB      21              0.0000000000
      2208        21  OSM       C13           -18.4788506904       -8.2547391991       21.8241888337  MEMB      21              0.0000000000
      2209        21  OSM       H13A          -18.3023705990       -8.8374384524       22.7245396555  MEMB      21              0.0000000000
      2210        21  OSM       H13B          -17.6109365015       -7.6035872722       21.7030934633  MEMB      21              0.0000000000
      2211        21  OSM       H13C          -18.5283185974       -8.9498759782       21.0000208158  MEMB      21              0.0000000000
      2212        21  OSM       C12           -20.0435468436       -6.6126159144       20.7325812921  MEMB      21              0.0000000000
      2213        21  OSM       H12A          -20.9335432120       -6.0292176958       20.9586543700  MEMB      21              0.0000000000
      2214        21  OSM       H12B          -20.3234170453       -7.2581448581       19.9089340399  MEMB      21              0.0000000000
      2215        21  OSM       C11           -18.9735852356       -5.5970331614       20.2447525615  MEMB      21              0.0000000000
      2216        21  OSM       H11A          -19.3488158431       -5.1574560332       19.2904650067  MEMB      21              0.0000000000
      2217        21  OSM       H11B          -18.0533708509       -6.1878528544       20.0314325744  MEMB      21              0.0000000000
      2218        21  OSM       P             -17.6617231849       -3.4250329836       20.7865286150  MEMB      21              0.0000000000
      2219        21  OSM       O13           -18.2639300032       -2.4478480798       19.8467250672  MEMB      21              0.0000000000
      2220        21  OSM       O14           -17.0187779461       -2.8751783576       21.9973837556  MEMB      21              0.0000000000
      2221        21  OSM       O11           -16.5967549762       -4.3382674711       20.0780741946  MEMB      21              0.0000000000
      2222        21  OSM       O12           -18.7261906210       -4.5453314945       21.1888144939  MEMB      21              0.0000000000
      2223        21  OSM       C1S           -15.7927419621       -3.8972117910       18.9966918388  MEMB      21              0.0000000000
      2224        21  OSM       H1S           -14.7311319319       -4.0939625745       19.2496065464  MEMB      21              0.0000000000
      2225        21  OSM       H1T           -15.8623714672       -2.7964054560       18.8289049513  MEMB      21              0.0000000000
      2226        21  OSM       NF            -17.5081013396       -4.2191899867       17.3039903210  MEMB      21              0.0000000000
      2227        21  OSM       HNF           -18.2184408898       -4.8855091610       17.4751726407  MEMB      21              0.0000000000
      2228        21  OSM       C2S           -16.1880807466       -4.6124787288       17.6767946375  MEMB      21              0.0000000000
      2229        21  OSM       H2S           -15.4929741645       -4.2460827293       16.8943705610  MEMB      21              0.0000000000
      2230        21  OSM       C3S           -16.1190138771       -6.1710093991       17.7079047280  MEMB      21              0.0000000000
      2231        21  OSM       H3S           -16.9694063723       -6.5496314456       18.3105273181  MEMB      21              0.0000000000
      2232        21  OSM       O3            -14.9511479060       -6.7565718384       18.2725115729  MEMB      21              0.0000000000
      2233        21  OSM       HO3           -14.3687444678       -5.9936244977       18.3992649878  MEMB      21              0.0000000000
      2234        21  OSM       C4S           -16.3234406401       -6.6465680457       16.2725534249  MEMB      21              0.0000000000
      2235        21  OSM       H4S           -15.6966175364       -6.1256513940       15.5385890117  MEMB      21              0.0000000000
      2236        21  OSM       C5S           -17.2049832321       -7.5595394686       15.8214732049  MEMB      21              0.0000000000
      2237        21  OSM       H5S           -17.8764430103       -8.0496278793       16.5500226407  MEMB      21              0.0000000000
      2238        21  OSM       C6S           -17.3794615617       -7.9866680779       14.3762614941  MEMB      21              0.0000000000
      2239        21  OSM       H6S           -18.4727442159       -8.0640108018       14.1761050202  MEMB      21              0.0000000000
      2240        21  OSM       H6T           -16.9697896581       -9.0138756646       14.2629346702  MEMB      21              0.0000000000
      2241        21  OSM       C7S           -16.8149819948       -7.1450593433       13.1915749088  MEMB      21              0.0000000000
      2242        21  OSM       H7S           -15.7059122854       -7.1184081084       13.2553373305  MEMB      21              0.0000000000
      2243        21  OSM       H7T           -17.1898605373       -6.0996637985       13.2477888480  MEMB      21              0.0000000000
      2244        21  OSM       C8S           -17.2316421754       -7.7656485615       11.8340220231  MEMB      21              0.0000000000
      2245        21  OSM       H8S           -18.3435053845       -7.7790200416       11.7723823076  MEMB      21              0.0000000000
      2246        21  OSM       H8T           -16.8872036220       -8.8249326788       11.8379146127  MEMB      21              0.0000000000
      2247        21  OSM       C9S           -16.6770392877       -7.0974349988       10.5548125579  MEMB      21              0.0000000000
      2248        21  OSM       H9S           -15.5887327895       -6.9093651797       10.6907864756  MEMB      21              0.0000000000
      2249        21  OSM       H9T           -17.1755538041       -6.1165059877       10.3911040851  MEMB      21              0.0000000000
      2250        21  OSM       C10S          -16.8718981175       -7.9962362757        9.3102273551  MEMB      21              0.0000000000
      2251        21  OSM       H10S          -17.9583154608       -8.1009628653        9.0914585047  MEMB      21              0.0000000000
      2252        21  OSM       H10T          -16.4839536050       -9.0087116295        9.5662626050  MEMB      21              0.0000000000
      2253        21  OSM       C11S          -16.1285830460       -7.5247945040        8.0421403746  MEMB      21              0.0000000000
      2254        21  OSM       H11S          -15.1313566187       -7.1351233205        8.3480354582  MEMB      21              0.0000000000
      2255        21  OSM       H11T          -16.6878338595       -6.6885782810        7.5737712549  MEMB      21              0.0000000000
      2256        21  OSM       C12S          -15.8837519846       -8.6429531102        7.0024662073  MEMB      21              0.0000000000
      2257        21  OSM       H12S          -15.5573366883       -9.5618953434        7.5341137409  MEMB      21              0.0000000000
      2258        21  OSM       H12T          -15.0556651994       -8.3418332066        6.3204934975  MEMB      21              0.0000000000
      2259        21  OSM       C13S          -17.1047887844       -8.9560199822        6.1303842372  MEMB      21              0.0000000000
      2260        21  OSM       H13S          -17.2395800516       -8.1192906426        5.4082221896  MEMB      21              0.0000000000
      2261        21  OSM       H13T          -18.0102327279       -9.0067127376        6.7792816620  MEMB      21              0.0000000000
      2262        21  OSM       C14S          -17.0295666052      -10.2722387985        5.3495445619  MEMB      21              0.0000000000
      2263        21  OSM       H14S          -17.7995525434      -10.9343603751        5.8032787558  MEMB      21              0.0000000000
      2264        21  OSM       H14T          -16.0474440415      -10.7727748229        5.4752423760  MEMB      21              0.0000000000
      2265        21  OSM       C15S          -17.3462853570      -10.1312897959        3.8526368873  MEMB      21              0.0000000000
      2266        21  OSM       H15S          -18.2694230329       -9.5244259801        3.7276094296  MEMB      21              0.0000000000
      2267        21  OSM       H15T          -17.5401339316      -11.1542214883        3.4646558609  MEMB      21              0.0000000000
      2268        21  OSM       C16S          -16.2114501887       -9.5362031952        3.0096084506  MEMB      21              0.0000000000
      2269        21  OSM       H16S          -15.3984109153      -10.2912161279        2.9167004054  MEMB      21              0.0000000000
      2270        21  OSM       H16T          -15.7934556823       -8.6484769368        3.5343143236  MEMB      21              0.0000000000
      2271        21  OSM       C17S          -16.6781705540       -9.0930937421        1.6139751156  MEMB      21              0.0000000000
      2272        21  OSM       H17S          -17.3722328064       -8.2295295634        1.7445677937  MEMB      21              0.0000000000
      2273        21  OSM       H17T          -17.2568206241       -9.9118383471        1.1271636754  MEMB      21              0.0000000000
      2274        21  OSM       C18S          -15.5267237995       -8.6874177394        0.6904005661  MEMB      21              0.0000000000
      2275        21  OSM       H18S          -15.8911139361       -8.0534185835       -0.1465955090  MEMB      21              0.0000000000
      2276        21  OSM       H18T          -15.0457637822       -9.5912764222        0.2581917983  MEMB      21              0.0000000000
      2277        21  OSM       H18U          -14.7531031594       -8.1255180161        1.2585764308  MEMB      21              0.0000000000
      2278        21  OSM       C1F           -17.8998617508       -3.0581158857       16.8271191150  MEMB      21              0.0000000000
      2279        21  OSM       OF            -17.2556829569       -2.0252317887       16.9281267748  MEMB      21              0.0000000000
      2280        21  OSM       C2F           -19.1630390139       -3.1684608915       16.0566551090  MEMB      21              0.0000000000
      2281        21  OSM       H2F           -18.9533561420       -2.7569802091       15.0467768063  MEMB      21              0.0000000000
      2282        21  OSM       H2G           -19.9173799208       -2.5442196424       16.5625157979  MEMB      21              0.0000000000
      2283        21  OSM       C3F           -19.6894910139       -4.6350920152       15.9656841901  MEMB      21              0.0000000000
      2284        21  OSM       H3F           -20.1251692992       -4.9419914945       16.9432455157  MEMB      21              0.0000000000
      2285        21  OSM       H3G           -18.8830955196       -5.3542837114       15.6870459248  MEMB      21              0.0000000000
      2286        21  OSM       C4F           -20.7213054821       -4.8556831201       14.8631769176  MEMB      21              0.0000000000
      2287        21  OSM       H4F           -21.5437191570       -4.1160260909       14.9474845701  MEMB      21              0.0000000000
      2288        21  OSM       H4G           -21.1800133009       -5.8606375771       15.0076884423  MEMB      21              0.0000000000
      2289        21  OSM       C5F           -20.0564222322       -4.7971443714       13.4824533896  MEMB      21              0.0000000000
      2290        21  OSM       H5F           -19.5257169276       -5.7576106680       13.2933294302  MEMB      21              0.0000000000
      2291        21  OSM       H5G           -19.2884434307       -3.9951236029       13.4352880013  MEMB      21              0.0000000000
      2292        21  OSM       C6F           -21.0480962085       -4.5085251447       12.3650739272  MEMB      21              0.0000000000
      2293        21  OSM       H6F           -21.3620926978       -3.4437844009       12.4082124217  MEMB      21              0.0000000000
      2294        21  OSM       H6G           -21.9680739194       -5.1158084003       12.5099461273  MEMB      21              0.0000000000
      2295        21  OSM       C7F           -20.4458508537       -4.8196519744       10.9937244084  MEMB      21              0.0000000000
      2296        21  OSM       H7F           -20.1660559843       -5.8958966821       10.9632753491  MEMB      21              0.0000000000
      2297        21  OSM       H7G           -19.5010216502       -4.2541882632       10.8334964133  MEMB      21              0.0000000000
      2298        21  OSM       C8F           -21.4550085231       -4.5319618969        9.8833005159  MEMB      21              0.0000000000
      2299        21  OSM       H8F           -22.4646877254       -4.8902189604       10.1834443139  MEMB      21              0.0000000000
      2300        21  OSM       H8G           -21.1618871038       -5.0936081092        8.9830414887  MEMB      21              0.0000000000
      2301        21  OSM       C9F           -21.4995516454       -3.0801117712        9.5671437832  MEMB      21              0.0000000000
      2302        21  OSM       H9F           -21.0975070231       -2.4193912360       10.3469369395  MEMB      21              0.0000000000
      2303        21  OSM       C10F          -21.8724396646       -2.5617405189        8.3949366881  MEMB      21              0.0000000000
      2304        21  OSM       H10F          -21.7223502730       -1.4871918548        8.2458173829  MEMB      21              0.0000000000
      2305        21  OSM       C11F          -22.3055895795       -3.3425931330        7.1816000818  MEMB      21              0.0000000000
      2306        21  OSM       H11F          -23.2628493109       -2.9514681358        6.7835268589  MEMB      21              0.0000000000
      2307        21  OSM       H11G          -22.4829146289       -4.4146573559        7.4159486144  MEMB      21              0.0000000000
      2308        21  OSM       C12F          -21.1964081545       -3.2744594739        6.1072730757  MEMB      21              0.0000000000
      2309        21  OSM       H12F          -21.2675187498       -2.3272485309        5.5502076238  MEMB      21              0.0000000000
      2310        21  OSM       H12G          -21.3970069547       -4.0856106425        5.3828146560  MEMB      21              0.0000000000
      2311        21  OSM       C13F          -19.7842535151       -3.4138901774        6.7095326200  MEMB      21              0.0000000000
      2312        21  OSM       H13F          -19.7519375917       -4.3957100182        7.2288129156  MEMB      21              0.0000000000
      2313        21  OSM       H13G          -19.6028428063       -2.6304862524        7.4787362216  MEMB      21              0.0000000000
      2314        21  OSM       C14F          -18.5574837471       -3.2881951147        5.8050909893  MEMB      21              0.0000000000
      2315        21  OSM       H14F          -18.3036363300       -2.2067490319        5.7173387731  MEMB      21              0.0000000000
      2316        21  OSM       H14G          -18.7062677900       -3.6766122559        4.7830416905  MEMB      21              0.0000000000
      2317        21  OSM       C15F          -17.3995003847       -4.0390388752        6.4761174895  MEMB      21              0.0000000000
      2318        21  OSM       H15F          -17.5088457525       -5.1322538299        6.3281614451  MEMB      21              0.0000000000
      2319        21  OSM       H15G          -17.4775146590       -3.8486557502        7.5735909388  MEMB      21              0.0000000000
      2320        21  OSM       C16F          -16.0189145532       -3.5787091431        6.0207659569  MEMB      21              0.0000000000
      2321        21  OSM       H16F          -15.2916905839       -3.8245758011        6.8261063269  MEMB      21              0.0000000000
      2322        21  OSM       H16G          -16.0462200385       -2.4826515721        5.9039646136  MEMB      21              0.0000000000
      2323        21  OSM       C17F          -15.5399550628       -4.1729713075        4.6979906148  MEMB      21              0.0000000000
      2324        21  OSM       H17F          -14.7742103103       -3.4850972077        4.2628762883  MEMB      21              0.0000000000
      2325        21  OSM       H17G          -16.3920961646       -4.2233600492        3.9857231517  MEMB      21              0.0000000000
      2326        21  OSM       C18F          -14.9296116470       -5.5578424916        4.8786461316  MEMB      21              0.0000000000
      2327        21  OSM       H18F          -14.0630724944       -5.5010927109        5.5733173308  MEMB      21              0.0000000000
      2328        21  OSM       H18G          -14.5963279066       -5.9680229963        3.9016661388  MEMB      21              0.0000000000
      2329        21  OSM       H18H          -15.6848264764       -6.2449588952        5.3151974998  MEMB      21              0.0000000000
      2330        22  POPC      N             -15.8911521287        7.5233561329       19.6724104575  MEMB      22              0.0000000000
      2331        22  POPC      C12           -16.6553933525        7.7610518960       18.3763840905  MEMB      22              0.0000000000
      2332        22  POPC      H12A          -16.0208970621        7.5847986873       17.5225187852  MEMB      22              0.0000000000
      2333        22  POPC      H12B          -16.9258806363        8.8032854884       18.3699900299  MEMB      22              0.0000000000
      2334        22  POPC      C13           -15.8050905080        6.0636730191       19.9534694450  MEMB      22              0.0000000000
      2335        22  POPC      H13A          -15.2676667618        5.8705681782       20.8712062113  MEMB      22              0.0000000000
      2336        22  POPC      H13B          -16.8191770323        5.6794345977       20.0550232016  MEMB      22              0.0000000000
      2337        22  POPC      H13C          -15.3303343874        5.5264201556       19.1380785521  MEMB      22              0.0000000000
      2338        22  POPC      C14           -14.5425878040        8.1474714777       19.6863169095  MEMB      22              0.0000000000
      2339        22  POPC      H14A          -14.6419158901        9.2369797473       19.6842120253  MEMB      22              0.0000000000
      2340        22  POPC      H14B          -14.0073177547        7.9202493441       20.6030911831  MEMB      22              0.0000000000
      2341        22  POPC      H14C          -13.9632956207        7.8728964627       18.8195296334  MEMB      22              0.0000000000
      2342        22  POPC      C15           -16.6796293227        8.1712765444       20.7614731784  MEMB      22              0.0000000000
      2343        22  POPC      H15A          -17.6967294176        7.7793377063       20.7558496162  MEMB      22              0.0000000000
      2344        22  POPC      H15B          -16.7766086689        9.2359275857       20.6086239846  MEMB      22              0.0000000000
      2345        22  POPC      H15C          -16.2482098441        7.9914930372       21.7311553534  MEMB      22              0.0000000000
      2346        22  POPC      C11           -17.9983392648        7.0170381858       18.1070755681  MEMB      22              0.0000000000
      2347        22  POPC      H11A          -17.7127117123        5.9936512960       17.7955577812  MEMB      22              0.0000000000
      2348        22  POPC      H11B          -18.4919216395        7.4989956111       17.2304628152  MEMB      22              0.0000000000
      2349        22  POPC      P             -20.0459446657        5.9467800308       19.4236101999  MEMB      22              0.0000000000
      2350        22  POPC      O13           -21.3431984963        6.4356401428       18.8822464644  MEMB      22              0.0000000000
      2351        22  POPC      O14           -20.0066925580        5.5498546045       20.8572580009  MEMB      22              0.0000000000
      2352        22  POPC      O12           -18.8927362070        7.0345610351       19.2218234194  MEMB      22              0.0000000000
      2353        22  POPC      O11           -19.4727642234        4.7874192479       18.4972711552  MEMB      22              0.0000000000
      2354        22  POPC      C1            -18.5248847025        3.8460143586       19.0284496176  MEMB      22              0.0000000000
      2355        22  POPC      HA            -19.0527554051        3.1403007226       19.7059524208  MEMB      22              0.0000000000
      2356        22  POPC      HB            -17.7471086245        4.3435020348       19.6379458828  MEMB      22              0.0000000000
      2357        22  POPC      C2            -17.7722806473        2.9823481535       17.9506597126  MEMB      22              0.0000000000
      2358        22  POPC      HS            -16.9010234063        2.5038916365       18.4533797885  MEMB      22              0.0000000000
      2359        22  POPC      O21           -17.3698179462        3.7134075569       16.7772450692  MEMB      22              0.0000000000
      2360        22  POPC      C21           -16.1777830432        4.2243892338       16.6336072743  MEMB      22              0.0000000000
      2361        22  POPC      O22           -15.3505945624        4.4148608425       17.5071717904  MEMB      22              0.0000000000
      2362        22  POPC      C22           -16.0063624050        4.5879640281       15.1419421309  MEMB      22              0.0000000000
      2363        22  POPC      H2R           -16.0069647522        5.6950562585       15.0862353740  MEMB      22              0.0000000000
      2364        22  POPC      H2S           -16.8801854327        4.2121005098       14.5689570400  MEMB      22              0.0000000000
      2365        22  POPC      C3            -18.7136053402        1.8528304874       17.4482362930  MEMB      22              0.0000000000
      2366        22  POPC      HX            -19.0973447364        1.3085826279       18.3400340810  MEMB      22              0.0000000000
      2367        22  POPC      HY            -18.1517249783        1.1157784412       16.8281731581  MEMB      22              0.0000000000
      2368        22  POPC      O31           -19.8231886192        2.4494661606       16.7533088951  MEMB      22              0.0000000000
      2369        22  POPC      C31           -19.6985733034        2.6622581256       15.4648038556  MEMB      22              0.0000000000
      2370        22  POPC      O32           -19.0382888593        2.0129335948       14.6737799260  MEMB      22              0.0000000000
      2371        22  POPC      C32           -20.4965242576        3.9113691566       15.1047848791  MEMB      22              0.0000000000
      2372        22  POPC      H2X           -20.0696301455        4.7609518846       15.6869748040  MEMB      22              0.0000000000
      2373        22  POPC      H2Y           -21.5537322718        3.7736214105       15.4112471804  MEMB      22              0.0000000000
      2374        22  POPC      C23           -14.7104347488        4.0157630362       14.5170782781  MEMB      22              0.0000000000
      2375        22  POPC      H3R           -14.7437164021        2.9100015217       14.4555476096  MEMB      22              0.0000000000
      2376        22  POPC      H3S           -13.8681358944        4.2540695904       15.2048121984  MEMB      22              0.0000000000
      2377        22  POPC      C24           -14.3669894221        4.5873193589       13.1228498843  MEMB      22              0.0000000000
      2378        22  POPC      H4R           -13.2552136651        4.6101720795       13.0552952752  MEMB      22              0.0000000000
      2379        22  POPC      H4S           -14.7540679396        5.6213362898       13.0302080012  MEMB      22              0.0000000000
      2380        22  POPC      C25           -14.8249623572        3.7356078036       11.9311324345  MEMB      22              0.0000000000
      2381        22  POPC      H5R           -15.9297136791        3.7811980656       11.8258320454  MEMB      22              0.0000000000
      2382        22  POPC      H5S           -14.5512279389        2.6889109052       12.1937628478  MEMB      22              0.0000000000
      2383        22  POPC      C26           -14.1395638312        4.0321445249       10.5768872440  MEMB      22              0.0000000000
      2384        22  POPC      H6R           -14.1424653667        3.0864050540        9.9891369298  MEMB      22              0.0000000000
      2385        22  POPC      H6S           -13.0756001962        4.3136151853       10.7332522534  MEMB      22              0.0000000000
      2386        22  POPC      C27           -14.8524870881        5.0943280767        9.7262388208  MEMB      22              0.0000000000
      2387        22  POPC      H7R           -14.4612043399        6.0867672200       10.0093608480  MEMB      22              0.0000000000
      2388        22  POPC      H7S           -15.9392338850        5.0750778614        9.9683218996  MEMB      22              0.0000000000
      2389        22  POPC      C28           -14.7277370415        4.9384704320        8.1932363994  MEMB      22              0.0000000000
      2390        22  POPC      H8R           -15.3057649677        5.7779480246        7.7391145105  MEMB      22              0.0000000000
      2391        22  POPC      H8S           -15.2489928487        4.0076369525        7.8971896884  MEMB      22              0.0000000000
      2392        22  POPC      C29           -13.3283165888        4.9503697677        7.6327294016  MEMB      22              0.0000000000
      2393        22  POPC      H91           -12.5329075512        5.2732708516        8.3234270523  MEMB      22              0.0000000000
      2394        22  POPC      C210          -13.0083756268        4.6069528410        6.3706350608  MEMB      22              0.0000000000
      2395        22  POPC      H101          -11.9588273534        4.6732411971        6.0434576052  MEMB      22              0.0000000000
      2396        22  POPC      C211          -13.9838982416        4.1526229718        5.3134743817  MEMB      22              0.0000000000
      2397        22  POPC      H11R          -14.8282572623        3.5885366279        5.7712653635  MEMB      22              0.0000000000
      2398        22  POPC      H11S          -13.4872726870        3.4414527374        4.6159151517  MEMB      22              0.0000000000
      2399        22  POPC      C212          -14.6040959434        5.2937423067        4.4862548734  MEMB      22              0.0000000000
      2400        22  POPC      H12R          -15.1073400915        6.0359552565        5.1438365579  MEMB      22              0.0000000000
      2401        22  POPC      H12S          -15.3917812690        4.8321558418        3.8451817464  MEMB      22              0.0000000000
      2402        22  POPC      C213          -13.6187110115        6.0156434203        3.5559675429  MEMB      22              0.0000000000
      2403        22  POPC      H13R          -13.0158350669        5.2500823076        3.0223260821  MEMB      22              0.0000000000
      2404        22  POPC      H13S          -12.9105466457        6.6387108383        4.1457803461  MEMB      22              0.0000000000
      2405        22  POPC      C214          -14.3690646715        6.8891425894        2.5369667989  MEMB      22              0.0000000000
      2406        22  POPC      H14R          -14.4279540614        7.9229327191        2.9275581123  MEMB      22              0.0000000000
      2407        22  POPC      H14S          -15.4162395027        6.5220507527        2.4647366727  MEMB      22              0.0000000000
      2408        22  POPC      C215          -13.8087476162        6.8459935603        1.1084123178  MEMB      22              0.0000000000
      2409        22  POPC      H15R          -12.7456289582        7.1748332014        1.0992925625  MEMB      22              0.0000000000
      2410        22  POPC      H15S          -14.3919381601        7.5587261439        0.4820499074  MEMB      22              0.0000000000
      2411        22  POPC      C216          -13.9362979937        5.4368145371        0.5080194051  MEMB      22              0.0000000000
      2412        22  POPC      H16R          -14.8577117925        4.9537401232        0.9062285028  MEMB      22              0.0000000000
      2413        22  POPC      H16S          -13.0718189122        4.8317485187        0.8596555746  MEMB      22              0.0000000000
      2414        22  POPC      C217          -14.0103770210        5.3752232728       -1.0235508629  MEMB      22              0.0000000000
      2415        22  POPC      H17R          -15.0123281394        5.7273323494       -1.3617256891  MEMB      22              0.0000000000
      2416        22  POPC      H17S          -13.9181252428        4.3013041280       -1.3111410694  MEMB      22              0.0000000000
      2417        22  POPC      C218          -12.9381255901        6.1748157453       -1.7579734508  MEMB      22              0.0000000000
      2418        22  POPC      H18R          -11.9614519672        6.0997535029       -1.2407999312  MEMB      22              0.0000000000
      2419        22  POPC      H18S          -13.2045526215        7.2510024917       -1.8163081193  MEMB      22              0.0000000000
      2420        22  POPC      H18T          -12.8173134996        5.7830307257       -2.7911158641  MEMB      22              0.0000000000
      2421        22  POPC      C33           -20.3591561083        4.1850326786       13.6026763223  MEMB      22              0.0000000000
      2422        22  POPC      H3X           -20.8448598817        3.3664349651       13.0328707955  MEMB      22              0.0000000000
      2423        22  POPC      H3Y           -19.2795718550        4.1649728757       13.3330145990  MEMB      22              0.0000000000
      2424        22  POPC      C34           -20.9686300291        5.5318951309       13.2133615987  MEMB      22              0.0000000000
      2425        22  POPC      H4X           -21.1793402066        6.1188802626       14.1396357898  MEMB      22              0.0000000000
      2426        22  POPC      H4Y           -21.9503273362        5.3536118005       12.7325824620  MEMB      22              0.0000000000
      2427        22  POPC      C35           -20.0650200553        6.3909839703       12.3183131144  MEMB      22              0.0000000000
      2428        22  POPC      H5X           -19.2425990197        6.8009577163       12.9452801637  MEMB      22              0.0000000000
      2429        22  POPC      H5Y           -20.6714942173        7.2511542519       11.9555893901  MEMB      22              0.0000000000
      2430        22  POPC      C36           -19.4241307741        5.6706193242       11.1188960184  MEMB      22              0.0000000000
      2431        22  POPC      H6X           -20.2188157532        5.2895382683       10.4423730596  MEMB      22              0.0000000000
      2432        22  POPC      H6Y           -18.8241158684        4.7959794401       11.4495775928  MEMB      22              0.0000000000
      2433        22  POPC      C37           -18.4750823706        6.5851385385       10.3301104573  MEMB      22              0.0000000000
      2434        22  POPC      H7X           -18.0486546127        6.0086145580        9.4783226025  MEMB      22              0.0000000000
      2435        22  POPC      H7Y           -17.6240150761        6.8744778470       10.9866508225  MEMB      22              0.0000000000
      2436        22  POPC      C38           -19.1612990804        7.8567503740        9.8120903747  MEMB      22              0.0000000000
      2437        22  POPC      H8X           -18.4029913752        8.5143790393        9.3367309645  MEMB      22              0.0000000000
      2438        22  POPC      H8Y           -19.5512272104        8.4502451894       10.6658659361  MEMB      22              0.0000000000
      2439        22  POPC      C39           -20.3074526803        7.5592927831        8.8245839798  MEMB      22              0.0000000000
      2440        22  POPC      H9X           -20.7702487776        8.5235819090        8.5286070842  MEMB      22              0.0000000000
      2441        22  POPC      H9Y           -21.0922863547        6.9558486509        9.3323864749  MEMB      22              0.0000000000
      2442        22  POPC      C310          -19.8573117116        6.8442528210        7.5353547003  MEMB      22              0.0000000000
      2443        22  POPC      H10X          -20.7292182944        6.7159695741        6.8569760673  MEMB      22              0.0000000000
      2444        22  POPC      H10Y          -19.4912618374        5.8389001962        7.8179807334  MEMB      22              0.0000000000
      2445        22  POPC      C311          -18.7557895235        7.6591989210        6.8448692803  MEMB      22              0.0000000000
      2446        22  POPC      H11X          -17.9052423396        7.7374011101        7.5576531771  MEMB      22              0.0000000000
      2447        22  POPC      H11Y          -19.1750977625        8.6661605807        6.6658237135  MEMB      22              0.0000000000
      2448        22  POPC      C312          -18.0993555066        7.1482197255        5.5614869028  MEMB      22              0.0000000000
      2449        22  POPC      H12X          -17.7616028273        6.1080799449        5.6998749316  MEMB      22              0.0000000000
      2450        22  POPC      H12Y          -17.1640992512        7.7253945534        5.4015498532  MEMB      22              0.0000000000
      2451        22  POPC      C313          -18.8987427608        7.3195128729        4.2698522342  MEMB      22              0.0000000000
      2452        22  POPC      H13X          -19.1252047093        8.3877359283        4.0777415634  MEMB      22              0.0000000000
      2453        22  POPC      H13Y          -19.8781701189        6.8147629420        4.3885390598  MEMB      22              0.0000000000
      2454        22  POPC      C314          -18.0788697254        6.7286670584        3.1105712584  MEMB      22              0.0000000000
      2455        22  POPC      H14X          -17.4663739447        5.8994818567        3.5406165427  MEMB      22              0.0000000000
      2456        22  POPC      H14Y          -17.3638454414        7.4864297285        2.7244258990  MEMB      22              0.0000000000
      2457        22  POPC      C315          -18.9012439186        6.1148257846        1.9748346597  MEMB      22              0.0000000000
      2458        22  POPC      H15X          -19.0408956505        6.8613077114        1.1682588818  MEMB      22              0.0000000000
      2459        22  POPC      H15Y          -19.9141581078        5.8686876947        2.3553750949  MEMB      22              0.0000000000
      2460        22  POPC      C316          -18.2822221565        4.8216949629        1.4288677388  MEMB      22              0.0000000000
      2461        22  POPC      H16X          -18.0885631735        4.1025731464        2.2536439787  MEMB      22              0.0000000000
      2462        22  POPC      H16Y          -17.3186806448        5.0275779576        0.9173779750  MEMB      22              0.0000000000
      2463        22  POPC      H16Z          -18.9755206853        4.3314177251        0.7147026385  MEMB      22              0.0000000000
      2464        23  SAPS      N               8.9297100696      -19.9451725354       20.3432104878  MEMB      23              0.0000000000
      2465        23  SAPS      HN1             9.3275864974      -20.8973487656       20.2899019881  MEMB      23              0.0000000000
      2466        23  SAPS      HN2             8.7066254883      -19.5002195854       19.4227625588  MEMB      23              0.0000000000
      2467        23  SAPS      HN3             9.4756382312      -19.3439473537       21.0043577321  MEMB      23              0.0000000000
      2468        23  SAPS      C12             7.6348475383      -19.9174796270       21.0446459335  MEMB      23              0.0000000000
      2469        23  SAPS      H12A            7.0988516159      -20.8407383197       20.8618746241  MEMB      23              0.0000000000
      2470        23  SAPS      C13             7.8977753696      -19.6862503984       22.5454943423  MEMB      23              0.0000000000
      2471        23  SAPS      O13A            9.0073619153      -19.1710426714       22.8881608417  MEMB      23              0.0000000000
      2472        23  SAPS      O13B            7.0608693089      -20.1756774821       23.3400357523  MEMB      23              0.0000000000
      2473        23  SAPS      C11             6.8806592328      -18.6755159139       20.4982894534  MEMB      23              0.0000000000
      2474        23  SAPS      H11A            7.2439106379      -17.7597489220       21.0287634838  MEMB      23              0.0000000000
      2475        23  SAPS      H11B            5.8040045020      -18.8202183180       20.7527514630  MEMB      23              0.0000000000
      2476        23  SAPS      P               6.2807308041      -17.3049790191       18.4000084994  MEMB      23              0.0000000000
      2477        23  SAPS      O13             5.6163267842      -17.8227360607       17.1868404054  MEMB      23              0.0000000000
      2478        23  SAPS      O14             5.4784530434      -16.6681942100       19.4535230205  MEMB      23              0.0000000000
      2479        23  SAPS      O12             7.0607473809      -18.5201852933       19.0808314313  MEMB      23              0.0000000000
      2480        23  SAPS      O11             7.5088193818      -16.3478661033       18.0202841147  MEMB      23              0.0000000000
      2481        23  SAPS      C1              8.8744657938      -16.8039964930       17.9770469705  MEMB      23              0.0000000000
      2482        23  SAPS      HA              9.3483779372      -16.6921332064       18.9777756014  MEMB      23              0.0000000000
      2483        23  SAPS      HB              8.9038116644      -17.8728385587       17.6894848948  MEMB      23              0.0000000000
      2484        23  SAPS      C2              9.7615652863      -16.0410979558       16.9300588943  MEMB      23              0.0000000000
      2485        23  SAPS      HS              9.9488347918      -15.0250809726       17.3506635975  MEMB      23              0.0000000000
      2486        23  SAPS      O21             9.0692602766      -16.0027452152       15.6800924627  MEMB      23              0.0000000000
      2487        23  SAPS      C21             8.3553259487      -14.9112157102       15.5084337117  MEMB      23              0.0000000000
      2488        23  SAPS      O22             8.6132299062      -13.8243352389       16.0120712418  MEMB      23              0.0000000000
      2489        23  SAPS      C22             7.1921958640      -15.1863427352       14.5624750711  MEMB      23              0.0000000000
      2490        23  SAPS      H2R             6.2991688094      -15.3427755953       15.2082482791  MEMB      23              0.0000000000
      2491        23  SAPS      H2S             7.0301861900      -14.2808710728       13.9451342109  MEMB      23              0.0000000000
      2492        23  SAPS      C3             11.1719683279      -16.6527785177       16.6569037732  MEMB      23              0.0000000000
      2493        23  SAPS      HX             11.7069934838      -16.8388613875       17.6132311510  MEMB      23              0.0000000000
      2494        23  SAPS      HY             11.7519270557      -15.8736388190       16.1145022204  MEMB      23              0.0000000000
      2495        23  SAPS      O31            11.0984222288      -17.8034583138       15.7868959659  MEMB      23              0.0000000000
      2496        23  SAPS      C31            10.8437789619      -18.9567604551       16.3690612037  MEMB      23              0.0000000000
      2497        23  SAPS      O32            11.1832706170      -19.2298600057       17.5123406458  MEMB      23              0.0000000000
      2498        23  SAPS      C32            10.0001472476      -19.8455326449       15.4738012709  MEMB      23              0.0000000000
      2499        23  SAPS      H2X            10.4744935850      -20.8475201466       15.4538324612  MEMB      23              0.0000000000
      2500        23  SAPS      H2Y             9.9797998004      -19.4262187047       14.4446959706  MEMB      23              0.0000000000
      2501        23  SAPS      C23             7.3753978388      -16.4218948488       13.6511731969  MEMB      23              0.0000000000
      2502        23  SAPS      H3R             7.6868975926      -17.3117775916       14.2476009128  MEMB      23              0.0000000000
      2503        23  SAPS      H3S             8.1763477688      -16.2038246261       12.9091887843  MEMB      23              0.0000000000
      2504        23  SAPS      C24             6.0620041237      -16.7772988336       12.9387277217  MEMB      23              0.0000000000
      2505        23  SAPS      H4R             5.5654055551      -15.8297068131       12.6339625447  MEMB      23              0.0000000000
      2506        23  SAPS      H4S             5.3908098170      -17.2727087198       13.6803452518  MEMB      23              0.0000000000
      2507        23  SAPS      C25             6.3370175752      -17.6869705455       11.7679885958  MEMB      23              0.0000000000
      2508        23  SAPS      H5R             6.8773007474      -18.6116782822       12.0149961748  MEMB      23              0.0000000000
      2509        23  SAPS      C26             6.0679979955      -17.4457161489       10.4758152745  MEMB      23              0.0000000000
      2510        23  SAPS      H6R             6.3854561383      -18.1810025906        9.7173285853  MEMB      23              0.0000000000
      2511        23  SAPS      C27             5.4323132407      -16.1991878675        9.9290346439  MEMB      23              0.0000000000
      2512        23  SAPS      H7R             4.7749391869      -15.6918985618       10.6670426921  MEMB      23              0.0000000000
      2513        23  SAPS      H7S             4.7771857127      -16.4399434579        9.0639832177  MEMB      23              0.0000000000
      2514        23  SAPS      C28             6.5964424173      -15.3138999532        9.5786980399  MEMB      23              0.0000000000
      2515        23  SAPS      H8R             7.0751061393      -14.8300228048       10.4378247013  MEMB      23              0.0000000000
      2516        23  SAPS      C29             7.0732330500      -15.0729507539        8.3524785569  MEMB      23              0.0000000000
      2517        23  SAPS      H9R             7.9347754206      -14.4056302145        8.2155894447  MEMB      23              0.0000000000
      2518        23  SAPS      C210            6.5172487986      -15.6498708992        7.0921435391  MEMB      23              0.0000000000
      2519        23  SAPS      H10R            5.8479442983      -16.5114248057        7.2755957006  MEMB      23              0.0000000000
      2520        23  SAPS      H10S            7.3405516794      -16.0547048180        6.4609137607  MEMB      23              0.0000000000
      2521        23  SAPS      C211            5.7388556098      -14.5407730482        6.4423251233  MEMB      23              0.0000000000
      2522        23  SAPS      H11R            4.7355965438      -14.3487554328        6.8542050971  MEMB      23              0.0000000000
      2523        23  SAPS      C212            6.1779860506      -13.8244879959        5.4031077668  MEMB      23              0.0000000000
      2524        23  SAPS      H12R            5.4807099830      -13.1302726365        4.9196571550  MEMB      23              0.0000000000
      2525        23  SAPS      C213            7.5146457517      -14.0522034311        4.7519149196  MEMB      23              0.0000000000
      2526        23  SAPS      H13R            7.3618474231      -14.8767617006        4.0227748527  MEMB      23              0.0000000000
      2527        23  SAPS      H13S            8.2600230146      -14.4327158600        5.4845834148  MEMB      23              0.0000000000
      2528        23  SAPS      C214            8.1441905478      -12.8899484251        4.0406105759  MEMB      23              0.0000000000
      2529        23  SAPS      H14R            7.8663164772      -11.8766066473        4.3749070104  MEMB      23              0.0000000000
      2530        23  SAPS      C215            9.0831020467      -13.0564592165        3.0936519542  MEMB      23              0.0000000000
      2531        23  SAPS      H15R            9.4921927743      -12.1713048681        2.5805744099  MEMB      23              0.0000000000
      2532        23  SAPS      C216            9.6173194620      -14.3990161394        2.6344756532  MEMB      23              0.0000000000
      2533        23  SAPS      H16R            9.3120375450      -15.2218033094        3.3194015070  MEMB      23              0.0000000000
      2534        23  SAPS      H16S           10.7267132655      -14.4154226885        2.6570511320  MEMB      23              0.0000000000
      2535        23  SAPS      C217            9.1509730441      -14.7596182090        1.2154562333  MEMB      23              0.0000000000
      2536        23  SAPS      H17R            8.0626340266      -14.5229680466        1.1261169726  MEMB      23              0.0000000000
      2537        23  SAPS      H17S            9.2706406399      -15.8521433617        1.0571123871  MEMB      23              0.0000000000
      2538        23  SAPS      C218            9.9046093174      -14.0114989010        0.1071120792  MEMB      23              0.0000000000
      2539        23  SAPS      H18R           10.1403231515      -12.9762575767        0.4310029590  MEMB      23              0.0000000000
      2540        23  SAPS      H18S            9.2030863003      -13.9270984569       -0.7483986838  MEMB      23              0.0000000000
      2541        23  SAPS      C219           11.1273839103      -14.7200029130       -0.4881951719  MEMB      23              0.0000000000
      2542        23  SAPS      H19R           10.9490686057      -14.7248087842       -1.5942642703  MEMB      23              0.0000000000
      2543        23  SAPS      H19S           11.2113190153      -15.7782289219       -0.1608849516  MEMB      23              0.0000000000
      2544        23  SAPS      C220           12.4544042954      -14.0610567040       -0.1340302109  MEMB      23              0.0000000000
      2545        23  SAPS      H20R           13.0929690039      -13.9721382142       -1.0378326645  MEMB      23              0.0000000000
      2546        23  SAPS      H20S           12.3087875556      -13.0330376704        0.2249351779  MEMB      23              0.0000000000
      2547        23  SAPS      H20T           12.9373734256      -14.6375536119        0.6913971898  MEMB      23              0.0000000000
      2548        23  SAPS      C33             8.5605633193      -19.9764957879       16.0215855443  MEMB      23              0.0000000000
      2549        23  SAPS      H3X             8.0419898546      -18.9887506881       15.9774563413  MEMB      23              0.0000000000
      2550        23  SAPS      H3Y             8.5846060804      -20.2933614774       17.0889815094  MEMB      23              0.0000000000
      2551        23  SAPS      C34             7.7012872462      -20.9913731333       15.2558471626  MEMB      23              0.0000000000
      2552        23  SAPS      H4X             6.7564025758      -21.1281742893       15.8353617872  MEMB      23              0.0000000000
      2553        23  SAPS      H4Y             8.2156545328      -21.9750391005       15.2103993191  MEMB      23              0.0000000000
      2554        23  SAPS      C35             7.3236501337      -20.5301203165       13.8348401687  MEMB      23              0.0000000000
      2555        23  SAPS      H5X             8.2292252478      -20.3987435754       13.2079394750  MEMB      23              0.0000000000
      2556        23  SAPS      H5Y             6.8096872726      -19.5484519268       13.9333186672  MEMB      23              0.0000000000
      2557        23  SAPS      C36             6.3650315379      -21.5229581420       13.1638619996  MEMB      23              0.0000000000
      2558        23  SAPS      H6X             5.5729909835      -21.6887394867       13.9264342294  MEMB      23              0.0000000000
      2559        23  SAPS      H6Y             6.8955885782      -22.4783474501       12.9672991716  MEMB      23              0.0000000000
      2560        23  SAPS      C37             5.6281011573      -21.0803119463       11.8946813597  MEMB      23              0.0000000000
      2561        23  SAPS      H7X             5.3129880247      -20.0260208971       11.9896071154  MEMB      23              0.0000000000
      2562        23  SAPS      H7Y             4.6760901142      -21.6506772016       11.8121045108  MEMB      23              0.0000000000
      2563        23  SAPS      C38             6.3792517669      -21.3447009927       10.5858446998  MEMB      23              0.0000000000
      2564        23  SAPS      H8X             6.6487487762      -22.4230324401       10.5136472658  MEMB      23              0.0000000000
      2565        23  SAPS      H8Y             7.3168750284      -20.7486228924       10.5627076767  MEMB      23              0.0000000000
      2566        23  SAPS      C39             5.4739031538      -20.9695809487        9.4071100677  MEMB      23              0.0000000000
      2567        23  SAPS      H9X             5.1206537441      -19.9346106682        9.6038427804  MEMB      23              0.0000000000
      2568        23  SAPS      H9Y             4.5785721830      -21.6235735466        9.4176737818  MEMB      23              0.0000000000
      2569        23  SAPS      C310            6.1434102765      -21.0352263129        8.0303292793  MEMB      23              0.0000000000
      2570        23  SAPS      H10X            6.4616771560      -22.0805693241        7.8167024907  MEMB      23              0.0000000000
      2571        23  SAPS      H10Y            7.0567279750      -20.3989172461        8.0599286622  MEMB      23              0.0000000000
      2572        23  SAPS      C311            5.2492514545      -20.5372384279        6.8780783434  MEMB      23              0.0000000000
      2573        23  SAPS      H11X            4.5065600967      -21.3130918345        6.6050913235  MEMB      23              0.0000000000
      2574        23  SAPS      H11Y            5.9055358241      -20.3917460268        5.9927281711  MEMB      23              0.0000000000
      2575        23  SAPS      C312            4.4943548549      -19.2315807135        7.1908903300  MEMB      23              0.0000000000
      2576        23  SAPS      H12X            5.2418974681      -18.4746525990        7.5051233721  MEMB      23              0.0000000000
      2577        23  SAPS      H12Y            3.8037505181      -19.3991307618        8.0482190003  MEMB      23              0.0000000000
      2578        23  SAPS      C313            3.6442176647      -18.6686909145        6.0392744289  MEMB      23              0.0000000000
      2579        23  SAPS      H13X            3.2873241174      -17.6519207634        6.3146947524  MEMB      23              0.0000000000
      2580        23  SAPS      H13Y            2.7480732500      -19.3250439909        5.9242529433  MEMB      23              0.0000000000
      2581        23  SAPS      C314            4.3526664433      -18.6074271771        4.6775910105  MEMB      23              0.0000000000
      2582        23  SAPS      H14X            3.6365133195      -18.2095851600        3.9223580961  MEMB      23              0.0000000000
      2583        23  SAPS      H14Y            4.6130049775      -19.6559423457        4.4314152507  MEMB      23              0.0000000000
      2584        23  SAPS      C315            5.6551693432      -17.7974789956        4.6298020693  MEMB      23              0.0000000000
      2585        23  SAPS      H15X            6.4085716919      -18.2995927447        5.2779536450  MEMB      23              0.0000000000
      2586        23  SAPS      H15Y            5.4527047785      -16.8047262278        5.0647913228  MEMB      23              0.0000000000
      2587        23  SAPS      C316            6.2822757410      -17.6203807583        3.2304693032  MEMB      23              0.0000000000
      2588        23  SAPS      H16X            6.4626117123      -18.6268139662        2.7891784105  MEMB      23              0.0000000000
      2589        23  SAPS      H16Y            7.2763744686      -17.1358096760        3.3596588539  MEMB      23              0.0000000000
      2590        23  SAPS      C317            5.4731632610      -16.7741244988        2.2293184277  MEMB      23              0.0000000000
      2591        23  SAPS      H17X            4.5523934424      -17.3272297069        1.9646836762  MEMB      23              0.0000000000
      2592        23  SAPS      H17Y            6.0726538366      -16.6636509355        1.2960507420  MEMB      23              0.0000000000
      2593        23  SAPS      C318            5.0199063495      -15.3901542336        2.6882246710  MEMB      23              0.0000000000
      2594        23  SAPS      H18X            4.8191649813      -15.3667761916        3.7735124384  MEMB      23              0.0000000000
      2595        23  SAPS      H18Y            4.0634765980      -15.1161510778        2.2115105606  MEMB      23              0.0000000000
      2596        23  SAPS      H18Z            5.7662354579      -14.6109092460        2.4332787008  MEMB      23              0.0000000000
      2597        24  OSM       N             -14.3603209013       15.7504796976       22.1282415848  MEMB      24              0.0000000000
      2598        24  OSM       C15           -13.4100940265       16.1635379755       21.0371964925  MEMB      24              0.0000000000
      2599        24  OSM       H15A          -12.4349971554       16.4730929570       21.3937222759  MEMB      24              0.0000000000
      2600        24  OSM       H15B          -13.8367456700       16.8362132451       20.3138772760  MEMB      24              0.0000000000
      2601        24  OSM       H15C          -13.1697482862       15.2429218595       20.4715819327  MEMB      24              0.0000000000
      2602        24  OSM       C14           -13.6204816323       14.7060488396       22.9068321703  MEMB      24              0.0000000000
      2603        24  OSM       H14A          -12.7263684121       15.0785326494       23.3862515369  MEMB      24              0.0000000000
      2604        24  OSM       H14B          -13.3055407049       13.9163404142       22.2227178506  MEMB      24              0.0000000000
      2605        24  OSM       H14C          -14.2366350754       14.2159094262       23.6500286928  MEMB      24              0.0000000000
      2606        24  OSM       C13           -14.7547832726       16.8007268478       23.1121829628  MEMB      24              0.0000000000
      2607        24  OSM       H13A          -15.2889150968       17.6125966808       22.6523767302  MEMB      24              0.0000000000
      2608        24  OSM       H13B          -13.9046246946       17.1709421494       23.6680435814  MEMB      24              0.0000000000
      2609        24  OSM       H13C          -15.4278086790       16.3863085810       23.8745997286  MEMB      24              0.0000000000
      2610        24  OSM       C12           -15.5879639417       15.0933842868       21.5055343775  MEMB      24              0.0000000000
      2611        24  OSM       H12A          -16.3971560417       15.8013869933       21.3770085226  MEMB      24              0.0000000000
      2612        24  OSM       H12B          -15.9741151540       14.3812632691       22.2395284416  MEMB      24              0.0000000000
      2613        24  OSM       C11           -15.3867556990       14.3458648992       20.1657461606  MEMB      24              0.0000000000
      2614        24  OSM       H11A          -15.1511987502       15.0704216863       19.3543085307  MEMB      24              0.0000000000
      2615        24  OSM       H11B          -16.3473204231       13.8639196653       19.8633437163  MEMB      24              0.0000000000
      2616        24  OSM       P             -14.5884693557       11.9492152628       20.7900195176  MEMB      24              0.0000000000
      2617        24  OSM       O13           -13.2964694506       11.3232549451       21.0901776892  MEMB      24              0.0000000000
      2618        24  OSM       O14           -15.5341554222       11.9864977103       21.9256733277  MEMB      24              0.0000000000
      2619        24  OSM       O11           -15.2288387978       11.2307731535       19.5146234951  MEMB      24              0.0000000000
      2620        24  OSM       O12           -14.3193261088       13.4081282986       20.2618104464  MEMB      24              0.0000000000
      2621        24  OSM       C1S           -14.4750137072       11.1740328280       18.2875013256  MEMB      24              0.0000000000
      2622        24  OSM       H1S           -14.4070151955       10.1115875046       17.9557723569  MEMB      24              0.0000000000
      2623        24  OSM       H1T           -13.4209349220       11.5152474365       18.3925661427  MEMB      24              0.0000000000
      2624        24  OSM       NF            -14.8334600781       13.3149531689       17.0065652779  MEMB      24              0.0000000000
      2625        24  OSM       HNF           -15.5903002249       13.9433402363       17.1167766799  MEMB      24              0.0000000000
      2626        24  OSM       C2S           -15.1401430578       11.9035155596       17.0686684135  MEMB      24              0.0000000000
      2627        24  OSM       H2S           -14.7078071323       11.4291350437       16.1554421337  MEMB      24              0.0000000000
      2628        24  OSM       C3S           -16.6746858955       11.7134236389       17.0601245181  MEMB      24              0.0000000000
      2629        24  OSM       H3S           -17.1387150661       12.5143625034       17.6810696408  MEMB      24              0.0000000000
      2630        24  OSM       O3            -17.1064839393       10.5085621550       17.6496854980  MEMB      24              0.0000000000
      2631        24  OSM       HO3           -16.5859176010       10.5492754306       18.4659233126  MEMB      24              0.0000000000
      2632        24  OSM       C4S           -17.1694994055       11.8082118854       15.6507192662  MEMB      24              0.0000000000
      2633        24  OSM       H4S           -16.7355532119       11.0769171237       14.9575421466  MEMB      24              0.0000000000
      2634        24  OSM       C5S           -18.0980372090       12.6718040399       15.2167939723  MEMB      24              0.0000000000
      2635        24  OSM       H5S           -18.5787565180       13.3454587368       15.9466426188  MEMB      24              0.0000000000
      2636        24  OSM       C6S           -18.6200044155       12.8033940899       13.8155430954  MEMB      24              0.0000000000
      2637        24  OSM       H6S           -18.8402388398       13.8820892472       13.6881229348  MEMB      24              0.0000000000
      2638        24  OSM       H6T           -19.5936132164       12.2665030583       13.7480198938  MEMB      24              0.0000000000
      2639        24  OSM       C7S           -17.7917923593       12.4420069304       12.5609644170  MEMB      24              0.0000000000
      2640        24  OSM       H7S           -18.4615558793       11.8642037866       11.8797028962  MEMB      24              0.0000000000
      2641        24  OSM       H7T           -16.9283708579       11.7897531461       12.7972983394  MEMB      24              0.0000000000
      2642        24  OSM       C8S           -17.3414263301       13.6998640350       11.7876706174  MEMB      24              0.0000000000
      2643        24  OSM       H8S           -16.5149305748       14.2078117567       12.3329064737  MEMB      24              0.0000000000
      2644        24  OSM       H8T           -18.1959873732       14.4109186645       11.7231197769  MEMB      24              0.0000000000
      2645        24  OSM       C9S           -16.8966017448       13.3815720129       10.3557790548  MEMB      24              0.0000000000
      2646        24  OSM       H9S           -17.4601198651       12.4950586715        9.9853856746  MEMB      24              0.0000000000
      2647        24  OSM       H9T           -15.8269805078       13.1173931147       10.3911013838  MEMB      24              0.0000000000
      2648        24  OSM       C10S          -17.0716783776       14.5125676566        9.3331427549  MEMB      24              0.0000000000
      2649        24  OSM       H10S          -16.5078019738       15.4166606508        9.6496397981  MEMB      24              0.0000000000
      2650        24  OSM       H10T          -18.1527173746       14.7740951579        9.2917777516  MEMB      24              0.0000000000
      2651        24  OSM       C11S          -16.6061568291       14.0750567586        7.9298416627  MEMB      24              0.0000000000
      2652        24  OSM       H11S          -17.1075923913       14.7031075549        7.1645586345  MEMB      24              0.0000000000
      2653        24  OSM       H11T          -16.9408709794       13.0266209138        7.7831659703  MEMB      24              0.0000000000
      2654        24  OSM       C12S          -15.0798564459       14.1735781491        7.7354034150  MEMB      24              0.0000000000
      2655        24  OSM       H12S          -14.6120282080       13.5720573477        8.5432762731  MEMB      24              0.0000000000
      2656        24  OSM       H12T          -14.7743356049       15.2328370192        7.8598488791  MEMB      24              0.0000000000
      2657        24  OSM       C13S          -14.5384938151       13.6306628007        6.3983909528  MEMB      24              0.0000000000
      2658        24  OSM       H13S          -15.0813218861       14.0451530869        5.5279252712  MEMB      24              0.0000000000
      2659        24  OSM       H13T          -14.7266847477       12.5505467493        6.4180563615  MEMB      24              0.0000000000
      2660        24  OSM       C14S          -13.0225439214       13.7393530123        6.1580691314  MEMB      24              0.0000000000
      2661        24  OSM       H14S          -12.4990809433       13.6945467350        7.1373737789  MEMB      24              0.0000000000
      2662        24  OSM       H14T          -12.7872746741       14.7146129987        5.6849225836  MEMB      24              0.0000000000
      2663        24  OSM       C15S          -12.4770785005       12.5869522554        5.2888626557  MEMB      24              0.0000000000
      2664        24  OSM       H15S          -12.6408053025       11.6311627013        5.8379945385  MEMB      24              0.0000000000
      2665        24  OSM       H15T          -11.3804797663       12.7104190848        5.1518146226  MEMB      24              0.0000000000
      2666        24  OSM       C16S          -13.1279829158       12.4518884178        3.9041218155  MEMB      24              0.0000000000
      2667        24  OSM       H16S          -12.8770050723       13.3352743322        3.2810910750  MEMB      24              0.0000000000
      2668        24  OSM       H16T          -14.2335407215       12.4415625051        4.0088026996  MEMB      24              0.0000000000
      2669        24  OSM       C17S          -12.6980999749       11.1598478496        3.1912603847  MEMB      24              0.0000000000
      2670        24  OSM       H17S          -12.3012306180       10.4478151800        3.9526131982  MEMB      24              0.0000000000
      2671        24  OSM       H17T          -11.8652090785       11.3860268898        2.4888408904  MEMB      24              0.0000000000
      2672        24  OSM       C18S          -13.8416930326       10.4549993024        2.4617898919  MEMB      24              0.0000000000
      2673        24  OSM       H18S          -14.5826290543       10.0720240742        3.1956049903  MEMB      24              0.0000000000
      2674        24  OSM       H18T          -13.4559013039        9.6034579902        1.8619707266  MEMB      24              0.0000000000
      2675        24  OSM       H18U          -14.3756718512       11.1409010536        1.7785853009  MEMB      24              0.0000000000
      2676        24  OSM       C1F           -13.6116667906       13.7738034819       16.7667510029  MEMB      24              0.0000000000
      2677        24  OSM       OF            -12.6055113751       13.1003963459       16.9159659604  MEMB      24              0.0000000000
      2678        24  OSM       C2F           -13.5368757813       15.1706526267       16.2710814636  MEMB      24              0.0000000000
      2679        24  OSM       H2F           -12.9794122726       15.7918934102       17.0057239652  MEMB      24              0.0000000000
      2680        24  OSM       H2G           -14.5539079777       15.5959857882       16.1433891962  MEMB      24              0.0000000000
      2681        24  OSM       C3F           -12.7946708999       15.1754454139       14.9249285999  MEMB      24              0.0000000000
      2682        24  OSM       H3F           -11.8222712497       14.6382185443       15.0122263720  MEMB      24              0.0000000000
      2683        24  OSM       H3G           -12.5629676997       16.2257974858       14.6863831001  MEMB      24              0.0000000000
      2684        24  OSM       C4F           -13.5822559082       14.6412785956       13.7189509573  MEMB      24              0.0000000000
      2685        24  OSM       H4F           -14.5199959570       15.2307350749       13.6134719903  MEMB      24              0.0000000000
      2686        24  OSM       H4G           -13.8596117230       13.5762403821       13.8667826732  MEMB      24              0.0000000000
      2687        24  OSM       C5F           -12.7428660025       14.8161866081       12.4443410734  MEMB      24              0.0000000000
      2688        24  OSM       H5F           -11.9324651626       14.0532496706       12.4289677439  MEMB      24              0.0000000000
      2689        24  OSM       H5G           -12.2584234407       15.8159279126       12.4913452747  MEMB      24              0.0000000000
      2690        24  OSM       C6F           -13.5350881008       14.7627054573       11.1352113648  MEMB      24              0.0000000000
      2691        24  OSM       H6F           -14.4419047013       15.4047771257       11.1993434588  MEMB      24              0.0000000000
      2692        24  OSM       H6G           -13.8802839209       13.7262429886       10.9662767991  MEMB      24              0.0000000000
      2693        24  OSM       C7F           -12.6901808819       15.1953351443        9.9267124417  MEMB      24              0.0000000000
      2694        24  OSM       H7F           -12.9124036727       14.5338255478        9.0703864782  MEMB      24              0.0000000000
      2695        24  OSM       H7G           -11.6114160385       15.0497245172       10.1517042795  MEMB      24              0.0000000000
      2696        24  OSM       C8F           -12.9612313833       16.6564001022        9.5327447633  MEMB      24              0.0000000000
      2697        24  OSM       H8F           -12.5150501652       17.2522239469       10.3495857991  MEMB      24              0.0000000000
      2698        24  OSM       H8G           -14.0570950545       16.8491014824        9.5238156451  MEMB      24              0.0000000000
      2699        24  OSM       C9F           -12.3328599405       17.0413657467        8.2241881271  MEMB      24              0.0000000000
      2700        24  OSM       H9F           -11.3942005955       16.5076621734        8.0196141872  MEMB      24              0.0000000000
      2701        24  OSM       C10F          -12.7795302950       17.9213709173        7.3049440362  MEMB      24              0.0000000000
      2702        24  OSM       H10F          -12.2117009882       18.0285936999        6.3726720683  MEMB      24              0.0000000000
      2703        24  OSM       C11F          -14.0113547001       18.7823376144        7.2834771862  MEMB      24              0.0000000000
      2704        24  OSM       H11F          -13.8521091149       19.5905543062        6.5318155036  MEMB      24              0.0000000000
      2705        24  OSM       H11G          -14.1838607685       19.2854683423        8.2553262106  MEMB      24              0.0000000000
      2706        24  OSM       C12F          -15.2710585608       18.0191978893        6.8469864420  MEMB      24              0.0000000000
      2707        24  OSM       H12F          -16.0443034582       18.7746750335        6.5743851021  MEMB      24              0.0000000000
      2708        24  OSM       H12G          -15.6646452751       17.4142104688        7.6921306149  MEMB      24              0.0000000000
      2709        24  OSM       C13F          -15.0257372549       17.1004283400        5.6446680849  MEMB      24              0.0000000000
      2710        24  OSM       H13F          -14.3826836725       16.2474800435        5.9383275457  MEMB      24              0.0000000000
      2711        24  OSM       H13G          -14.4521532295       17.6832630205        4.8965910319  MEMB      24              0.0000000000
      2712        24  OSM       C14F          -16.3181636247       16.5684637222        5.0243231340  MEMB      24              0.0000000000
      2713        24  OSM       H14F          -17.1637288565       17.1250664047        5.4544385485  MEMB      24              0.0000000000
      2714        24  OSM       H14G          -16.4832654270       15.5012504045        5.2660376132  MEMB      24              0.0000000000
      2715        24  OSM       C15F          -16.4110130919       16.8017126653        3.5257075361  MEMB      24              0.0000000000
      2716        24  OSM       H15F          -17.3528585081       16.3322060194        3.1562451264  MEMB      24              0.0000000000
      2717        24  OSM       H15G          -15.5621837317       16.3062302661        3.0066549479  MEMB      24              0.0000000000
      2718        24  OSM       C16F          -16.4398251071       18.3002665715        3.2020751229  MEMB      24              0.0000000000
      2719        24  OSM       H16F          -15.4979111816       18.7972691108        3.5196654979  MEMB      24              0.0000000000
      2720        24  OSM       H16G          -17.2782617343       18.7799136545        3.7551079786  MEMB      24              0.0000000000
      2721        24  OSM       C17F          -16.6136159649       18.5051619739        1.7071725289  MEMB      24              0.0000000000
      2722        24  OSM       H17F          -17.5537029917       17.9926652728        1.3955333862  MEMB      24              0.0000000000
      2723        24  OSM       H17G          -15.7407195745       18.0114004567        1.2207084511  MEMB      24              0.0000000000
      2724        24  OSM       C18F          -16.6428378834       19.9410111799        1.2330106212  MEMB      24              0.0000000000
      2725        24  OSM       H18F          -17.2387573056       20.0343852307        0.2983434621  MEMB      24              0.0000000000
      2726        24  OSM       H18G          -15.6091021604       20.2769600840        1.0226664560  MEMB      24              0.0000000000
      2727        24  OSM       H18H          -17.0730208974       20.5834735967        2.0232586788  MEMB      24              0.0000000000
      2728        25  SAPE      N              20.8543144176        2.8970302477       18.8437778682  MEMB      25              0.0000000000
      2729        25  SAPE      HN1            20.8119658309        2.2519776430       18.0236340074  MEMB      25              0.0000000000
      2730        25  SAPE      HN2            21.4112092391        3.7487488159       18.6549231968  MEMB      25              0.0000000000
      2731        25  SAPE      HN3            21.3593596262        2.3688382179       19.6134789189  MEMB      25              0.0000000000
      2732        25  SAPE      C12            19.4863664263        3.2119693682       19.4102264433  MEMB      25              0.0000000000
      2733        25  SAPE      H12A           18.8919846947        3.7196127331       18.6237176904  MEMB      25              0.0000000000
      2734        25  SAPE      H12B           19.6258485774        3.9122553259       20.2603214729  MEMB      25              0.0000000000
      2735        25  SAPE      C11            18.7551571063        1.9499066436       19.9295396092  MEMB      25              0.0000000000
      2736        25  SAPE      H11A           18.6266913397        1.1933943104       19.1195426086  MEMB      25              0.0000000000
      2737        25  SAPE      H11B           17.7251189355        2.2765502754       20.2073874822  MEMB      25              0.0000000000
      2738        25  SAPE      P              20.6528125933        0.4990557648       21.0827431890  MEMB      25              0.0000000000
      2739        25  SAPE      O13            21.8037638512        1.3949781881       20.8225404476  MEMB      25              0.0000000000
      2740        25  SAPE      O14            20.6702335218       -0.3966377371       22.2567455962  MEMB      25              0.0000000000
      2741        25  SAPE      O12            19.3626012638        1.3952890139       21.1053748091  MEMB      25              0.0000000000
      2742        25  SAPE      O11            20.3461201189       -0.2825958929       19.7801135958  MEMB      25              0.0000000000
      2743        25  SAPE      C1             21.1944189997       -1.3551834106       19.4275358107  MEMB      25              0.0000000000
      2744        25  SAPE      HA             21.7001990383       -1.8076201567       20.3098587840  MEMB      25              0.0000000000
      2745        25  SAPE      HB             20.5394473912       -2.1292561684       18.9813598844  MEMB      25              0.0000000000
      2746        25  SAPE      C2             22.2826840977       -0.9454753155       18.4051531319  MEMB      25              0.0000000000
      2747        25  SAPE      HS             23.0850981896       -0.4134429406       18.9745271751  MEMB      25              0.0000000000
      2748        25  SAPE      O21            21.7021221407       -0.0586329880       17.4257892283  MEMB      25              0.0000000000
      2749        25  SAPE      C21            22.6357963739        0.4349101289       16.6165127892  MEMB      25              0.0000000000
      2750        25  SAPE      O22            23.8289955589        0.3127109135       16.8001191049  MEMB      25              0.0000000000
      2751        25  SAPE      C22            21.9403440778        1.2151044142       15.5036631304  MEMB      25              0.0000000000
      2752        25  SAPE      H2R            21.8067313542        0.4674700962       14.6890635886  MEMB      25              0.0000000000
      2753        25  SAPE      H2S            20.9474335730        1.5447854470       15.8671694602  MEMB      25              0.0000000000
      2754        25  SAPE      C3             22.8685256826       -2.2331004411       17.7608855692  MEMB      25              0.0000000000
      2755        25  SAPE      HX             23.6683004442       -2.5931518897       18.4479009013  MEMB      25              0.0000000000
      2756        25  SAPE      HY             23.3945453077       -2.0245613827       16.8179772331  MEMB      25              0.0000000000
      2757        25  SAPE      O31            21.8784967766       -3.2780215262       17.6498328736  MEMB      25              0.0000000000
      2758        25  SAPE      C31            21.1546529275       -3.5256121169       16.5731489708  MEMB      25              0.0000000000
      2759        25  SAPE      O32            21.3245239506       -3.0991170378       15.4505816812  MEMB      25              0.0000000000
      2760        25  SAPE      C32            20.0773883607       -4.5199332427       16.9593081862  MEMB      25              0.0000000000
      2761        25  SAPE      H2X            20.0275813864       -4.6379914041       18.0617321772  MEMB      25              0.0000000000
      2762        25  SAPE      H2Y            20.3566091949       -5.4895217173       16.4925988212  MEMB      25              0.0000000000
      2763        25  SAPE      C23            22.6312131620        2.4306078573       14.8460555623  MEMB      25              0.0000000000
      2764        25  SAPE      H3R            23.6493503815        2.1195788520       14.5324752757  MEMB      25              0.0000000000
      2765        25  SAPE      H3S            22.6987359896        3.2794780073       15.5566367488  MEMB      25              0.0000000000
      2766        25  SAPE      C24            21.8582378677        2.8205259205       13.5645053578  MEMB      25              0.0000000000
      2767        25  SAPE      H4R            20.8116590621        2.4832904996       13.7036962299  MEMB      25              0.0000000000
      2768        25  SAPE      H4S            22.2441916065        2.1812180182       12.7514381749  MEMB      25              0.0000000000
      2769        25  SAPE      C25            21.8401658700        4.2700102223       13.1491265527  MEMB      25              0.0000000000
      2770        25  SAPE      H5R            21.4740699942        4.9671081407       13.9171235373  MEMB      25              0.0000000000
      2771        25  SAPE      C26            22.0715279293        4.7411910720       11.9062737974  MEMB      25              0.0000000000
      2772        25  SAPE      H6R            21.9915067030        5.8267468847       11.7276788921  MEMB      25              0.0000000000
      2773        25  SAPE      C27            22.3943388830        3.9156355994       10.6834571943  MEMB      25              0.0000000000
      2774        25  SAPE      H7R            21.9288481388        4.4001771735        9.7965893304  MEMB      25              0.0000000000
      2775        25  SAPE      H7S            21.8901442655        2.9265176825       10.7580410062  MEMB      25              0.0000000000
      2776        25  SAPE      C28            23.8735840496        3.7485805849       10.4298984343  MEMB      25              0.0000000000
      2777        25  SAPE      H8R            24.4626275871        4.6785111052       10.4707988410  MEMB      25              0.0000000000
      2778        25  SAPE      C29            24.5109873206        2.5879302501       10.1701365495  MEMB      25              0.0000000000
      2779        25  SAPE      H9R            25.6012085981        2.5954720819       10.0151426501  MEMB      25              0.0000000000
      2780        25  SAPE      C210           23.8911151745        1.2158130602       10.0782485188  MEMB      25              0.0000000000
      2781        25  SAPE      H10R           24.5304976579        0.5728742237        9.4407774595  MEMB      25              0.0000000000
      2782        25  SAPE      H10S           22.9074193701        1.2681776824        9.5583068816  MEMB      25              0.0000000000
      2783        25  SAPE      C211           23.7499515394        0.5788696884       11.4367523117  MEMB      25              0.0000000000
      2784        25  SAPE      H11R           24.4745292914        0.9022923597       12.2014798939  MEMB      25              0.0000000000
      2785        25  SAPE      C212           22.8043421816       -0.3116602738       11.7781682793  MEMB      25              0.0000000000
      2786        25  SAPE      H12R           22.6988436550       -0.6004557526       12.8321495722  MEMB      25              0.0000000000
      2787        25  SAPE      C213           21.7297753570       -0.8298658288       10.8719137273  MEMB      25              0.0000000000
      2788        25  SAPE      H13R           22.0232542517       -0.6895917642        9.8116171755  MEMB      25              0.0000000000
      2789        25  SAPE      H13S           20.8482130636       -0.1712198241       10.9946321614  MEMB      25              0.0000000000
      2790        25  SAPE      C214           21.3352066735       -2.2658209295       11.1505651573  MEMB      25              0.0000000000
      2791        25  SAPE      H14R           20.9265602412       -2.4761676078       12.1550133955  MEMB      25              0.0000000000
      2792        25  SAPE      C215           21.4703525226       -3.2766947569       10.2767224859  MEMB      25              0.0000000000
      2793        25  SAPE      H15R           21.1283472154       -4.2845582422       10.5564882816  MEMB      25              0.0000000000
      2794        25  SAPE      C216           22.0459660529       -3.1128464949        8.8967872243  MEMB      25              0.0000000000
      2795        25  SAPE      H16R           22.3782272097       -4.0907315344        8.4862685996  MEMB      25              0.0000000000
      2796        25  SAPE      H16S           22.9638756116       -2.4855198814        8.9699206494  MEMB      25              0.0000000000
      2797        25  SAPE      C217           21.1393649608       -2.4378732426        7.8593295188  MEMB      25              0.0000000000
      2798        25  SAPE      H17R           20.4424888940       -1.7133580130        8.3332682501  MEMB      25              0.0000000000
      2799        25  SAPE      H17S           20.5373726788       -3.2232437383        7.3494198854  MEMB      25              0.0000000000
      2800        25  SAPE      C218           21.9819729768       -1.6734107836        6.8329478493  MEMB      25              0.0000000000
      2801        25  SAPE      H18R           22.6955301841       -2.3947674259        6.3869504041  MEMB      25              0.0000000000
      2802        25  SAPE      H18S           22.5844157221       -0.8999507343        7.3672755212  MEMB      25              0.0000000000
      2803        25  SAPE      C219           21.1645992097       -0.9635210907        5.7469352612  MEMB      25              0.0000000000
      2804        25  SAPE      H19R           21.7735718075       -0.8545471637        4.8271392486  MEMB      25              0.0000000000
      2805        25  SAPE      H19S           21.0311070857        0.0766569232        6.0824627851  MEMB      25              0.0000000000
      2806        25  SAPE      C220           19.8053943976       -1.5933488370        5.3962014811  MEMB      25              0.0000000000
      2807        25  SAPE      H20R           19.9304865970       -2.6116239611        4.9834814984  MEMB      25              0.0000000000
      2808        25  SAPE      H20S           19.2721860185       -0.9777605347        4.6414286690  MEMB      25              0.0000000000
      2809        25  SAPE      H20T           19.1489855801       -1.6756763647        6.2856730755  MEMB      25              0.0000000000
      2810        25  SAPE      C33            18.7096506988       -4.0600911255       16.4349453947  MEMB      25              0.0000000000
      2811        25  SAPE      H3X            17.9890749328       -4.8753659332       16.6788052332  MEMB      25              0.0000000000
      2812        25  SAPE      H3Y            18.7187156380       -4.0051205877       15.3272683532  MEMB      25              0.0000000000
      2813        25  SAPE      C34            18.1905922664       -2.7492588127       17.0752566760  MEMB      25              0.0000000000
      2814        25  SAPE      H4X            18.2606956436       -2.8089102685       18.1816343166  MEMB      25              0.0000000000
      2815        25  SAPE      H4Y            17.1024834888       -2.6953312294       16.8305204917  MEMB      25              0.0000000000
      2816        25  SAPE      C35            18.7880084246       -1.4374834978       16.5347268064  MEMB      25              0.0000000000
      2817        25  SAPE      H5X            19.8863009274       -1.3983916100       16.6469009389  MEMB      25              0.0000000000
      2818        25  SAPE      H5Y            18.3760836231       -0.5973781675       17.1382230508  MEMB      25              0.0000000000
      2819        25  SAPE      C36            18.3979714955       -1.2324383776       15.0634642096  MEMB      25              0.0000000000
      2820        25  SAPE      H6X            17.4457964161       -0.6539194824       15.0816057720  MEMB      25              0.0000000000
      2821        25  SAPE      H6Y            18.2667674146       -2.2146424879       14.5613156137  MEMB      25              0.0000000000
      2822        25  SAPE      C37            19.3703918863       -0.5169139744       14.1526380022  MEMB      25              0.0000000000
      2823        25  SAPE      H7X            20.1913544155       -1.1897339561       13.8231952527  MEMB      25              0.0000000000
      2824        25  SAPE      H7Y            19.7919889936        0.2610205464       14.8111209395  MEMB      25              0.0000000000
      2825        25  SAPE      C38            18.7178333997        0.2535139056       12.9958589742  MEMB      25              0.0000000000
      2826        25  SAPE      H8X            19.5217241276        0.9527900949       12.6670530760  MEMB      25              0.0000000000
      2827        25  SAPE      H8Y            17.8677654875        0.8494802274       13.3960197571  MEMB      25              0.0000000000
      2828        25  SAPE      C39            18.2422041870       -0.4654672373       11.7187461314  MEMB      25              0.0000000000
      2829        25  SAPE      H9X            17.4114790280       -1.1675302822       11.8830027289  MEMB      25              0.0000000000
      2830        25  SAPE      H9Y            19.0616455162       -1.0849021059       11.3184696026  MEMB      25              0.0000000000
      2831        25  SAPE      C310           17.8380168340        0.6020611139       10.6854596707  MEMB      25              0.0000000000
      2832        25  SAPE      H10X           18.5464141021        1.4510021535       10.8292337774  MEMB      25              0.0000000000
      2833        25  SAPE      H10Y           16.8139135607        0.9850721731       10.8831425248  MEMB      25              0.0000000000
      2834        25  SAPE      C311           18.0004209390        0.2042790548        9.2207055594  MEMB      25              0.0000000000
      2835        25  SAPE      H11X           17.1983412009       -0.4885442642        8.8897977622  MEMB      25              0.0000000000
      2836        25  SAPE      H11Y           18.9661862978       -0.3440927828        9.1381104474  MEMB      25              0.0000000000
      2837        25  SAPE      C312           18.0828809466        1.4377228357        8.3027848226  MEMB      25              0.0000000000
      2838        25  SAPE      H12X           18.6317442462        2.2479351108        8.8363173314  MEMB      25              0.0000000000
      2839        25  SAPE      H12Y           17.0679036274        1.8211657651        8.0700900757  MEMB      25              0.0000000000
      2840        25  SAPE      C313           18.8972255526        1.1331223171        7.0382530093  MEMB      25              0.0000000000
      2841        25  SAPE      H13X           18.3514333499        0.3761903128        6.4395890379  MEMB      25              0.0000000000
      2842        25  SAPE      H13Y           19.8448891476        0.7008413624        7.4248795437  MEMB      25              0.0000000000
      2843        25  SAPE      C314           19.2285954920        2.3628178369        6.1778746781  MEMB      25              0.0000000000
      2844        25  SAPE      H14X           19.7605558980        3.0910975109        6.8212588997  MEMB      25              0.0000000000
      2845        25  SAPE      H14Y           18.2584001347        2.7900533544        5.8726754907  MEMB      25              0.0000000000
      2846        25  SAPE      C315           20.0002636091        2.1881886722        4.8522231400  MEMB      25              0.0000000000
      2847        25  SAPE      H15X           19.4841565605        2.8057846585        4.0776131884  MEMB      25              0.0000000000
      2848        25  SAPE      H15Y           19.9411604202        1.1425546132        4.4958556252  MEMB      25              0.0000000000
      2849        25  SAPE      C316           21.4598398821        2.6770942742        4.9121467695  MEMB      25              0.0000000000
      2850        25  SAPE      H16X           21.9467089758        2.2877192713        5.8317974342  MEMB      25              0.0000000000
      2851        25  SAPE      H16Y           21.4584578816        3.7894172719        4.9711598053  MEMB      25              0.0000000000
      2852        25  SAPE      C317           22.2918435565        2.2365453797        3.6993092558  MEMB      25              0.0000000000
      2853        25  SAPE      H17X           21.7190657353        2.4525480021        2.7699948239  MEMB      25              0.0000000000
      2854        25  SAPE      H17Y           22.4234074086        1.1316794473        3.7473263192  MEMB      25              0.0000000000
      2855        25  SAPE      C318           23.6702012437        2.9002464337        3.6121177055  MEMB      25              0.0000000000
      2856        25  SAPE      H18X           24.1738229206        2.6340343707        2.6568397304  MEMB      25              0.0000000000
      2857        25  SAPE      H18Y           24.3129542117        2.5651152808        4.4533204449  MEMB      25              0.0000000000
      2858        25  SAPE      H18Z           23.5751082363        4.0063396958        3.6557635946  MEMB      25              0.0000000000
      2859        26  SOPE      N               0.1131441391       19.5881343759       23.1627222388  MEMB      26              0.0000000000
      2860        26  SOPE      HN1             0.6696460563       20.4692488445       23.0608454026  MEMB      26              0.0000000000
      2861        26  SOPE      HN2             0.5943582542       18.9331846201       23.8175063529  MEMB      26              0.0000000000
      2862        26  SOPE      HN3            -0.0540599560       19.1648522037       22.2028201263  MEMB      26              0.0000000000
      2863        26  SOPE      C12            -1.2428437508       20.0034808037       23.6648052338  MEMB      26              0.0000000000
      2864        26  SOPE      H12A           -1.1342359578       21.0067695764       24.1250378896  MEMB      26              0.0000000000
      2865        26  SOPE      H12B           -1.5506235802       19.2770710835       24.4402604406  MEMB      26              0.0000000000
      2866        26  SOPE      C11            -2.2852020017       20.0494649640       22.5231192681  MEMB      26              0.0000000000
      2867        26  SOPE      H11A           -3.1854683820       20.6009966422       22.8821641684  MEMB      26              0.0000000000
      2868        26  SOPE      H11B           -2.6267755375       19.0048855910       22.3054074765  MEMB      26              0.0000000000
      2869        26  SOPE      P              -1.3241443883       19.8938350657       20.0968868355  MEMB      26              0.0000000000
      2870        26  SOPE      O13            -0.6572800611       18.6866962210       20.6390349390  MEMB      26              0.0000000000
      2871        26  SOPE      O14            -0.5556455499       20.8330464064       19.2571616293  MEMB      26              0.0000000000
      2872        26  SOPE      O12            -1.7738622274       20.7235338888       21.3633246179  MEMB      26              0.0000000000
      2873        26  SOPE      O11            -2.7500127339       19.5265250783       19.5231250843  MEMB      26              0.0000000000
      2874        26  SOPE      C1             -3.6327412923       20.5497399996       19.0415029510  MEMB      26              0.0000000000
      2875        26  SOPE      HA             -3.3115723888       21.5731602694       19.3352624131  MEMB      26              0.0000000000
      2876        26  SOPE      HB             -4.6520013634       20.4181867898       19.4668702444  MEMB      26              0.0000000000
      2877        26  SOPE      C2             -3.6953127730       20.5135353855       17.4991928776  MEMB      26              0.0000000000
      2878        26  SOPE      HS             -4.3733491732       19.6851276475       17.1967252176  MEMB      26              0.0000000000
      2879        26  SOPE      O21            -2.3775449790       20.3441837663       17.0005231715  MEMB      26              0.0000000000
      2880        26  SOPE      C21            -2.0722194274       19.2651266320       16.3418907901  MEMB      26              0.0000000000
      2881        26  SOPE      O22            -2.8111450420       18.3169819099       16.1070560697  MEMB      26              0.0000000000
      2882        26  SOPE      C22            -0.6562336020       19.4693684511       15.8034976009  MEMB      26              0.0000000000
      2883        26  SOPE      H2R            -0.0116061546       19.7104970735       16.6783251603  MEMB      26              0.0000000000
      2884        26  SOPE      H2S            -0.6397970583       20.3567415695       15.1403352642  MEMB      26              0.0000000000
      2885        26  SOPE      C3             -4.2363577629       21.8229124701       16.8874060997  MEMB      26              0.0000000000
      2886        26  SOPE      HX             -3.5512246339       22.6745684300       17.1181660293  MEMB      26              0.0000000000
      2887        26  SOPE      HY             -5.1991983359       22.0485093815       17.3944728598  MEMB      26              0.0000000000
      2888        26  SOPE      O31            -4.4513795337       21.6308605876       15.4673023871  MEMB      26              0.0000000000
      2889        26  SOPE      C31            -3.3508299640       21.7933017749       14.7285385766  MEMB      26              0.0000000000
      2890        26  SOPE      O32            -2.3148090676       22.3016562967       15.1080730383  MEMB      26              0.0000000000
      2891        26  SOPE      C32            -3.6197183627       21.2390663920       13.3176571932  MEMB      26              0.0000000000
      2892        26  SOPE      H2X            -4.2745196045       21.9475561339       12.7794281780  MEMB      26              0.0000000000
      2893        26  SOPE      H2Y            -4.1639295673       20.2804576688       13.4533222598  MEMB      26              0.0000000000
      2894        26  SOPE      C23            -0.1054056536       18.2345306328       15.0690900488  MEMB      26              0.0000000000
      2895        26  SOPE      H3R            -0.2228975153       17.3548747037       15.7419221824  MEMB      26              0.0000000000
      2896        26  SOPE      H3S             0.9871423045       18.3961534832       14.9186200454  MEMB      26              0.0000000000
      2897        26  SOPE      C24            -0.7612569074       17.9261037041       13.7115634535  MEMB      26              0.0000000000
      2898        26  SOPE      H4R            -0.9147248552       16.8292843131       13.6479766825  MEMB      26              0.0000000000
      2899        26  SOPE      H4S            -1.7860791335       18.3448191729       13.6698520206  MEMB      26              0.0000000000
      2900        26  SOPE      C25             0.0640939363       18.3937787870       12.4975897737  MEMB      26              0.0000000000
      2901        26  SOPE      H5R             0.1898235156       19.4977248234       12.5404355713  MEMB      26              0.0000000000
      2902        26  SOPE      H5S             1.0879364840       17.9651743584       12.5323612124  MEMB      26              0.0000000000
      2903        26  SOPE      C26            -0.5662309183       18.0038594039       11.1520936124  MEMB      26              0.0000000000
      2904        26  SOPE      H6R            -0.6127303430       16.8955257852       11.0696478346  MEMB      26              0.0000000000
      2905        26  SOPE      H6S            -1.6068789127       18.3878202625       11.1231153106  MEMB      26              0.0000000000
      2906        26  SOPE      C27             0.2291257023       18.5634177319        9.9607753966  MEMB      26              0.0000000000
      2907        26  SOPE      H7R             0.3954401606       19.6475873730       10.1246809713  MEMB      26              0.0000000000
      2908        26  SOPE      H7S             1.2398896723       18.0934134981        9.9551975204  MEMB      26              0.0000000000
      2909        26  SOPE      C28            -0.4182606292       18.3178195725        8.5773454999  MEMB      26              0.0000000000
      2910        26  SOPE      H8R             0.2931503941       18.7124379197        7.8151981466  MEMB      26              0.0000000000
      2911        26  SOPE      H8S            -0.4766850487       17.2159472538        8.4328114160  MEMB      26              0.0000000000
      2912        26  SOPE      C29            -1.7905688058       18.9097573047        8.3528912224  MEMB      26              0.0000000000
      2913        26  SOPE      H91            -2.3250349352       19.2344686682        9.2595056118  MEMB      26              0.0000000000
      2914        26  SOPE      C210           -2.3681511631       19.1021821153        7.1484806406  MEMB      26              0.0000000000
      2915        26  SOPE      H101           -3.3857614257       19.5216248097        7.1058829845  MEMB      26              0.0000000000
      2916        26  SOPE      C211           -1.7594015153       18.7666760086        5.8065164670  MEMB      26              0.0000000000
      2917        26  SOPE      H11R           -0.7268591371       18.3882144727        5.9326000284  MEMB      26              0.0000000000
      2918        26  SOPE      H11S           -1.6846690248       19.6919226073        5.1964048458  MEMB      26              0.0000000000
      2919        26  SOPE      C212           -2.5374225941       17.7043286817        5.0022751007  MEMB      26              0.0000000000
      2920        26  SOPE      H12R           -3.6029368549       18.0019148871        4.9030226472  MEMB      26              0.0000000000
      2921        26  SOPE      H12S           -2.5015525224       16.7436747524        5.5618339150  MEMB      26              0.0000000000
      2922        26  SOPE      C213           -1.9733368893       17.4076354854        3.6054323269  MEMB      26              0.0000000000
      2923        26  SOPE      H13R           -2.4852759591       16.5189420669        3.1736702051  MEMB      26              0.0000000000
      2924        26  SOPE      H13S           -0.9093201950       17.1284761749        3.7027749338  MEMB      26              0.0000000000
      2925        26  SOPE      C214           -2.1288795596       18.5608704051        2.6125696956  MEMB      26              0.0000000000
      2926        26  SOPE      H14R           -1.6178095599       18.2507126500        1.6739040030  MEMB      26              0.0000000000
      2927        26  SOPE      H14S           -1.6098332919       19.4649772604        2.9981114279  MEMB      26              0.0000000000
      2928        26  SOPE      C215           -3.6026213687       18.8874292311        2.3252374322  MEMB      26              0.0000000000
      2929        26  SOPE      H15R           -4.0223544795       19.4470118715        3.1914953220  MEMB      26              0.0000000000
      2930        26  SOPE      H15S           -4.1630747877       17.9281548211        2.2505792880  MEMB      26              0.0000000000
      2931        26  SOPE      C216           -3.8415272374       19.7008293755        1.0434098846  MEMB      26              0.0000000000
      2932        26  SOPE      H16R           -3.3685022605       20.7019860844        1.1589336089  MEMB      26              0.0000000000
      2933        26  SOPE      H16S           -4.9372548982       19.8623397108        0.9296288723  MEMB      26              0.0000000000
      2934        26  SOPE      C217           -3.3048459185       19.0478037367       -0.2414089802  MEMB      26              0.0000000000
      2935        26  SOPE      H17R           -2.1979308002       19.0561917660       -0.2081579366  MEMB      26              0.0000000000
      2936        26  SOPE      H17S           -3.6083237645       19.6710827938       -1.1137810367  MEMB      26              0.0000000000
      2937        26  SOPE      C218           -3.7388098131       17.6058914573       -0.4770927287  MEMB      26              0.0000000000
      2938        26  SOPE      H18R           -3.3634564689       17.2415770871       -1.4569056993  MEMB      26              0.0000000000
      2939        26  SOPE      H18S           -4.8445932709       17.5592882259       -0.4753563821  MEMB      26              0.0000000000
      2940        26  SOPE      H18T           -3.3506839102       16.9313925105        0.3159944461  MEMB      26              0.0000000000
      2941        26  SOPE      C33            -2.3411861926       20.9294295107       12.4950680111  MEMB      26              0.0000000000
      2942        26  SOPE      H3X            -2.6044051107       20.3612039478       11.5747788197  MEMB      26              0.0000000000
      2943        26  SOPE      H3Y            -1.7130317865       20.2724246836       13.1233639357  MEMB      26              0.0000000000
      2944        26  SOPE      C34            -1.4471194589       22.1214262449       12.1365301288  MEMB      26              0.0000000000
      2945        26  SOPE      H4X            -0.3886897645       21.8612580477       12.3648678176  MEMB      26              0.0000000000
      2946        26  SOPE      H4Y            -1.7058046874       22.9760503410       12.8005375355  MEMB      26              0.0000000000
      2947        26  SOPE      C35            -1.5287454717       22.5924848618       10.6825715857  MEMB      26              0.0000000000
      2948        26  SOPE      H5X            -1.4332853760       23.6999525851       10.7667922334  MEMB      26              0.0000000000
      2949        26  SOPE      H5Y            -2.4981038747       22.3411211723       10.2017693805  MEMB      26              0.0000000000
      2950        26  SOPE      C36            -0.3598132686       22.2280218880        9.7745948507  MEMB      26              0.0000000000
      2951        26  SOPE      H6X            -0.5305781115       21.2645601078        9.2532253954  MEMB      26              0.0000000000
      2952        26  SOPE      H6Y             0.5606416482       22.1330835709       10.3953620162  MEMB      26              0.0000000000
      2953        26  SOPE      C37            -0.1205727094       23.3266624039        8.7345369442  MEMB      26              0.0000000000
      2954        26  SOPE      H7X            -0.3023126517       24.3311282295        9.1807292893  MEMB      26              0.0000000000
      2955        26  SOPE      H7Y            -0.8322361420       23.2103317562        7.8882264300  MEMB      26              0.0000000000
      2956        26  SOPE      C38             1.3276105358       23.3140062534        8.2631388494  MEMB      26              0.0000000000
      2957        26  SOPE      H8X             1.5564969856       22.3516255011        7.7551677673  MEMB      26              0.0000000000
      2958        26  SOPE      H8Y             1.9795487600       23.3674408993        9.1616938062  MEMB      26              0.0000000000
      2959        26  SOPE      C39             1.6634715136       24.5033706231        7.3657615269  MEMB      26              0.0000000000
      2960        26  SOPE      H9X             2.7192066342       24.3801784730        7.0403948605  MEMB      26              0.0000000000
      2961        26  SOPE      H9Y             1.5793943832       25.4529940054        7.9435155151  MEMB      26              0.0000000000
      2962        26  SOPE      C310            0.8157574260       24.6145050700        6.1011389411  MEMB      26              0.0000000000
      2963        26  SOPE      H10X            1.3447413091       25.3121705443        5.4177763562  MEMB      26              0.0000000000
      2964        26  SOPE      H10Y           -0.1888814274       25.0375587082        6.3163444553  MEMB      26              0.0000000000
      2965        26  SOPE      C311            0.7106292717       23.3031063076        5.3410036691  MEMB      26              0.0000000000
      2966        26  SOPE      H11X           -0.1325297582       22.6898032264        5.7270963866  MEMB      26              0.0000000000
      2967        26  SOPE      H11Y            1.6555650446       22.7342871242        5.5051425733  MEMB      26              0.0000000000
      2968        26  SOPE      C312            0.5724057190       23.5715603754        3.8473397625  MEMB      26              0.0000000000
      2969        26  SOPE      H12X            1.4813923319       24.1151460289        3.5002752471  MEMB      26              0.0000000000
      2970        26  SOPE      H12Y           -0.2993346314       24.2441958294        3.6729970506  MEMB      26              0.0000000000
      2971        26  SOPE      C313            0.4110658292       22.2976426529        3.0197774653  MEMB      26              0.0000000000
      2972        26  SOPE      H13X            0.6139702387       22.5717666259        1.9634085652  MEMB      26              0.0000000000
      2973        26  SOPE      H13Y           -0.6555900353       21.9764913870        3.0848841368  MEMB      26              0.0000000000
      2974        26  SOPE      C314            1.2663567750       21.0892752710        3.4572641627  MEMB      26              0.0000000000
      2975        26  SOPE      H14X            0.9455866040       20.1929624054        2.8863403928  MEMB      26              0.0000000000
      2976        26  SOPE      H14Y            1.0296039527       20.8667272159        4.5222682315  MEMB      26              0.0000000000
      2977        26  SOPE      C315            2.7930091498       21.2371997930        3.3176485340  MEMB      26              0.0000000000
      2978        26  SOPE      H15X            3.2522565249       20.5826356697        4.0886797074  MEMB      26              0.0000000000
      2979        26  SOPE      H15Y            3.1100072871       22.2728024687        3.5502111788  MEMB      26              0.0000000000
      2980        26  SOPE      C316            3.3435374124       20.7789685521        1.9557573502  MEMB      26              0.0000000000
      2981        26  SOPE      H16X            4.3377603029       20.2996855033        2.1044878966  MEMB      26              0.0000000000
      2982        26  SOPE      H16Y            2.6686496905       20.0047498127        1.5293369724  MEMB      26              0.0000000000
      2983        26  SOPE      C317            3.4881187625       21.9484389671        0.9759171305  MEMB      26              0.0000000000
      2984        26  SOPE      H17X            4.4635002114       22.4527852669        1.1585666435  MEMB      26              0.0000000000
      2985        26  SOPE      H17Y            2.6794251909       22.6742014976        1.2123478626  MEMB      26              0.0000000000
      2986        26  SOPE      C318            3.3724251565       21.5917484179       -0.5042284432  MEMB      26              0.0000000000
      2987        26  SOPE      H18X            3.1312501515       22.4826412603       -1.1156960599  MEMB      26              0.0000000000
      2988        26  SOPE      H18Y            4.3214101406       21.1540761650       -0.8723769885  MEMB      26              0.0000000000
      2989        26  SOPE      H18Z            2.5572651594       20.8590989504       -0.6718414526  MEMB      26              0.0000000000
      2990        27  OSM       N             -10.4442072211      -16.6228334130       22.6979876222  MEMB      27              0.0000000000
      2991        27  OSM       C15            -9.0929631833      -17.2425152409       22.5269491314  MEMB      27              0.0000000000
      2992        27  OSM       H15A           -8.3050943980      -16.5609088868       22.8216232280  MEMB      27              0.0000000000
      2993        27  OSM       H15B           -8.9420906554      -17.5010139506       21.4755245412  MEMB      27              0.0000000000
      2994        27  OSM       H15C           -8.9898711820      -18.1551015706       23.0949484779  MEMB      27              0.0000000000
      2995        27  OSM       C14           -10.6951805408      -16.4253562138       24.1647150822  MEMB      27              0.0000000000
      2996        27  OSM       H14A           -9.8748678557      -15.8269008092       24.5714680259  MEMB      27              0.0000000000
      2997        27  OSM       H14B          -10.6914532347      -17.3588255319       24.7270662404  MEMB      27              0.0000000000
      2998        27  OSM       H14C          -11.6246377691      -15.9042174374       24.3701675144  MEMB      27              0.0000000000
      2999        27  OSM       C13           -10.3778237878      -15.2913920217       22.0240560163  MEMB      27              0.0000000000
      3000        27  OSM       H13A          -11.3470750991      -14.8114704096       22.0196209790  MEMB      27              0.0000000000
      3001        27  OSM       H13B          -10.0411485335      -15.4483908655       21.0027933048  MEMB      27              0.0000000000
      3002        27  OSM       H13C           -9.6657884818      -14.6610527312       22.5466224505  MEMB      27              0.0000000000
      3003        27  OSM       C12           -11.5004524282      -17.4791691081       22.0292462465  MEMB      27              0.0000000000
      3004        27  OSM       H12A          -12.4743930023      -17.1189969408       22.3216833234  MEMB      27              0.0000000000
      3005        27  OSM       H12B          -11.3947196833      -18.5020310335       22.3858734924  MEMB      27              0.0000000000
      3006        27  OSM       C11           -11.5044564221      -17.5523731413       20.4719476992  MEMB      27              0.0000000000
      3007        27  OSM       H11A          -11.7339111982      -16.5483340311       20.0515914217  MEMB      27              0.0000000000
      3008        27  OSM       H11B          -12.3623031507      -18.1986991101       20.1606534229  MEMB      27              0.0000000000
      3009        27  OSM       P              -9.9558272151      -19.5887634855       20.0649356809  MEMB      27              0.0000000000
      3010        27  OSM       O13            -8.5227655323      -19.7400697168       20.3949049890  MEMB      27              0.0000000000
      3011        27  OSM       O14           -10.9322617405      -20.1527435279       21.0383830514  MEMB      27              0.0000000000
      3012        27  OSM       O11           -10.2653874531      -20.1291223329       18.6089348373  MEMB      27              0.0000000000
      3013        27  OSM       O12           -10.2631846389      -18.0302970628       19.9345782803  MEMB      27              0.0000000000
      3014        27  OSM       C1S            -9.1720488449      -20.4345681914       17.7313947878  MEMB      27              0.0000000000
      3015        27  OSM       H1S            -8.7627182156      -21.4384007163       17.9871482369  MEMB      27              0.0000000000
      3016        27  OSM       H1T            -8.3133083063      -19.7185738946       17.8165125728  MEMB      27              0.0000000000
      3017        27  OSM       NF             -8.6500619849      -21.2808579909       15.5382737442  MEMB      27              0.0000000000
      3018        27  OSM       HNF            -7.7999581834      -20.8484707213       15.2699150665  MEMB      27              0.0000000000
      3019        27  OSM       C2S            -9.6219581756      -20.4345725326       16.2367599916  MEMB      27              0.0000000000
      3020        27  OSM       H2S           -10.6334545341      -20.8838562770       16.1587293762  MEMB      27              0.0000000000
      3021        27  OSM       C3S            -9.6853199592      -18.9052487058       15.7909893671  MEMB      27              0.0000000000
      3022        27  OSM       H3S            -8.7105470580      -18.4125384006       15.9769068152  MEMB      27              0.0000000000
      3023        27  OSM       O3            -10.6651067013      -18.1990843146       16.5532831284  MEMB      27              0.0000000000
      3024        27  OSM       HO3           -10.8238919257      -18.7645717720       17.3267635578  MEMB      27              0.0000000000
      3025        27  OSM       C4S           -10.0836572317      -18.6566431736       14.3234519804  MEMB      27              0.0000000000
      3026        27  OSM       H4S           -10.7179255427      -19.4305987628       13.8720017200  MEMB      27              0.0000000000
      3027        27  OSM       C5S            -9.7668672493      -17.5111732027       13.6280165700  MEMB      27              0.0000000000
      3028        27  OSM       H5S            -9.1975902165      -16.7420895696       14.1771920158  MEMB      27              0.0000000000
      3029        27  OSM       C6S           -10.0687870209      -17.0685552105       12.1900945940  MEMB      27              0.0000000000
      3030        27  OSM       H6S            -9.2054398930      -16.4940532885       11.7800059410  MEMB      27              0.0000000000
      3031        27  OSM       H6T           -10.9363992386      -16.3679659842       12.1630640432  MEMB      27              0.0000000000
      3032        27  OSM       C7S           -10.3311226958      -18.2336357766       11.2255461716  MEMB      27              0.0000000000
      3033        27  OSM       H7S           -11.2055730328      -18.7938540818       11.5899403662  MEMB      27              0.0000000000
      3034        27  OSM       H7T            -9.4428393284      -18.8706524237       11.2786552924  MEMB      27              0.0000000000
      3035        27  OSM       C8S           -10.4226197833      -18.0501737350        9.7015332404  MEMB      27              0.0000000000
      3036        27  OSM       H8S            -9.4610208172      -17.6219091443        9.3369752009  MEMB      27              0.0000000000
      3037        27  OSM       H8T           -11.2501539795      -17.3655727599        9.4216491854  MEMB      27              0.0000000000
      3038        27  OSM       C9S           -10.5932345835      -19.4440542399        9.0335416939  MEMB      27              0.0000000000
      3039        27  OSM       H9S           -11.1682781508      -20.1161997538        9.7068383346  MEMB      27              0.0000000000
      3040        27  OSM       H9T            -9.5982308988      -19.9212583153        8.9314012585  MEMB      27              0.0000000000
      3041        27  OSM       C10S          -11.3099249550      -19.4151877164        7.6774352887  MEMB      27              0.0000000000
      3042        27  OSM       H10S          -10.9742215328      -18.5157841148        7.1159646604  MEMB      27              0.0000000000
      3043        27  OSM       H10T          -12.3950608029      -19.3248312496        7.8757156687  MEMB      27              0.0000000000
      3044        27  OSM       C11S          -11.1035540705      -20.6432524129        6.7735155544  MEMB      27              0.0000000000
      3045        27  OSM       H11S          -11.2367417495      -21.5910840857        7.3399464778  MEMB      27              0.0000000000
      3046        27  OSM       H11T          -10.0683744419      -20.6183259826        6.3777992726  MEMB      27              0.0000000000
      3047        27  OSM       C12S          -12.0905402529      -20.6262236649        5.5965377724  MEMB      27              0.0000000000
      3048        27  OSM       H12S          -12.0113276719      -19.6570042349        5.0548144349  MEMB      27              0.0000000000
      3049        27  OSM       H12T          -13.1111638047      -20.6819554013        6.0302178327  MEMB      27              0.0000000000
      3050        27  OSM       C13S          -11.9350725193      -21.7783318917        4.5966950696  MEMB      27              0.0000000000
      3051        27  OSM       H13S          -12.7452286866      -21.7067303062        3.8341683993  MEMB      27              0.0000000000
      3052        27  OSM       H13T          -12.0734551741      -22.7407405754        5.1394129359  MEMB      27              0.0000000000
      3053        27  OSM       C14S          -10.5887497543      -21.8027729952        3.8615637951  MEMB      27              0.0000000000
      3054        27  OSM       H14S          -10.6065625097      -22.6650501383        3.1581688608  MEMB      27              0.0000000000
      3055        27  OSM       H14T           -9.7679256711      -21.9784997756        4.5925567734  MEMB      27              0.0000000000
      3056        27  OSM       C15S          -10.2569593125      -20.5329699115        3.0643240899  MEMB      27              0.0000000000
      3057        27  OSM       H15S           -9.9889836933      -19.7213329374        3.7768075555  MEMB      27              0.0000000000
      3058        27  OSM       H15T          -11.1487612351      -20.2012983178        2.4870571114  MEMB      27              0.0000000000
      3059        27  OSM       C16S           -9.0914089567      -20.7798537672        2.0933609368  MEMB      27              0.0000000000
      3060        27  OSM       H16S           -9.4749517138      -21.3975519647        1.2513641569  MEMB      27              0.0000000000
      3061        27  OSM       H16T           -8.3040477410      -21.3635587979        2.6229203123  MEMB      27              0.0000000000
      3062        27  OSM       C17S           -8.4540727350      -19.4996906977        1.5381210451  MEMB      27              0.0000000000
      3063        27  OSM       H17S           -8.0650652344      -18.9044219911        2.3958230379  MEMB      27              0.0000000000
      3064        27  OSM       H17T           -9.2431848798      -18.8939206131        1.0384346714  MEMB      27              0.0000000000
      3065        27  OSM       C18S           -7.3176802866      -19.7441259015        0.5397368614  MEMB      27              0.0000000000
      3066        27  OSM       H18S           -6.4888207297      -20.3157066817        1.0061609057  MEMB      27              0.0000000000
      3067        27  OSM       H18T           -6.9146005456      -18.7749632319        0.1745442057  MEMB      27              0.0000000000
      3068        27  OSM       H18U           -7.6887320241      -20.3194177120       -0.3351115501  MEMB      27              0.0000000000
      3069        27  OSM       C1F            -8.6652264563      -22.6454190511       15.5225772600  MEMB      27              0.0000000000
      3070        27  OSM       OF             -9.5671560410      -23.2495867111       16.0983139603  MEMB      27              0.0000000000
      3071        27  OSM       C2F            -7.5464265717      -23.3585807911       14.7104069842  MEMB      27              0.0000000000
      3072        27  OSM       H2F            -6.7707978514      -23.6352272043       15.4489978299  MEMB      27              0.0000000000
      3073        27  OSM       H2G            -7.0955750756      -22.6243476682       14.0275405276  MEMB      27              0.0000000000
      3074        27  OSM       C3F            -7.8822107846      -24.6625573076       13.8711941629  MEMB      27              0.0000000000
      3075        27  OSM       H3F            -8.9684234538      -24.7700297922       13.7776250448  MEMB      27              0.0000000000
      3076        27  OSM       H3G            -7.5814884591      -25.4931789226       14.5530302056  MEMB      27              0.0000000000
      3077        27  OSM       C4F            -7.1441759036      -25.0176662204       12.5080634193  MEMB      27              0.0000000000
      3078        27  OSM       H4F            -7.1358351111      -26.1234258176       12.5131105059  MEMB      27              0.0000000000
      3079        27  OSM       H4G            -6.0734656222      -24.7706710126       12.5815891931  MEMB      27              0.0000000000
      3080        27  OSM       C5F            -7.8089450682      -24.6841811212       11.1116827532  MEMB      27              0.0000000000
      3081        27  OSM       H5F            -8.5915418746      -23.9479474721       11.3054491210  MEMB      27              0.0000000000
      3082        27  OSM       H5G            -8.3236436346      -25.6171977719       10.7910913244  MEMB      27              0.0000000000
      3083        27  OSM       C6F            -7.0467535745      -24.1355255228        9.8347516399  MEMB      27              0.0000000000
      3084        27  OSM       H6F            -7.0177600755      -24.9605597101        9.0990415347  MEMB      27              0.0000000000
      3085        27  OSM       H6G            -5.9973865869      -23.9041872738       10.0569264491  MEMB      27              0.0000000000
      3086        27  OSM       C7F            -7.7002377806      -22.8703907956        9.1785610692  MEMB      27              0.0000000000
      3087        27  OSM       H7F            -7.5766194377      -22.0483610514        9.8903080415  MEMB      27              0.0000000000
      3088        27  OSM       H7G            -8.7884896396      -23.0449832148        9.0943216678  MEMB      27              0.0000000000
      3089        27  OSM       C8F            -7.3196594222      -22.2758128437        7.7952925281  MEMB      27              0.0000000000
      3090        27  OSM       H8F            -8.2772218100      -21.8665578720        7.3901247406  MEMB      27              0.0000000000
      3091        27  OSM       H8G            -7.0366894034      -23.0890663928        7.1046354675  MEMB      27              0.0000000000
      3092        27  OSM       C9F            -6.3074942014      -21.1523872398        7.8138230861  MEMB      27              0.0000000000
      3093        27  OSM       H9F            -5.3334983922      -21.4427280851        8.2411839340  MEMB      27              0.0000000000
      3094        27  OSM       C10F           -6.4699163537      -19.8685749246        7.4040290893  MEMB      27              0.0000000000
      3095        27  OSM       H10F           -5.5907050980      -19.2124320750        7.4495215950  MEMB      27              0.0000000000
      3096        27  OSM       C11F           -7.6812133209      -19.1738542847        6.8106357759  MEMB      27              0.0000000000
      3097        27  OSM       H11F           -8.4531436925      -19.0260260848        7.5853702940  MEMB      27              0.0000000000
      3098        27  OSM       H11G           -8.1221391175      -19.7872824584        5.9945334654  MEMB      27              0.0000000000
      3099        27  OSM       C12F           -7.4018848822      -17.7601556964        6.2321930567  MEMB      27              0.0000000000
      3100        27  OSM       H12F           -6.6255119235      -17.8598439720        5.4462731290  MEMB      27              0.0000000000
      3101        27  OSM       H12G           -7.0018767639      -17.0902632277        7.0246082984  MEMB      27              0.0000000000
      3102        27  OSM       C13F           -8.6230376110      -17.0600996423        5.6009616503  MEMB      27              0.0000000000
      3103        27  OSM       H13F           -9.1851729623      -16.5158062710        6.3928929769  MEMB      27              0.0000000000
      3104        27  OSM       H13G           -9.3004764711      -17.8308281282        5.1709708937  MEMB      27              0.0000000000
      3105        27  OSM       C14F           -8.2410273449      -16.0791455172        4.4752369488  MEMB      27              0.0000000000
      3106        27  OSM       H14F           -7.8834577995      -16.6608901831        3.5959145586  MEMB      27              0.0000000000
      3107        27  OSM       H14G           -7.3924093942      -15.4420255781        4.8159565435  MEMB      27              0.0000000000
      3108        27  OSM       C15F           -9.3877137368      -15.1477895612        4.0390375489  MEMB      27              0.0000000000
      3109        27  OSM       H15F           -9.0355436818      -14.5329102791        3.1795609987  MEMB      27              0.0000000000
      3110        27  OSM       H15G           -9.6005615886      -14.4457423810        4.8773494293  MEMB      27              0.0000000000
      3111        27  OSM       C16F          -10.7090904819      -15.8466510783        3.6566165337  MEMB      27              0.0000000000
      3112        27  OSM       H16F          -11.4732379586      -15.0720954768        3.4266367581  MEMB      27              0.0000000000
      3113        27  OSM       H16G          -11.0890820505      -16.4312116926        4.5229227971  MEMB      27              0.0000000000
      3114        27  OSM       C17F          -10.6010969997      -16.7654454380        2.4338661740  MEMB      27              0.0000000000
      3115        27  OSM       H17F           -9.9498937226      -17.6198568369        2.7161235794  MEMB      27              0.0000000000
      3116        27  OSM       H17G          -10.1022146825      -16.2136433794        1.6049822170  MEMB      27              0.0000000000
      3117        27  OSM       C18F          -11.9491049435      -17.3037636479        1.9403542684  MEMB      27              0.0000000000
      3118        27  OSM       H18F          -12.4732273518      -17.8552466561        2.7504534208  MEMB      27              0.0000000000
      3119        27  OSM       H18G          -11.8013221648      -18.0015967407        1.0877230224  MEMB      27              0.0000000000
      3120        27  OSM       H18H          -12.6035357751      -16.4720951392        1.6018453790  MEMB      27              0.0000000000
      3121        28  OSM       N               5.2927957967       21.8001629559       22.6646556020  MEMB      28              0.0000000000
      3122        28  OSM       C15             6.5102350767       22.6615480076       22.4632707142  MEMB      28              0.0000000000
      3123        28  OSM       H15A            6.7792766175       23.1846906678       23.3683368971  MEMB      28              0.0000000000
      3124        28  OSM       H15B            6.3451513929       23.3676310378       21.6557812062  MEMB      28              0.0000000000
      3125        28  OSM       H15C            7.3467897147       22.0365317545       22.1575603464  MEMB      28              0.0000000000
      3126        28  OSM       C14             5.5594221404       20.9278942728       23.8366492928  MEMB      28              0.0000000000
      3127        28  OSM       H14A            5.7572520373       21.5251633819       24.7264759701  MEMB      28              0.0000000000
      3128        28  OSM       H14B            6.4296403698       20.2972229980       23.6406121378  MEMB      28              0.0000000000
      3129        28  OSM       H14C            4.7333334968       20.2653193653       24.0638290922  MEMB      28              0.0000000000
      3130        28  OSM       C13             4.1055925413       22.6845006839       22.9218291679  MEMB      28              0.0000000000
      3131        28  OSM       H13A            3.2196393960       22.1346078027       23.2302873987  MEMB      28              0.0000000000
      3132        28  OSM       H13B            3.8611474390       23.2415562690       22.0151558049  MEMB      28              0.0000000000
      3133        28  OSM       H13C            4.3408656009       23.4172771260       23.6882863439  MEMB      28              0.0000000000
      3134        28  OSM       C12             5.0700801116       20.9801676294       21.3897960251  MEMB      28              0.0000000000
      3135        28  OSM       H12A            5.0080520571       21.6727580505       20.5474180747  MEMB      28              0.0000000000
      3136        28  OSM       H12B            4.1023422059       20.5066921965       21.4452868724  MEMB      28              0.0000000000
      3137        28  OSM       C11             6.0852803960       19.8669123911       20.9866081649  MEMB      28              0.0000000000
      3138        28  OSM       H11A            5.6470863462       19.3667120278       20.0878167631  MEMB      28              0.0000000000
      3139        28  OSM       H11B            6.1441916561       19.1018775809       21.7824956976  MEMB      28              0.0000000000
      3140        28  OSM       P               8.3394194103       19.8514357506       19.5947464370  MEMB      28              0.0000000000
      3141        28  OSM       O13             8.8951571656       20.9750333519       18.8322345215  MEMB      28              0.0000000000
      3142        28  OSM       O14             9.3272909204       18.9255850986       20.2096982210  MEMB      28              0.0000000000
      3143        28  OSM       O11             7.4320072254       18.9957199023       18.6384580872  MEMB      28              0.0000000000
      3144        28  OSM       O12             7.3923296747       20.3690742476       20.7421308025  MEMB      28              0.0000000000
      3145        28  OSM       C1S             7.7554840710       18.5521783339       17.3296315358  MEMB      28              0.0000000000
      3146        28  OSM       H1S             7.4551822238       17.4822843530       17.2452165198  MEMB      28              0.0000000000
      3147        28  OSM       H1T             8.8470005255       18.6083232854       17.1180291865  MEMB      28              0.0000000000
      3148        28  OSM       NF              7.8078541415       20.3558094257       15.7007561646  MEMB      28              0.0000000000
      3149        28  OSM       HNF             7.8569663464       21.1924263124       16.2421602970  MEMB      28              0.0000000000
      3150        28  OSM       C2S             6.9468999386       19.3068756563       16.2244074479  MEMB      28              0.0000000000
      3151        28  OSM       H2S             6.6888931447       18.5738752103       15.4248739475  MEMB      28              0.0000000000
      3152        28  OSM       C3S             5.6047029823       19.8216623545       16.8217494710  MEMB      28              0.0000000000
      3153        28  OSM       H3S             5.8127212343       20.6320435109       17.5554418954  MEMB      28              0.0000000000
      3154        28  OSM       O3              4.8982427667       18.7870587157       17.5192130403  MEMB      28              0.0000000000
      3155        28  OSM       HO3             5.6077896553       18.3077568218       17.9572190344  MEMB      28              0.0000000000
      3156        28  OSM       C4S             4.7126635869       20.3893028867       15.7419623896  MEMB      28              0.0000000000
      3157        28  OSM       H4S             4.6136759289       21.4805730091       15.7710886281  MEMB      28              0.0000000000
      3158        28  OSM       C5S             4.0282882202       19.6943176728       14.8099652610  MEMB      28              0.0000000000
      3159        28  OSM       H5S             4.1374109645       18.5997139242       14.7902743633  MEMB      28              0.0000000000
      3160        28  OSM       C6S             3.1314897459       20.2851247674       13.7506964010  MEMB      28              0.0000000000
      3161        28  OSM       H6S             2.3271930847       20.8773377562       14.2488082122  MEMB      28              0.0000000000
      3162        28  OSM       H6T             2.6256985389       19.4734532209       13.1839605081  MEMB      28              0.0000000000
      3163        28  OSM       C7S             3.8092478991       21.2034567528       12.7238672931  MEMB      28              0.0000000000
      3164        28  OSM       H7S             4.4637648572       21.9226281576       13.2656801908  MEMB      28              0.0000000000
      3165        28  OSM       H7T             3.0190567361       21.7870998258       12.1976997635  MEMB      28              0.0000000000
      3166        28  OSM       C8S             4.6488634045       20.4873825450       11.6606610655  MEMB      28              0.0000000000
      3167        28  OSM       H8S             5.2494671422       19.6655358564       12.1067717799  MEMB      28              0.0000000000
      3168        28  OSM       H8T             5.3680293904       21.2458644582       11.2763490059  MEMB      28              0.0000000000
      3169        28  OSM       C9S             3.8450833491       19.9817272767       10.4496546035  MEMB      28              0.0000000000
      3170        28  OSM       H9S             2.9307429000       20.5998895655       10.3086196442  MEMB      28              0.0000000000
      3171        28  OSM       H9T             3.5205446043       18.9360555913       10.6429150920  MEMB      28              0.0000000000
      3172        28  OSM       C10S            4.6847094171       20.0741429368        9.1661725267  MEMB      28              0.0000000000
      3173        28  OSM       H10S            5.6536261036       19.5651399443        9.3645115014  MEMB      28              0.0000000000
      3174        28  OSM       H10T            4.9126961751       21.1422073460        8.9492506690  MEMB      28              0.0000000000
      3175        28  OSM       C11S            4.0394260346       19.4306887388        7.9346950851  MEMB      28              0.0000000000
      3176        28  OSM       H11S            3.1259345656       19.9877990064        7.6316608751  MEMB      28              0.0000000000
      3177        28  OSM       H11T            3.7222983244       18.3997281418        8.2160522446  MEMB      28              0.0000000000
      3178        28  OSM       C12S            5.0311276214       19.3573080799        6.7597880077  MEMB      28              0.0000000000
      3179        28  OSM       H12S            6.0108036015       19.0063475256        7.1577231796  MEMB      28              0.0000000000
      3180        28  OSM       H12T            5.1832188861       20.3681525561        6.3227193895  MEMB      28              0.0000000000
      3181        28  OSM       C13S            4.5886323242       18.3767404935        5.6686942370  MEMB      28              0.0000000000
      3182        28  OSM       H13S            3.8255709009       18.8616701616        5.0305484342  MEMB      28              0.0000000000
      3183        28  OSM       H13T            4.1025955957       17.5136402748        6.1795437570  MEMB      28              0.0000000000
      3184        28  OSM       C14S            5.7040299871       17.7662810890        4.8008573697  MEMB      28              0.0000000000
      3185        28  OSM       H14S            5.2503341355       17.1961918835        3.9582655406  MEMB      28              0.0000000000
      3186        28  OSM       H14T            6.2550774921       17.0378177060        5.4361099869  MEMB      28              0.0000000000
      3187        28  OSM       C15S            6.7644841109       18.7368219359        4.2775663413  MEMB      28              0.0000000000
      3188        28  OSM       H15S            7.0960816009       19.3614080083        5.1307085418  MEMB      28              0.0000000000
      3189        28  OSM       H15T            6.3430187207       19.4096649376        3.5002677655  MEMB      28              0.0000000000
      3190        28  OSM       C16S            8.0158784229       17.9896099348        3.7843429796  MEMB      28              0.0000000000
      3191        28  OSM       H16S            7.8194493813       17.4759302713        2.8190107384  MEMB      28              0.0000000000
      3192        28  OSM       H16T            8.2648720793       17.1952748328        4.5247909773  MEMB      28              0.0000000000
      3193        28  OSM       C17S            9.2429802342       18.8977157718        3.6464320536  MEMB      28              0.0000000000
      3194        28  OSM       H17S           10.1343951243       18.2540486860        3.4686822862  MEMB      28              0.0000000000
      3195        28  OSM       H17T            9.4139184768       19.4384354654        4.6058567682  MEMB      28              0.0000000000
      3196        28  OSM       C18S            9.1237572150       19.9018468920        2.5040164853  MEMB      28              0.0000000000
      3197        28  OSM       H18S            8.9219376848       19.3749543656        1.5504721713  MEMB      28              0.0000000000
      3198        28  OSM       H18T           10.0650484584       20.4847990102        2.4004272357  MEMB      28              0.0000000000
      3199        28  OSM       H18U            8.2827815049       20.6049993342        2.6790651617  MEMB      28              0.0000000000
      3200        28  OSM       C1F             8.7846524923       19.9552826119       14.8753596277  MEMB      28              0.0000000000
      3201        28  OSM       OF              8.7971535320       18.8029545232       14.4630564754  MEMB      28              0.0000000000
      3202        28  OSM       C2F             9.8965048931       20.8824493895       14.5290619673  MEMB      28              0.0000000000
      3203        28  OSM       H2F            10.8588180733       20.3711350959       14.7627510456  MEMB      28              0.0000000000
      3204        28  OSM       H2G             9.8458591870       21.8082234085       15.1327738708  MEMB      28              0.0000000000
      3205        28  OSM       C3F             9.8429780925       21.1900722881       13.0194570882  MEMB      28              0.0000000000
      3206        28  OSM       H3F             9.6875087047       20.2621441214       12.4244158920  MEMB      28              0.0000000000
      3207        28  OSM       H3G            10.8423987444       21.5778823779       12.7245850889  MEMB      28              0.0000000000
      3208        28  OSM       C4F             8.7660194811       22.2198593502       12.6431856108  MEMB      28              0.0000000000
      3209        28  OSM       H4F             8.4748217875       22.8209389661       13.5341227559  MEMB      28              0.0000000000
      3210        28  OSM       H4G             7.8590372510       21.6796716137       12.2948719460  MEMB      28              0.0000000000
      3211        28  OSM       C5F             9.2787734162       23.1803915651       11.5658362448  MEMB      28              0.0000000000
      3212        28  OSM       H5F            10.0491292205       22.6663391547       10.9496211998  MEMB      28              0.0000000000
      3213        28  OSM       H5G             9.7721769586       24.0382733825       12.0580841710  MEMB      28              0.0000000000
      3214        28  OSM       C6F             8.2156588773       23.7907464313       10.6625139319  MEMB      28              0.0000000000
      3215        28  OSM       H6F             8.6933354642       24.5962123982       10.0545901349  MEMB      28              0.0000000000
      3216        28  OSM       H6G             7.4312051186       24.2697314611       11.2843848395  MEMB      28              0.0000000000
      3217        28  OSM       C7F             7.6054502990       22.7725518152        9.7045080146  MEMB      28              0.0000000000
      3218        28  OSM       H7F             6.8812206960       23.3222380768        9.0582408760  MEMB      28              0.0000000000
      3219        28  OSM       H7G             7.0361601106       22.0135520525       10.2808459233  MEMB      28              0.0000000000
      3220        28  OSM       C8F             8.6601525248       22.0632790297        8.8385104146  MEMB      28              0.0000000000
      3221        28  OSM       H8F             9.2497293910       21.3429759926        9.4452035348  MEMB      28              0.0000000000
      3222        28  OSM       H8G             9.3679797754       22.8317481857        8.4524229417  MEMB      28              0.0000000000
      3223        28  OSM       C9F             7.9350303572       21.3527043867        7.7374229668  MEMB      28              0.0000000000
      3224        28  OSM       H9F             7.3475675601       20.4762205114        8.0461412790  MEMB      28              0.0000000000
      3225        28  OSM       C10F            7.9335677650       21.7353323586        6.4566844781  MEMB      28              0.0000000000
      3226        28  OSM       H10F            7.2778385948       21.2104380453        5.7506541137  MEMB      28              0.0000000000
      3227        28  OSM       C11F            8.6518518205       22.9277260269        5.8814514706  MEMB      28              0.0000000000
      3228        28  OSM       H11F            9.7266688539       22.9319005559        6.1715359539  MEMB      28              0.0000000000
      3229        28  OSM       H11G            8.2110730634       23.8823595752        6.2396486399  MEMB      28              0.0000000000
      3230        28  OSM       C12F            8.5614532841       22.8066841065        4.3554266264  MEMB      28              0.0000000000
      3231        28  OSM       H12F            7.5222141372       22.5827304603        4.0184502505  MEMB      28              0.0000000000
      3232        28  OSM       H12G            9.2111206402       21.9471950257        4.0786167723  MEMB      28              0.0000000000
      3233        28  OSM       C13F            9.0622922509       24.0141747443        3.5588759461  MEMB      28              0.0000000000
      3234        28  OSM       H13F           10.0939904968       24.2419055121        3.9003051087  MEMB      28              0.0000000000
      3235        28  OSM       H13G            8.4301742015       24.9053743400        3.7550451260  MEMB      28              0.0000000000
      3236        28  OSM       C14F            9.0688879265       23.6662461368        2.0618468179  MEMB      28              0.0000000000
      3237        28  OSM       H14F            8.0413578222       23.4116374476        1.7183741850  MEMB      28              0.0000000000
      3238        28  OSM       H14G            9.6811837552       22.7398246659        1.9581999618  MEMB      28              0.0000000000
      3239        28  OSM       C15F            9.6789875860       24.7203945640        1.1264863439  MEMB      28              0.0000000000
      3240        28  OSM       H15F           10.2898301097       25.4428754029        1.7093933754  MEMB      28              0.0000000000
      3241        28  OSM       H15G            8.8615254494       25.2882758314        0.6280458065  MEMB      28              0.0000000000
      3242        28  OSM       C16F           10.5803822855       24.0304453378        0.0890432988  MEMB      28              0.0000000000
      3243        28  OSM       H16F           10.0143380845       23.1944805342       -0.3614165941  MEMB      28              0.0000000000
      3244        28  OSM       H16G           11.4332445884       23.5553781000        0.6189688315  MEMB      28              0.0000000000
      3245        28  OSM       C17F           11.1230493239       24.9211421685       -1.0333680835  MEMB      28              0.0000000000
      3246        28  OSM       H17F           11.8718365965       24.3217359194       -1.6029709824  MEMB      28              0.0000000000
      3247        28  OSM       H17G           11.6600660382       25.7916032328       -0.5937428582  MEMB      28              0.0000000000
      3248        28  OSM       C18F           10.0652298741       25.4215284908       -2.0171577715  MEMB      28              0.0000000000
      3249        28  OSM       H18F           10.5583824384       25.8081092803       -2.9328891506  MEMB      28              0.0000000000
      3250        28  OSM       H18G            9.4529844224       26.2262573480       -1.5602250783  MEMB      28              0.0000000000
      3251        28  OSM       H18H            9.3835095082       24.6132749618       -2.3354219465  MEMB      28              0.0000000000
      3252        29  OSM       N             -10.7437752114       18.9536634773       22.2849561715  MEMB      29              0.0000000000
      3253        29  OSM       C15           -11.4477087532       17.9672688017       23.1522774537  MEMB      29              0.0000000000
      3254        29  OSM       H15A          -12.2162731791       17.4347130475       22.6146392308  MEMB      29              0.0000000000
      3255        29  OSM       H15B          -11.8955006960       18.4954393673       23.9983672579  MEMB      29              0.0000000000
      3256        29  OSM       H15C          -10.7666961181       17.2279627450       23.5698770308  MEMB      29              0.0000000000
      3257        29  OSM       C14            -9.9177890724       19.8071203583       23.1995849118  MEMB      29              0.0000000000
      3258        29  OSM       H14A          -10.5682171588       20.3948202535       23.8470506691  MEMB      29              0.0000000000
      3259        29  OSM       H14B           -9.3086079505       20.4936504641       22.6131209850  MEMB      29              0.0000000000
      3260        29  OSM       H14C           -9.3083774598       19.2068352303       23.8512636021  MEMB      29              0.0000000000
      3261        29  OSM       C13            -9.9202121648       18.2481127083       21.2372181896  MEMB      29              0.0000000000
      3262        29  OSM       H13A           -9.2873534864       17.4676204719       21.6040027563  MEMB      29              0.0000000000
      3263        29  OSM       H13B           -9.3359209212       19.0072845448       20.7022861569  MEMB      29              0.0000000000
      3264        29  OSM       H13C          -10.5482300894       17.8239210781       20.4599617126  MEMB      29              0.0000000000
      3265        29  OSM       C12           -11.6917693667       19.8782229606       21.5366722466  MEMB      29              0.0000000000
      3266        29  OSM       H12A          -12.4604741780       20.2357484452       22.2111861411  MEMB      29              0.0000000000
      3267        29  OSM       H12B          -12.1931586440       19.3314849954       20.7445105568  MEMB      29              0.0000000000
      3268        29  OSM       C11           -11.0488793045       21.1296932569       20.8847491651  MEMB      29              0.0000000000
      3269        29  OSM       H11A          -11.0649738661       21.9170738030       21.6773926984  MEMB      29              0.0000000000
      3270        29  OSM       H11B          -11.6978259919       21.4983956285       20.0562279086  MEMB      29              0.0000000000
      3271        29  OSM       P              -8.6543827734       22.0069126737       20.3446371881  MEMB      29              0.0000000000
      3272        29  OSM       O13            -9.1430547798       23.1431729092       21.1253043323  MEMB      29              0.0000000000
      3273        29  OSM       O14            -7.3356115883       21.4480869322       20.7103096135  MEMB      29              0.0000000000
      3274        29  OSM       O11            -8.6082791892       22.3911575208       18.8030468393  MEMB      29              0.0000000000
      3275        29  OSM       O12            -9.7271970829       20.8579087909       20.3958771634  MEMB      29              0.0000000000
      3276        29  OSM       C1S            -8.4959530545       21.2679090980       17.9203215283  MEMB      29              0.0000000000
      3277        29  OSM       H1S            -9.3176995544       20.5545368508       18.1400092054  MEMB      29              0.0000000000
      3278        29  OSM       H1T            -7.5234073621       20.7422074274       18.0587528772  MEMB      29              0.0000000000
      3279        29  OSM       NF             -8.3708453908       20.4611004823       15.5825448782  MEMB      29              0.0000000000
      3280        29  OSM       HNF            -7.6840996963       20.5605999260       14.8768801376  MEMB      29              0.0000000000
      3281        29  OSM       C2S            -8.6347483456       21.6379311408       16.4146846406  MEMB      29              0.0000000000
      3282        29  OSM       H2S            -9.6837744121       21.9657736494       16.2390777008  MEMB      29              0.0000000000
      3283        29  OSM       C3S            -7.6763755244       22.8112370825       16.0453362284  MEMB      29              0.0000000000
      3284        29  OSM       H3S            -6.6419396741       22.4448421753       16.1297063642  MEMB      29              0.0000000000
      3285        29  OSM       O3             -7.7521314939       23.9633594132       16.8751477491  MEMB      29              0.0000000000
      3286        29  OSM       HO3            -8.2794207485       23.6388854132       17.6219761253  MEMB      29              0.0000000000
      3287        29  OSM       C4S            -7.9350564168       23.2331627464       14.6344338738  MEMB      29              0.0000000000
      3288        29  OSM       H4S            -8.7005666322       24.0127412079       14.5012060920  MEMB      29              0.0000000000
      3289        29  OSM       C5S            -7.2258664640       22.7705999934       13.5899973209  MEMB      29              0.0000000000
      3290        29  OSM       H5S            -6.4277681109       22.0302459435       13.7671693478  MEMB      29              0.0000000000
      3291        29  OSM       C6S            -7.4296014794       23.1604135169       12.1601798578  MEMB      29              0.0000000000
      3292        29  OSM       H6S            -6.6375330134       23.8804138844       11.8770242748  MEMB      29              0.0000000000
      3293        29  OSM       H6T            -8.4027807963       23.6758954275       11.9903307369  MEMB      29              0.0000000000
      3294        29  OSM       C7S            -7.2865955505       21.9865384043       11.1868361498  MEMB      29              0.0000000000
      3295        29  OSM       H7S            -6.4424674469       21.3122860060       11.4499748286  MEMB      29              0.0000000000
      3296        29  OSM       H7T            -7.0353831453       22.4522472570       10.2057024952  MEMB      29              0.0000000000
      3297        29  OSM       C8S            -8.5877863808       21.1950098166       11.0363921391  MEMB      29              0.0000000000
      3298        29  OSM       H8S            -9.4065668737       21.9342411385       10.9035331927  MEMB      29              0.0000000000
      3299        29  OSM       H8T            -8.8087117218       20.6320032597       11.9677897687  MEMB      29              0.0000000000
      3300        29  OSM       C9S            -8.6046546961       20.2583508696        9.8169828138  MEMB      29              0.0000000000
      3301        29  OSM       H9S            -9.6550974722       19.9129700789        9.6709291263  MEMB      29              0.0000000000
      3302        29  OSM       H9T            -7.9820962091       19.3613913139       10.0247442956  MEMB      29              0.0000000000
      3303        29  OSM       C10S           -8.1225392759       20.9300350496        8.5174951602  MEMB      29              0.0000000000
      3304        29  OSM       H10S           -7.0169243461       21.0500323925        8.5357679394  MEMB      29              0.0000000000
      3305        29  OSM       H10T           -8.5727473854       21.9484589520        8.4631998375  MEMB      29              0.0000000000
      3306        29  OSM       C11S           -8.5160556412       20.1678673384        7.2474546358  MEMB      29              0.0000000000
      3307        29  OSM       H11S           -8.3208128262       20.8132175622        6.3609777672  MEMB      29              0.0000000000
      3308        29  OSM       H11T           -9.6096813338       19.9824415591        7.2898955018  MEMB      29              0.0000000000
      3309        29  OSM       C12S           -7.7530819913       18.8460848588        7.0644223923  MEMB      29              0.0000000000
      3310        29  OSM       H12S           -7.8567160512       18.2243122590        7.9809528683  MEMB      29              0.0000000000
      3311        29  OSM       H12T           -6.6747303644       19.0894168528        6.9400011411  MEMB      29              0.0000000000
      3312        29  OSM       C13S           -8.2425864377       18.0212787385        5.8583155126  MEMB      29              0.0000000000
      3313        29  OSM       H13S           -7.5254724282       17.2101691197        5.6130692844  MEMB      29              0.0000000000
      3314        29  OSM       H13T           -8.3075914375       18.6944463082        4.9771380884  MEMB      29              0.0000000000
      3315        29  OSM       C14S           -9.5965208414       17.3694431246        6.1551164446  MEMB      29              0.0000000000
      3316        29  OSM       H14S          -10.2452448992       18.1839006667        6.5320941683  MEMB      29              0.0000000000
      3317        29  OSM       H14T           -9.4671953950       16.6309602566        6.9784330237  MEMB      29              0.0000000000
      3318        29  OSM       C15S          -10.3162420538       16.6919130028        4.9762136310  MEMB      29              0.0000000000
      3319        29  OSM       H15S          -11.3284703504       16.3851683664        5.3167244652  MEMB      29              0.0000000000
      3320        29  OSM       H15T           -9.7943268937       15.7521777250        4.7128894594  MEMB      29              0.0000000000
      3321        29  OSM       C16S          -10.4497409898       17.5851272876        3.7321746277  MEMB      29              0.0000000000
      3322        29  OSM       H16S           -9.4317777019       17.7967144655        3.3348328752  MEMB      29              0.0000000000
      3323        29  OSM       H16T          -10.9139794760       18.5530026826        4.0249434412  MEMB      29              0.0000000000
      3324        29  OSM       C17S          -11.2784131015       16.9497362002        2.6080233571  MEMB      29              0.0000000000
      3325        29  OSM       H17S          -10.8789774984       15.9294637497        2.4187959612  MEMB      29              0.0000000000
      3326        29  OSM       H17T          -11.1477404367       17.5468042422        1.6759676710  MEMB      29              0.0000000000
      3327        29  OSM       C18S          -12.7694659577       16.8548052254        2.9263669210  MEMB      29              0.0000000000
      3328        29  OSM       H18S          -13.1925827202       17.8673914815        3.1013592231  MEMB      29              0.0000000000
      3329        29  OSM       H18T          -12.9360975034       16.2389655067        3.8361341948  MEMB      29              0.0000000000
      3330        29  OSM       H18U          -13.3314107052       16.3875771995        2.0913069113  MEMB      29              0.0000000000
      3331        29  OSM       C1F            -9.0822219937       19.3364385263       15.6343012330  MEMB      29              0.0000000000
      3332        29  OSM       OF             -9.7519697955       19.0487745298       16.6082829055  MEMB      29              0.0000000000
      3333        29  OSM       C2F            -9.0561320711       18.4109483846       14.4636461657  MEMB      29              0.0000000000
      3334        29  OSM       H2F            -8.2362190262       17.6744902445       14.6044197497  MEMB      29              0.0000000000
      3335        29  OSM       H2G            -8.8900144949       18.9744609152       13.5220214433  MEMB      29              0.0000000000
      3336        29  OSM       C3F           -10.4151752485       17.6790077055       14.4126981940  MEMB      29              0.0000000000
      3337        29  OSM       H3F           -10.5989027039       17.1614180633       15.3857080625  MEMB      29              0.0000000000
      3338        29  OSM       H3G           -10.3834012213       16.8739098617       13.6476340618  MEMB      29              0.0000000000
      3339        29  OSM       C4F           -11.6069886267       18.6180848330       14.1275163546  MEMB      29              0.0000000000
      3340        29  OSM       H4F           -11.4807215512       19.6106984360       14.6096329439  MEMB      29              0.0000000000
      3341        29  OSM       H4G           -12.5297783553       18.1933083282       14.5773398385  MEMB      29              0.0000000000
      3342        29  OSM       C5F           -11.8532326621       18.8019590926       12.6314644700  MEMB      29              0.0000000000
      3343        29  OSM       H5F           -11.5428879598       17.8743808101       12.1029336539  MEMB      29              0.0000000000
      3344        29  OSM       H5G           -11.2108704601       19.6212283697       12.2474827048  MEMB      29              0.0000000000
      3345        29  OSM       C6F           -13.3323066798       19.0619225561       12.3239234016  MEMB      29              0.0000000000
      3346        29  OSM       H6F           -13.7649914812       19.7807095933       13.0514437390  MEMB      29              0.0000000000
      3347        29  OSM       H6G           -13.8725654930       18.0930075083       12.4513580202  MEMB      29              0.0000000000
      3348        29  OSM       C7F           -13.5705551131       19.5690926467       10.8948709887  MEMB      29              0.0000000000
      3349        29  OSM       H7F           -14.4740433966       19.0533453060       10.5142125072  MEMB      29              0.0000000000
      3350        29  OSM       H7G           -12.7359423303       19.2632802081       10.2249739919  MEMB      29              0.0000000000
      3351        29  OSM       C8F           -13.7971549102       21.0820080359       10.7782248601  MEMB      29              0.0000000000
      3352        29  OSM       H8F           -14.4051435542       21.4411162471       11.6364689373  MEMB      29              0.0000000000
      3353        29  OSM       H8G           -14.3848987144       21.2707959084        9.8536333093  MEMB      29              0.0000000000
      3354        29  OSM       C9F           -12.4567551545       21.7545063575       10.7278568476  MEMB      29              0.0000000000
      3355        29  OSM       H9F           -11.8498580694       21.6234427861       11.6363694401  MEMB      29              0.0000000000
      3356        29  OSM       C10F          -11.9328757338       22.4318521072        9.6962768484  MEMB      29              0.0000000000
      3357        29  OSM       H10F          -10.9000614816       22.7803266062        9.8065582372  MEMB      29              0.0000000000
      3358        29  OSM       C11F          -12.5283618181       22.7061583560        8.3356998328  MEMB      29              0.0000000000
      3359        29  OSM       H11F          -12.7793911057       23.7893767007        8.2677604247  MEMB      29              0.0000000000
      3360        29  OSM       H11G          -13.4696020708       22.1433168239        8.1549249423  MEMB      29              0.0000000000
      3361        29  OSM       C12F          -11.5431857409       22.3874649815        7.1931695083  MEMB      29              0.0000000000
      3362        29  OSM       H12F          -11.3900743149       21.2889665221        7.1254120649  MEMB      29              0.0000000000
      3363        29  OSM       H12G          -10.5567923257       22.8552538463        7.4167740827  MEMB      29              0.0000000000
      3364        29  OSM       C13F          -12.0175023577       22.9337378085        5.8360163701  MEMB      29              0.0000000000
      3365        29  OSM       H13F          -12.3137225448       23.9975815829        5.9889167043  MEMB      29              0.0000000000
      3366        29  OSM       H13G          -12.9230443224       22.3878180662        5.4971358862  MEMB      29              0.0000000000
      3367        29  OSM       C14F          -10.9342790119       22.9059823659        4.7424062008  MEMB      29              0.0000000000
      3368        29  OSM       H14F           -9.9991118487       23.3482114792        5.1536987239  MEMB      29              0.0000000000
      3369        29  OSM       H14G          -11.2696481344       23.5546107475        3.9011676524  MEMB      29              0.0000000000
      3370        29  OSM       C15F          -10.6248621502       21.5079617536        4.1829357259  MEMB      29              0.0000000000
      3371        29  OSM       H15F          -11.5069963367       21.1366285843        3.6159856029  MEMB      29              0.0000000000
      3372        29  OSM       H15G          -10.4539375360       20.8051455538        5.0288547211  MEMB      29              0.0000000000
      3373        29  OSM       C16F           -9.3795822412       21.4708110156        3.2742549750  MEMB      29              0.0000000000
      3374        29  OSM       H16F           -9.2402579075       20.4306702615        2.9011065453  MEMB      29              0.0000000000
      3375        29  OSM       H16G           -8.4844818138       21.7281933020        3.8828608260  MEMB      29              0.0000000000
      3376        29  OSM       C17F           -9.4346205151       22.4156531682        2.0628029465  MEMB      29              0.0000000000
      3377        29  OSM       H17F           -9.5989380588       23.4612845648        2.4093403094  MEMB      29              0.0000000000
      3378        29  OSM       H17G          -10.3057472033       22.1331688839        1.4300265518  MEMB      29              0.0000000000
      3379        29  OSM       C18F           -8.1585598384       22.3801003429        1.2145589913  MEMB      29              0.0000000000
      3380        29  OSM       H18F           -8.2795890490       22.9968211779        0.2976120954  MEMB      29              0.0000000000
      3381        29  OSM       H18G           -7.9153120118       21.3387055486        0.9120824033  MEMB      29              0.0000000000
      3382        29  OSM       H18H           -7.3006052654       22.7893034851        1.7916580714  MEMB      29              0.0000000000
      3383        30  SOPE      N             -21.6394528809        0.8244393004       23.6274338398  MEMB      30              0.0000000000
      3384        30  SOPE      HN1           -21.4683952027        0.5129562905       24.5943144889  MEMB      30              0.0000000000
      3385        30  SOPE      HN2           -21.9264032395        0.0278619066       23.0161103111  MEMB      30              0.0000000000
      3386        30  SOPE      HN3           -20.7599938488        1.2426034088       23.1882123993  MEMB      30              0.0000000000
      3387        30  SOPE      C12           -22.7091973022        1.8803521939       23.6079776809  MEMB      30              0.0000000000
      3388        30  SOPE      H12A          -22.1930771738        2.8607784524       23.6938421433  MEMB      30              0.0000000000
      3389        30  SOPE      H12B          -23.3772047507        1.7394080228       24.4817801175  MEMB      30              0.0000000000
      3390        30  SOPE      C11           -23.5092205409        1.7879364610       22.3009981728  MEMB      30              0.0000000000
      3391        30  SOPE      H11A          -24.1348345075        2.7068917461       22.2171089670  MEMB      30              0.0000000000
      3392        30  SOPE      H11B          -24.2071809558        0.9163871799       22.3197691956  MEMB      30              0.0000000000
      3393        30  SOPE      P             -22.2285726737        0.4398567519       20.3875488438  MEMB      30              0.0000000000
      3394        30  SOPE      O13           -22.5658228159       -0.6991580133       21.2837498427  MEMB      30              0.0000000000
      3395        30  SOPE      O14           -20.7981905548        0.5981620887       20.0770824882  MEMB      30              0.0000000000
      3396        30  SOPE      O12           -22.6318245935        1.7354196201       21.1885840781  MEMB      30              0.0000000000
      3397        30  SOPE      O11           -23.1745132449        0.4692431458       19.1099675111  MEMB      30              0.0000000000
      3398        30  SOPE      C1            -24.3046557150        1.3672814815       19.0812035657  MEMB      30              0.0000000000
      3399        30  SOPE      HA            -23.9475982036        2.4143234314       19.2239305494  MEMB      30              0.0000000000
      3400        30  SOPE      HB            -25.0531319100        1.1299850462       19.8773177671  MEMB      30              0.0000000000
      3401        30  SOPE      C2            -25.0484124028        1.3430776528       17.7116900963  MEMB      30              0.0000000000
      3402        30  SOPE      HS            -25.5918472522        0.3692406569       17.6285676320  MEMB      30              0.0000000000
      3403        30  SOPE      O21           -24.0778794470        1.5263673524       16.6731565542  MEMB      30              0.0000000000
      3404        30  SOPE      C21           -23.5982778066        0.3988921146       16.2015093792  MEMB      30              0.0000000000
      3405        30  SOPE      O22           -24.2119693903       -0.6441993593       16.0332476867  MEMB      30              0.0000000000
      3406        30  SOPE      C22           -22.1409655564        0.6970917846       15.8727694045  MEMB      30              0.0000000000
      3407        30  SOPE      H2R           -21.7559067366        1.2267333222       16.7781745950  MEMB      30              0.0000000000
      3408        30  SOPE      H2S           -22.0921890975        1.3957043737       15.0198506066  MEMB      30              0.0000000000
      3409        30  SOPE      C3            -26.0799346597        2.4754077757       17.5190273883  MEMB      30              0.0000000000
      3410        30  SOPE      HX            -25.5488742317        3.4203561508       17.7904388040  MEMB      30              0.0000000000
      3411        30  SOPE      HY            -26.9538708212        2.3512925982       18.1907656543  MEMB      30              0.0000000000
      3412        30  SOPE      O31           -26.4906128628        2.4371560297       16.1331445389  MEMB      30              0.0000000000
      3413        30  SOPE      C31           -26.2783674573        3.5394084364       15.4452598527  MEMB      30              0.0000000000
      3414        30  SOPE      O32           -26.4185651130        4.6710609745       15.8842638851  MEMB      30              0.0000000000
      3415        30  SOPE      C32           -25.8304681164        3.1841035114       14.0217178937  MEMB      30              0.0000000000
      3416        30  SOPE      H2X           -26.7255573996        3.1746267973       13.3665608027  MEMB      30              0.0000000000
      3417        30  SOPE      H2Y           -25.3707381808        2.1741463231       14.0269075836  MEMB      30              0.0000000000
      3418        30  SOPE      C23           -21.2528385288       -0.5390588413       15.6695983311  MEMB      30              0.0000000000
      3419        30  SOPE      H3R           -21.3389882885       -1.1528646484       16.5953181376  MEMB      30              0.0000000000
      3420        30  SOPE      H3S           -20.1865589586       -0.2176328614       15.5851614350  MEMB      30              0.0000000000
      3421        30  SOPE      C24           -21.6004140389       -1.4234957600       14.4684636945  MEMB      30              0.0000000000
      3422        30  SOPE      H4R           -20.7992601605       -2.1706231167       14.3155615293  MEMB      30              0.0000000000
      3423        30  SOPE      H4S           -22.5175287757       -1.9933342617       14.7358337957  MEMB      30              0.0000000000
      3424        30  SOPE      C25           -21.7897412313       -0.6987458014       13.1356590990  MEMB      30              0.0000000000
      3425        30  SOPE      H5R           -21.5851415726        0.3783324309       13.2774721822  MEMB      30              0.0000000000
      3426        30  SOPE      H5S           -21.0431119503       -1.0882382611       12.4065345681  MEMB      30              0.0000000000
      3427        30  SOPE      C26           -23.2088249795       -0.9066488907       12.6009092316  MEMB      30              0.0000000000
      3428        30  SOPE      H6R           -23.5169438501       -1.8868048973       13.0261736947  MEMB      30              0.0000000000
      3429        30  SOPE      H6S           -23.8929224793       -0.1456590099       13.0288465387  MEMB      30              0.0000000000
      3430        30  SOPE      C27           -23.3525146885       -1.0635530905       11.0746551081  MEMB      30              0.0000000000
      3431        30  SOPE      H7R           -22.3952600243       -0.7922998344       10.5896342001  MEMB      30              0.0000000000
      3432        30  SOPE      H7S           -23.5316914378       -2.1470909851       10.8837142675  MEMB      30              0.0000000000
      3433        30  SOPE      C28           -24.4820652691       -0.2567571677       10.3997458467  MEMB      30              0.0000000000
      3434        30  SOPE      H8R           -25.2989341223       -0.1365567963       11.1423470237  MEMB      30              0.0000000000
      3435        30  SOPE      H8S           -24.0780413658        0.7503237402       10.2000341655  MEMB      30              0.0000000000
      3436        30  SOPE      C29           -25.0559474467       -0.8378418130        9.1258479096  MEMB      30              0.0000000000
      3437        30  SOPE      H91           -25.3918601271       -1.8826525352        9.2080859055  MEMB      30              0.0000000000
      3438        30  SOPE      C210          -25.1738504302       -0.2209572418        7.9289557368  MEMB      30              0.0000000000
      3439        30  SOPE      H101          -25.6723053576       -0.7655295749        7.1120022435  MEMB      30              0.0000000000
      3440        30  SOPE      C211          -24.7543415664        1.1937183771        7.5827525542  MEMB      30              0.0000000000
      3441        30  SOPE      H11R          -24.3384771840        1.7272344612        8.4645647885  MEMB      30              0.0000000000
      3442        30  SOPE      H11S          -25.6351937280        1.7858428576        7.2499451725  MEMB      30              0.0000000000
      3443        30  SOPE      C212          -23.6810636585        1.2725430397        6.4710211002  MEMB      30              0.0000000000
      3444        30  SOPE      H12R          -23.2478654788        2.2977942035        6.4598231505  MEMB      30              0.0000000000
      3445        30  SOPE      H12S          -24.1610301536        1.1104724436        5.4834863706  MEMB      30              0.0000000000
      3446        30  SOPE      C213          -22.5377790623        0.2687674808        6.6721259665  MEMB      30              0.0000000000
      3447        30  SOPE      H13R          -22.9667186848       -0.7542771752        6.6753351630  MEMB      30              0.0000000000
      3448        30  SOPE      H13S          -22.0740018421        0.4675487727        7.6628219115  MEMB      30              0.0000000000
      3449        30  SOPE      C214          -21.4495678705        0.2843025675        5.5952972835  MEMB      30              0.0000000000
      3450        30  SOPE      H14R          -20.5959234837       -0.3657782827        5.8933104063  MEMB      30              0.0000000000
      3451        30  SOPE      H14S          -21.0915144364        1.3063096711        5.5001653475  MEMB      30              0.0000000000
      3452        30  SOPE      C215          -21.9883771256       -0.1214175446        4.2358708162  MEMB      30              0.0000000000
      3453        30  SOPE      H15R          -22.7099711679        0.6472654032        3.8872213315  MEMB      30              0.0000000000
      3454        30  SOPE      H15S          -22.5204341518       -1.0760439646        4.3964200699  MEMB      30              0.0000000000
      3455        30  SOPE      C216          -20.9710400147       -0.3649204113        3.1264116779  MEMB      30              0.0000000000
      3456        30  SOPE      H16R          -21.5685488726       -0.8272398393        2.3206339666  MEMB      30              0.0000000000
      3457        30  SOPE      H16S          -20.2212220444       -1.1117988725        3.4452093032  MEMB      30              0.0000000000
      3458        30  SOPE      C217          -20.3544180180        0.9104990511        2.5514794820  MEMB      30              0.0000000000
      3459        30  SOPE      H17R          -19.4907977277        1.2168420823        3.1732582099  MEMB      30              0.0000000000
      3460        30  SOPE      H17S          -21.1230632546        1.7125725002        2.6139927642  MEMB      30              0.0000000000
      3461        30  SOPE      C218          -19.8956650821        0.7961411170        1.0978966507  MEMB      30              0.0000000000
      3462        30  SOPE      H18R          -19.1167214669        0.0130274241        0.9981407845  MEMB      30              0.0000000000
      3463        30  SOPE      H18S          -19.4722641348        1.7637604377        0.7503347040  MEMB      30              0.0000000000
      3464        30  SOPE      H18T          -20.7530429103        0.5357881466        0.4429819971  MEMB      30              0.0000000000
      3465        30  SOPE      C33           -24.8198772971        4.2287872385       13.5051991370  MEMB      30              0.0000000000
      3466        30  SOPE      H3X           -23.9436514794        4.2882507403       14.1940947035  MEMB      30              0.0000000000
      3467        30  SOPE      H3Y           -25.3424721692        5.2150478805       13.5046230889  MEMB      30              0.0000000000
      3468        30  SOPE      C34           -24.3088534125        4.0029019534       12.0752897470  MEMB      30              0.0000000000
      3469        30  SOPE      H4X           -23.7403149137        4.9097251260       11.7712575851  MEMB      30              0.0000000000
      3470        30  SOPE      H4Y           -25.1614524709        3.9097135187       11.3715391980  MEMB      30              0.0000000000
      3471        30  SOPE      C35           -23.3624165042        2.8112671033       11.9265355291  MEMB      30              0.0000000000
      3472        30  SOPE      H5X           -23.9700271971        1.8994369226       11.7920725081  MEMB      30              0.0000000000
      3473        30  SOPE      H5Y           -22.8095540548        2.6621662377       12.8794313550  MEMB      30              0.0000000000
      3474        30  SOPE      C36           -22.3495915971        3.0108048720       10.7779915589  MEMB      30              0.0000000000
      3475        30  SOPE      H6X           -21.7066375461        3.8767111704       11.0393074771  MEMB      30              0.0000000000
      3476        30  SOPE      H6Y           -22.8804639724        3.2684622835        9.8375063537  MEMB      30              0.0000000000
      3477        30  SOPE      C37           -21.4604251567        1.7835501674       10.5440993988  MEMB      30              0.0000000000
      3478        30  SOPE      H7X           -21.9488784674        1.1080735573        9.8120361952  MEMB      30              0.0000000000
      3479        30  SOPE      H7Y           -21.3863994341        1.2474816468       11.5079581327  MEMB      30              0.0000000000
      3480        30  SOPE      C38           -20.0109208679        2.0408013075       10.1129455562  MEMB      30              0.0000000000
      3481        30  SOPE      H8X           -19.4964548925        1.0544406602       10.1854872534  MEMB      30              0.0000000000
      3482        30  SOPE      H8Y           -19.5059229059        2.7206453602       10.8323246557  MEMB      30              0.0000000000
      3483        30  SOPE      C39           -19.8733468937        2.5738816576        8.6823611435  MEMB      30              0.0000000000
      3484        30  SOPE      H9X           -19.5790795620        3.6455974112        8.7297524926  MEMB      30              0.0000000000
      3485        30  SOPE      H9Y           -20.8667970162        2.5333766048        8.1805024006  MEMB      30              0.0000000000
      3486        30  SOPE      C310          -18.8597952040        1.7850789315        7.8359404698  MEMB      30              0.0000000000
      3487        30  SOPE      H10X          -19.3867406184        1.1595313427        7.0879508365  MEMB      30              0.0000000000
      3488        30  SOPE      H10Y          -18.3523671263        1.0471695283        8.4796980567  MEMB      30              0.0000000000
      3489        30  SOPE      C311          -17.7838044964        2.6521521975        7.1481507084  MEMB      30              0.0000000000
      3490        30  SOPE      H11X          -17.0716074797        1.9764603894        6.6221066562  MEMB      30              0.0000000000
      3491        30  SOPE      H11Y          -17.2267695400        3.2215363323        7.9230830828  MEMB      30              0.0000000000
      3492        30  SOPE      C312          -18.2924739692        3.6248435653        6.0895399193  MEMB      30              0.0000000000
      3493        30  SOPE      H12X          -17.4785350660        3.8739957002        5.3719100384  MEMB      30              0.0000000000
      3494        30  SOPE      H12Y          -18.6334542809        4.5472789821        6.5905831879  MEMB      30              0.0000000000
      3495        30  SOPE      C313          -19.4805983434        3.0530635109        5.3533601176  MEMB      30              0.0000000000
      3496        30  SOPE      H13X          -20.2837653330        2.9412805633        6.1151387489  MEMB      30              0.0000000000
      3497        30  SOPE      H13Y          -19.2003963083        2.0573644567        4.9532404288  MEMB      30              0.0000000000
      3498        30  SOPE      C314          -20.0976489895        3.9374490449        4.2892508815  MEMB      30              0.0000000000
      3499        30  SOPE      H14X          -19.9866098103        3.4598484705        3.2982373638  MEMB      30              0.0000000000
      3500        30  SOPE      H14Y          -19.5197569009        4.8691276679        4.2636788360  MEMB      30              0.0000000000
      3501        30  SOPE      C315          -21.5655571184        4.2446182239        4.6125614472  MEMB      30              0.0000000000
      3502        30  SOPE      H15X          -21.5952483835        4.8379654443        5.5548501804  MEMB      30              0.0000000000
      3503        30  SOPE      H15Y          -22.0975681445        3.2886275598        4.7999095934  MEMB      30              0.0000000000
      3504        30  SOPE      C316          -22.3065941692        5.0102476243        3.5173472397  MEMB      30              0.0000000000
      3505        30  SOPE      H16X          -21.7666594265        5.9640895797        3.3327263107  MEMB      30              0.0000000000
      3506        30  SOPE      H16Y          -23.3214390273        5.2735243119        3.8900821307  MEMB      30              0.0000000000
      3507        30  SOPE      C317          -22.4475882714        4.2304600917        2.2024227693  MEMB      30              0.0000000000
      3508        30  SOPE      H17X          -21.4654332612        3.8092664374        1.9030796237  MEMB      30              0.0000000000
      3509        30  SOPE      H17Y          -22.7185458413        4.9357075145        1.3926269724  MEMB      30              0.0000000000
      3510        30  SOPE      C318          -23.4965845654        3.1190318442        2.2604012443  MEMB      30              0.0000000000
      3511        30  SOPE      H18X          -23.2620859609        2.3295628273        1.5162294439  MEMB      30              0.0000000000
      3512        30  SOPE      H18Y          -24.5112078675        3.5169523218        2.0493378733  MEMB      30              0.0000000000
      3513        30  SOPE      H18Z          -23.5165878678        2.6467851760        3.2637857029  MEMB      30              0.0000000000
      3514        31  OSM       N              19.5531122447      -11.1903624476       23.1273880127  MEMB      31              0.0000000000
      3515        31  OSM       C15            18.5003664788      -12.1018884805       22.5472445478  MEMB      31              0.0000000000
      3516        31  OSM       H15A           18.7809045788      -13.1457811378       22.6694133267  MEMB      31              0.0000000000
      3517        31  OSM       H15B           18.4476692107      -11.9565407870       21.4652015260  MEMB      31              0.0000000000
      3518        31  OSM       H15C           17.5267282411      -11.9562466696       22.9904266545  MEMB      31              0.0000000000
      3519        31  OSM       C14            19.1137858939       -9.7702162281       22.9831940697  MEMB      31              0.0000000000
      3520        31  OSM       H14A           18.8522215441       -9.5887443687       21.9519568158  MEMB      31              0.0000000000
      3521        31  OSM       H14B           19.9091566105       -9.1020754373       23.3048143534  MEMB      31              0.0000000000
      3522        31  OSM       H14C           18.2578036729       -9.5888995763       23.6335775386  MEMB      31              0.0000000000
      3523        31  OSM       C13            19.6962972276      -11.4408733114       24.5818328693  MEMB      31              0.0000000000
      3524        31  OSM       H13A           20.5015148273      -10.8540380955       25.0114147390  MEMB      31              0.0000000000
      3525        31  OSM       H13B           19.8800847932      -12.4848192353       24.8044149776  MEMB      31              0.0000000000
      3526        31  OSM       H13C           18.7924554480      -11.1486847704       25.1084641228  MEMB      31              0.0000000000
      3527        31  OSM       C12            20.8743392115      -11.4459374718       22.4236541497  MEMB      31              0.0000000000
      3528        31  OSM       H12A           21.0144404913      -12.5253611020       22.3641692319  MEMB      31              0.0000000000
      3529        31  OSM       H12B           21.6841937131      -11.0712137344       23.0306600755  MEMB      31              0.0000000000
      3530        31  OSM       C11            21.0323076307      -10.9016677827       20.9884758956  MEMB      31              0.0000000000
      3531        31  OSM       H11A           22.0646406848      -11.1304884137       20.6213112891  MEMB      31              0.0000000000
      3532        31  OSM       H11B           20.9504034183       -9.7939967219       20.9790841084  MEMB      31              0.0000000000
      3533        31  OSM       P              20.3259285717      -12.7759158356       19.3167698882  MEMB      31              0.0000000000
      3534        31  OSM       O13            21.1922545131      -13.6645403014       20.1242001682  MEMB      31              0.0000000000
      3535        31  OSM       O14            19.0328370613      -13.2912552834       18.8116738511  MEMB      31              0.0000000000
      3536        31  OSM       O11            21.1670092894      -12.1748304495       18.1160887753  MEMB      31              0.0000000000
      3537        31  OSM       O12            20.0198394497      -11.4528306916       20.1566228824  MEMB      31              0.0000000000
      3538        31  OSM       C1S            20.4893893200      -11.9232599828       16.8859401969  MEMB      31              0.0000000000
      3539        31  OSM       H1S            21.0854273655      -11.2035249116       16.2847835438  MEMB      31              0.0000000000
      3540        31  OSM       H1T            19.5029643579      -11.4311615406       17.0632886763  MEMB      31              0.0000000000
      3541        31  OSM       NF             21.4915543774      -13.4092002138       15.2416977725  MEMB      31              0.0000000000
      3542        31  OSM       HNF            21.4958643302      -13.0654081201       14.3177742736  MEMB      31              0.0000000000
      3543        31  OSM       C2S            20.2893216992      -13.2195329777       16.0376809207  MEMB      31              0.0000000000
      3544        31  OSM       H2S            20.1394499030      -14.1027111696       16.6965501218  MEMB      31              0.0000000000
      3545        31  OSM       C3S            18.9931760903      -13.0211689124       15.2107027076  MEMB      31              0.0000000000
      3546        31  OSM       H3S            18.8581639324      -11.9455838187       14.9510578973  MEMB      31              0.0000000000
      3547        31  OSM       O3             17.8362511009      -13.4257257278       15.9277870704  MEMB      31              0.0000000000
      3548        31  OSM       HO3            18.1599183093      -13.6268738764       16.8194364343  MEMB      31              0.0000000000
      3549        31  OSM       C4S            18.9905958544      -13.8254214561       13.9434167347  MEMB      31              0.0000000000
      3550        31  OSM       H4S            18.6360619898      -14.8675199241       13.9932037711  MEMB      31              0.0000000000
      3551        31  OSM       C5S            19.3640949963      -13.2551875064       12.7884046181  MEMB      31              0.0000000000
      3552        31  OSM       H5S            19.6567279680      -12.1919620866       12.8170437191  MEMB      31              0.0000000000
      3553        31  OSM       C6S            19.4063369897      -13.8660160571       11.4198116285  MEMB      31              0.0000000000
      3554        31  OSM       H6S            19.1688897246      -14.9548353992       11.4196882738  MEMB      31              0.0000000000
      3555        31  OSM       H6T            20.3863457176      -13.7250781047       10.9210607467  MEMB      31              0.0000000000
      3556        31  OSM       C7S            18.2983122346      -13.0845531774       10.6996886682  MEMB      31              0.0000000000
      3557        31  OSM       H7S            18.2917543424      -11.9963360798       10.9624767813  MEMB      31              0.0000000000
      3558        31  OSM       H7T            17.3166090772      -13.5092048439       11.0238885160  MEMB      31              0.0000000000
      3559        31  OSM       C8S            18.3651007444      -13.0965251657        9.1768443841  MEMB      31              0.0000000000
      3560        31  OSM       H8S            18.6028631851      -14.1055954683        8.7849702251  MEMB      31              0.0000000000
      3561        31  OSM       H8T            19.1854842766      -12.4215523706        8.8498323445  MEMB      31              0.0000000000
      3562        31  OSM       C9S            17.0108295713      -12.6326897355        8.6323220884  MEMB      31              0.0000000000
      3563        31  OSM       H9S            16.4005702486      -12.2115288868        9.4657931102  MEMB      31              0.0000000000
      3564        31  OSM       H9T            16.4479798737      -13.5167298875        8.2602167790  MEMB      31              0.0000000000
      3565        31  OSM       C10S           17.0732005385      -11.5434488715        7.5606008485  MEMB      31              0.0000000000
      3566        31  OSM       H10S           17.2871889542      -10.5569112392        8.0301795901  MEMB      31              0.0000000000
      3567        31  OSM       H10T           16.0503310507      -11.4971807879        7.1348600687  MEMB      31              0.0000000000
      3568        31  OSM       C11S           18.0609275780      -11.7853528169        6.4157400504  MEMB      31              0.0000000000
      3569        31  OSM       H11S           19.1007658898      -11.6580546321        6.7888389993  MEMB      31              0.0000000000
      3570        31  OSM       H11T           17.8943359349      -10.9895529870        5.6544695627  MEMB      31              0.0000000000
      3571        31  OSM       C12S           17.9243052314      -13.1654873149        5.7531899505  MEMB      31              0.0000000000
      3572        31  OSM       H12S           18.3129150221      -13.9506385825        6.4377018395  MEMB      31              0.0000000000
      3573        31  OSM       H12T           18.5705722112      -13.1741304205        4.8477748485  MEMB      31              0.0000000000
      3574        31  OSM       C13S           16.4874694960      -13.5384782461        5.3466957213  MEMB      31              0.0000000000
      3575        31  OSM       H13S           15.8335860337      -12.6436737939        5.3654917438  MEMB      31              0.0000000000
      3576        31  OSM       H13T           16.0408155147      -14.2138888897        6.1022971332  MEMB      31              0.0000000000
      3577        31  OSM       C14S           16.4140728044      -14.2356165171        3.9801057557  MEMB      31              0.0000000000
      3578        31  OSM       H14S           15.3949432060      -14.6707919491        3.8688392989  MEMB      31              0.0000000000
      3579        31  OSM       H14T           17.1463502832      -15.0737429608        3.9767470090  MEMB      31              0.0000000000
      3580        31  OSM       C15S           16.6800419840      -13.3154377046        2.7757795084  MEMB      31              0.0000000000
      3581        31  OSM       H15S           16.1634887940      -13.7374889834        1.8851882544  MEMB      31              0.0000000000
      3582        31  OSM       H15T           17.7687987275      -13.3122208443        2.5471232593  MEMB      31              0.0000000000
      3583        31  OSM       C16S           16.2044543171      -11.8789848858        3.0346946775  MEMB      31              0.0000000000
      3584        31  OSM       H16S           16.8360423007      -11.4179051920        3.8249149526  MEMB      31              0.0000000000
      3585        31  OSM       H16T           15.1699291616      -11.9077021860        3.4302284554  MEMB      31              0.0000000000
      3586        31  OSM       C17S           16.2446223322      -10.9439076932        1.8360274758  MEMB      31              0.0000000000
      3587        31  OSM       H17S           15.5491722886      -10.1053214711        2.0301624996  MEMB      31              0.0000000000
      3588        31  OSM       H17T           15.8405977738      -11.4488641930        0.9371314222  MEMB      31              0.0000000000
      3589        31  OSM       C18S           17.6392375894      -10.3578345728        1.6396562556  MEMB      31              0.0000000000
      3590        31  OSM       H18S           17.9155870249       -9.7499875267        2.5291324483  MEMB      31              0.0000000000
      3591        31  OSM       H18T           17.6720174633       -9.7047716642        0.7429007333  MEMB      31              0.0000000000
      3592        31  OSM       H18U           18.3897722687      -11.1673618444        1.5302709739  MEMB      31              0.0000000000
      3593        31  OSM       C1F            22.5823511525      -13.9070475117       15.8018907048  MEMB      31              0.0000000000
      3594        31  OSM       OF             22.5584833180      -14.6567093294       16.7658444818  MEMB      31              0.0000000000
      3595        31  OSM       C2F            23.8810071322      -13.5941725576       15.1513292300  MEMB      31              0.0000000000
      3596        31  OSM       H2F            24.6889644109      -14.0241130362       15.7823813215  MEMB      31              0.0000000000
      3597        31  OSM       H2G            24.0248875109      -12.4950938470       15.1143171934  MEMB      31              0.0000000000
      3598        31  OSM       C3F            23.9410711060      -14.2138061063       13.7412693372  MEMB      31              0.0000000000
      3599        31  OSM       H3F            23.3760341189      -15.1695368553       13.6727452851  MEMB      31              0.0000000000
      3600        31  OSM       H3G            25.0031529153      -14.4480964575       13.5117706882  MEMB      31              0.0000000000
      3601        31  OSM       C4F            23.3984348888      -13.2740530580       12.6758797753  MEMB      31              0.0000000000
      3602        31  OSM       H4F            23.9832681079      -12.3291022146       12.6813880828  MEMB      31              0.0000000000
      3603        31  OSM       H4G            22.3416600283      -12.9999482930       12.8766315297  MEMB      31              0.0000000000
      3604        31  OSM       C5F            23.4473061535      -13.8797443143       11.2847486337  MEMB      31              0.0000000000
      3605        31  OSM       H5F            22.7921035717      -14.7768841869       11.2316524294  MEMB      31              0.0000000000
      3606        31  OSM       H5G            24.4828682197      -14.1916850378       11.0274047082  MEMB      31              0.0000000000
      3607        31  OSM       C6F            22.9873818308      -12.8114151812       10.3050821421  MEMB      31              0.0000000000
      3608        31  OSM       H6F            23.7882521553      -12.0419344387       10.2628583032  MEMB      31              0.0000000000
      3609        31  OSM       H6G            22.0754463992      -12.3072241524       10.6966148153  MEMB      31              0.0000000000
      3610        31  OSM       C7F            22.6634929938      -13.3630554905        8.9213015550  MEMB      31              0.0000000000
      3611        31  OSM       H7F            21.7486004149      -13.9884691661        9.0030583519  MEMB      31              0.0000000000
      3612        31  OSM       H7G            23.4923124649      -14.0131032736        8.5609732149  MEMB      31              0.0000000000
      3613        31  OSM       C8F            22.3710280220      -12.2482220038        7.9131890359  MEMB      31              0.0000000000
      3614        31  OSM       H8F            21.5552775955      -11.6102960637        8.3185254629  MEMB      31              0.0000000000
      3615        31  OSM       H8G            21.9719139082      -12.7302440796        6.9942933243  MEMB      31              0.0000000000
      3616        31  OSM       C9F            23.6174532693      -11.4345955800        7.6640319321  MEMB      31              0.0000000000
      3617        31  OSM       H9F            24.0411636123      -10.9312541362        8.5451493122  MEMB      31              0.0000000000
      3618        31  OSM       C10F           24.2402718265      -11.2755113359        6.4925600014  MEMB      31              0.0000000000
      3619        31  OSM       H10F           25.1781974302      -10.7003129049        6.4609751574  MEMB      31              0.0000000000
      3620        31  OSM       C11F           23.8004250616      -11.8876799913        5.1940765046  MEMB      31              0.0000000000
      3621        31  OSM       H11F           23.9865732905      -11.1692182016        4.3681259781  MEMB      31              0.0000000000
      3622        31  OSM       H11G           22.7106556265      -12.0992015630        5.1865732041  MEMB      31              0.0000000000
      3623        31  OSM       C12F           24.5435713214      -13.2080721175        4.9481026414  MEMB      31              0.0000000000
      3624        31  OSM       H12F           24.4000624791      -13.8881710914        5.8199646093  MEMB      31              0.0000000000
      3625        31  OSM       H12G           25.6321659341      -13.0081768406        4.8991027524  MEMB      31              0.0000000000
      3626        31  OSM       C13F           24.0724873973      -13.9642205081        3.6939060644  MEMB      31              0.0000000000
      3627        31  OSM       H13F           23.0323253184      -14.3173829923        3.8707203304  MEMB      31              0.0000000000
      3628        31  OSM       H13G           24.7166839035      -14.8588471053        3.5738244215  MEMB      31              0.0000000000
      3629        31  OSM       C14F           24.1063181777      -13.1575189398        2.3901939638  MEMB      31              0.0000000000
      3630        31  OSM       H14F           25.1501502747      -12.9097671321        2.1240053205  MEMB      31              0.0000000000
      3631        31  OSM       H14G           23.5700867722      -12.2008606279        2.5419051670  MEMB      31              0.0000000000
      3632        31  OSM       C15F           23.4689057546      -13.8658636419        1.1868606580  MEMB      31              0.0000000000
      3633        31  OSM       H15F           22.4381656377      -14.1677465484        1.4622778899  MEMB      31              0.0000000000
      3634        31  OSM       H15G           24.0481364068      -14.7793562596        0.9376107802  MEMB      31              0.0000000000
      3635        31  OSM       C16F           23.4191930308      -12.9252644252       -0.0211394919  MEMB      31              0.0000000000
      3636        31  OSM       H16F           24.4213267109      -12.4476065500       -0.1231479280  MEMB      31              0.0000000000
      3637        31  OSM       H16G           22.6537114542      -12.1418369661        0.1786958680  MEMB      31              0.0000000000
      3638        31  OSM       C17F           23.0969255087      -13.5426388497       -1.3738099895  MEMB      31              0.0000000000
      3639        31  OSM       H17F           22.0859789239      -14.0034737850       -1.3442456268  MEMB      31              0.0000000000
      3640        31  OSM       H17G           23.8311164365      -14.3400579509       -1.5606237093  MEMB      31              0.0000000000
      3641        31  OSM       C18F           23.2012948754      -12.5331825659       -2.5203251151  MEMB      31              0.0000000000
      3642        31  OSM       H18F           22.7806628202      -12.9548265799       -3.4576390635  MEMB      31              0.0000000000
      3643        31  OSM       H18G           24.2450321701      -12.2216386217       -2.6976284506  MEMB      31              0.0000000000
      3644        31  OSM       H18H           22.6408132366      -11.6106257179       -2.2636791056  MEMB      31              0.0000000000
      3645        32  CHL1      C3             18.9968456655       14.2494232185       17.4280797848  MEMB      32              0.0000000000
      3646        32  CHL1      H3             17.8977515941       14.0957757357       17.3958455066  MEMB      32              0.0000000000
      3647        32  CHL1      O3             19.4172008573       14.1761902030       18.7827138708  MEMB      32              0.0000000000
      3648        32  CHL1      H3'            19.1047660122       14.9832437491       19.2215641534  MEMB      32              0.0000000000
      3649        32  CHL1      C4             19.7143576770       13.1513433317       16.6095648066  MEMB      32              0.0000000000
      3650        32  CHL1      H4A            20.8008355796       13.2457824084       16.8301187879  MEMB      32              0.0000000000
      3651        32  CHL1      H4B            19.3944402898       12.1735299611       17.0336787465  MEMB      32              0.0000000000
      3652        32  CHL1      C5             19.4914274882       13.2153053170       15.1037330831  MEMB      32              0.0000000000
      3653        32  CHL1      C6             19.1113006838       12.1424013758       14.3744637770  MEMB      32              0.0000000000
      3654        32  CHL1      H6             18.9764313594       11.1663918191       14.8661906813  MEMB      32              0.0000000000
      3655        32  CHL1      C7             18.9706341705       12.1458918178       12.8702042293  MEMB      32              0.0000000000
      3656        32  CHL1      H7A            19.4866309965       11.2654972693       12.4265427544  MEMB      32              0.0000000000
      3657        32  CHL1      H7B            17.8977538339       12.0799751650       12.5860546565  MEMB      32              0.0000000000
      3658        32  CHL1      C8             19.5690029254       13.4276171692       12.2276187098  MEMB      32              0.0000000000
      3659        32  CHL1      H8             20.6746054563       13.3379444769       12.2945324066  MEMB      32              0.0000000000
      3660        32  CHL1      C14            19.2104959186       13.5360177556       10.7459718637  MEMB      32              0.0000000000
      3661        32  CHL1      H14            18.0937019412       13.5511223782       10.6824444439  MEMB      32              0.0000000000
      3662        32  CHL1      C15            19.6699540519       12.3884883503        9.8218796141  MEMB      32              0.0000000000
      3663        32  CHL1      H15A           20.6738518335       12.0317523921       10.1396545589  MEMB      32              0.0000000000
      3664        32  CHL1      H15B           18.9596008971       11.5389879441        9.8539964628  MEMB      32              0.0000000000
      3665        32  CHL1      C16            19.7610281263       13.0206885047        8.4202293582  MEMB      32              0.0000000000
      3666        32  CHL1      H16A           20.8023655265       12.9044563667        8.0480144850  MEMB      32              0.0000000000
      3667        32  CHL1      H16B           19.0690973914       12.5384849173        7.7006660323  MEMB      32              0.0000000000
      3668        32  CHL1      C17            19.4142935679       14.5344159109        8.5844681507  MEMB      32              0.0000000000
      3669        32  CHL1      H17            18.3093081094       14.6096428467        8.4519464918  MEMB      32              0.0000000000
      3670        32  CHL1      C13            19.6920100418       14.8240080816       10.0845622703  MEMB      32              0.0000000000
      3671        32  CHL1      C18            21.2242465808       14.9630211115       10.2394889517  MEMB      32              0.0000000000
      3672        32  CHL1      H18A           21.5487139145       15.8836747838        9.7220175547  MEMB      32              0.0000000000
      3673        32  CHL1      H18B           21.5337237623       15.0500273202       11.2978549126  MEMB      32              0.0000000000
      3674        32  CHL1      H18C           21.7682781761       14.1057173478        9.7990848836  MEMB      32              0.0000000000
      3675        32  CHL1      C12            18.9334144638       15.9713675941       10.7871436410  MEMB      32              0.0000000000
      3676        32  CHL1      H12A           19.2041316820       16.9622040173       10.3850207426  MEMB      32              0.0000000000
      3677        32  CHL1      H12B           17.8417865939       15.8262542678       10.6397726432  MEMB      32              0.0000000000
      3678        32  CHL1      C11            19.2549474414       16.0156288499       12.2973002373  MEMB      32              0.0000000000
      3679        32  CHL1      H11A           20.2919657219       16.3896324512       12.4041415299  MEMB      32              0.0000000000
      3680        32  CHL1      H11B           18.5911517995       16.7694410312       12.7731997135  MEMB      32              0.0000000000
      3681        32  CHL1      C9             19.0958082741       14.6509606095       13.0303044461  MEMB      32              0.0000000000
      3682        32  CHL1      H9             17.9878872019       14.5164859487       13.1165492605  MEMB      32              0.0000000000
      3683        32  CHL1      C10            19.6548774870       14.6240718954       14.4846785599  MEMB      32              0.0000000000
      3684        32  CHL1      C19            21.1672283797       14.9841119257       14.4668659472  MEMB      32              0.0000000000
      3685        32  CHL1      H19A           21.3111347587       16.0490040078       14.1968153942  MEMB      32              0.0000000000
      3686        32  CHL1      H19B           21.6262147526       14.8433805200       15.4650702203  MEMB      32              0.0000000000
      3687        32  CHL1      H19C           21.7354830436       14.3568394912       13.7557181134  MEMB      32              0.0000000000
      3688        32  CHL1      C1             18.9069610680       15.6727041071       15.3608522034  MEMB      32              0.0000000000
      3689        32  CHL1      H1A            19.1189691483       16.6895042997       14.9701334813  MEMB      32              0.0000000000
      3690        32  CHL1      H1B            17.8125863580       15.4936437630       15.2743702255  MEMB      32              0.0000000000
      3691        32  CHL1      C2             19.2929762765       15.6372990176       16.8518235486  MEMB      32              0.0000000000
      3692        32  CHL1      H2A            18.7148970217       16.4082750522       17.4050702932  MEMB      32              0.0000000000
      3693        32  CHL1      H2B            20.3733323783       15.8690453255       16.9755433894  MEMB      32              0.0000000000
      3694        32  CHL1      C20            20.0670194301       15.4346653393        7.5047544429  MEMB      32              0.0000000000
      3695        32  CHL1      H20            21.1556057990       15.5430524808        7.7071104345  MEMB      32              0.0000000000
      3696        32  CHL1      C21            19.4113001924       16.8330524651        7.5833540505  MEMB      32              0.0000000000
      3697        32  CHL1      H21A           19.6431839657       17.3261186879        8.5396506121  MEMB      32              0.0000000000
      3698        32  CHL1      H21B           18.3102854717       16.7590115921        7.4643808279  MEMB      32              0.0000000000
      3699        32  CHL1      H21C           19.8072845584       17.5250477430        6.8186362658  MEMB      32              0.0000000000
      3700        32  CHL1      C22            19.9673702042       14.8423518741        6.0633037696  MEMB      32              0.0000000000
      3701        32  CHL1      H22A           20.5266886040       13.8836558301        6.0052997212  MEMB      32              0.0000000000
      3702        32  CHL1      H22B           18.8976278192       14.6158791796        5.8722716438  MEMB      32              0.0000000000
      3703        32  CHL1      C23            20.4942470555       15.7489139839        4.9202612366  MEMB      32              0.0000000000
      3704        32  CHL1      H23A           20.0314099565       16.7433681274        5.0486832229  MEMB      32              0.0000000000
      3705        32  CHL1      H23B           21.5954442473       15.8716780389        4.9915953733  MEMB      32              0.0000000000
      3706        32  CHL1      C24            20.0964683065       15.2428357196        3.5163727549  MEMB      32              0.0000000000
      3707        32  CHL1      H24A           20.6755799848       14.3333774527        3.2495580845  MEMB      32              0.0000000000
      3708        32  CHL1      H24B           19.0389116992       14.9401498327        3.5909047977  MEMB      32              0.0000000000
      3709        32  CHL1      C25            20.1232118850       16.2604114561        2.3451309506  MEMB      32              0.0000000000
      3710        32  CHL1      H25            19.2816184140       15.9930023611        1.6641731778  MEMB      32              0.0000000000
      3711        32  CHL1      C26            19.8641876206       17.7164385343        2.7605702785  MEMB      32              0.0000000000
      3712        32  CHL1      H26A           18.9784693851       17.7707495894        3.4272858695  MEMB      32              0.0000000000
      3713        32  CHL1      H26B           20.7404741995       18.1338158893        3.2989303369  MEMB      32              0.0000000000
      3714        32  CHL1      H26C           19.6544744494       18.3373876170        1.8670030152  MEMB      32              0.0000000000
      3715        32  CHL1      C27            21.3738889839       16.1106940174        1.4832808191  MEMB      32              0.0000000000
      3716        32  CHL1      H27A           21.5014545806       16.9842242450        0.8084084149  MEMB      32              0.0000000000
      3717        32  CHL1      H27B           22.2655913970       15.9995294661        2.1305286477  MEMB      32              0.0000000000
      3718        32  CHL1      H27C           21.2811049215       15.2030656270        0.8581343829  MEMB      32              0.0000000000
      3719        33  SAPE      N              13.5915690609      -18.7028434520       18.9739600697  MEMB      33              0.0000000000
      3720        33  SAPE      HN1            13.6987400347      -19.7014610388       18.7161390403  MEMB      33              0.0000000000
      3721        33  SAPE      HN2            12.7913698706      -18.3018296507       18.4384256778  MEMB      33              0.0000000000
      3722        33  SAPE      HN3            14.5027393942      -18.2363330642       18.7418113525  MEMB      33              0.0000000000
      3723        33  SAPE      C12            13.3817423327      -18.6322785519       20.4632734880  MEMB      33              0.0000000000
      3724        33  SAPE      H12A           12.4100317738      -19.1058242583       20.7058360071  MEMB      33              0.0000000000
      3725        33  SAPE      H12B           13.3524780032      -17.5625500388       20.7558317260  MEMB      33              0.0000000000
      3726        33  SAPE      C11            14.5359512924      -19.3438490565       21.1781827405  MEMB      33              0.0000000000
      3727        33  SAPE      H11A           14.5362992349      -20.4214096294       20.8890985198  MEMB      33              0.0000000000
      3728        33  SAPE      H11B           14.3654506749      -19.2744324929       22.2737858771  MEMB      33              0.0000000000
      3729        33  SAPE      P              17.1698440117      -19.3580303411       20.8711855915  MEMB      33              0.0000000000
      3730        33  SAPE      O13            18.0049059677      -18.5991254448       21.8229090228  MEMB      33              0.0000000000
      3731        33  SAPE      O14            17.0444901099      -20.8062944944       21.1482224296  MEMB      33              0.0000000000
      3732        33  SAPE      O12            15.7502897982      -18.6968888652       20.8614771962  MEMB      33              0.0000000000
      3733        33  SAPE      O11            17.5940320009      -19.1140842483       19.3755206262  MEMB      33              0.0000000000
      3734        33  SAPE      C1             16.8572497792      -19.6298032293       18.2728462336  MEMB      33              0.0000000000
      3735        33  SAPE      HA             17.3819706507      -20.5425712535       17.9102062774  MEMB      33              0.0000000000
      3736        33  SAPE      HB             15.8339745794      -19.9585004556       18.5322024026  MEMB      33              0.0000000000
      3737        33  SAPE      C2             16.8463530704      -18.6138472544       17.0925584266  MEMB      33              0.0000000000
      3738        33  SAPE      HS             17.9191309047      -18.2899766259       17.0076132456  MEMB      33              0.0000000000
      3739        33  SAPE      O21            15.9578729310      -17.4786432497       17.2872860227  MEMB      33              0.0000000000
      3740        33  SAPE      C21            16.2658671488      -16.5421560804       16.3538390257  MEMB      33              0.0000000000
      3741        33  SAPE      O22            17.3873902406      -16.3220970024       15.9473787244  MEMB      33              0.0000000000
      3742        33  SAPE      C22            14.9577266326      -16.1080362494       15.6930201638  MEMB      33              0.0000000000
      3743        33  SAPE      H2R            14.1886094194      -16.8835578526       15.8797056807  MEMB      33              0.0000000000
      3744        33  SAPE      H2S            14.6404932080      -15.1875563917       16.2035539935  MEMB      33              0.0000000000
      3745        33  SAPE      C3             16.4516439344      -19.3161669047       15.7593562259  MEMB      33              0.0000000000
      3746        33  SAPE      HX             16.9945116241      -20.2809116888       15.7435091420  MEMB      33              0.0000000000
      3747        33  SAPE      HY             16.8318380399      -18.6882574744       14.9149361467  MEMB      33              0.0000000000
      3748        33  SAPE      O31            15.0212867003      -19.5730932794       15.6472293588  MEMB      33              0.0000000000
      3749        33  SAPE      C31            14.7829372922      -20.1299443928       14.4436655269  MEMB      33              0.0000000000
      3750        33  SAPE      O32            15.6253545625      -20.2881912027       13.5890911281  MEMB      33              0.0000000000
      3751        33  SAPE      C32            13.3665882042      -20.6804191916       14.3427163716  MEMB      33              0.0000000000
      3752        33  SAPE      H2X            12.8691216097      -20.6233503072       15.3279388933  MEMB      33              0.0000000000
      3753        33  SAPE      H2Y            13.5439059690      -21.7337366439       14.0734041438  MEMB      33              0.0000000000
      3754        33  SAPE      C23            15.0903097734      -15.8577584514       14.1659559952  MEMB      33              0.0000000000
      3755        33  SAPE      H3R            16.1433193318      -15.6675671244       13.8647140377  MEMB      33              0.0000000000
      3756        33  SAPE      H3S            14.5595994611      -14.9123480326       13.9419333085  MEMB      33              0.0000000000
      3757        33  SAPE      C24            14.4993358090      -16.9874548681       13.2958249914  MEMB      33              0.0000000000
      3758        33  SAPE      H4R            13.9358159680      -17.6758274640       13.9549783305  MEMB      33              0.0000000000
      3759        33  SAPE      H4S            15.3384855727      -17.5805472324       12.8629174209  MEMB      33              0.0000000000
      3760        33  SAPE      C25            13.5261209707      -16.5075056824       12.2479966944  MEMB      33              0.0000000000
      3761        33  SAPE      H5R            12.6346470821      -16.0184343914       12.6651324217  MEMB      33              0.0000000000
      3762        33  SAPE      C26            13.6213636620      -16.6258409383       10.9095377333  MEMB      33              0.0000000000
      3763        33  SAPE      H6R            12.7723330256      -16.2877211154       10.3028523498  MEMB      33              0.0000000000
      3764        33  SAPE      C27            14.7229443508      -17.2661138790       10.1043758984  MEMB      33              0.0000000000
      3765        33  SAPE      H7R            14.3919858893      -17.3320692312        9.0463474212  MEMB      33              0.0000000000
      3766        33  SAPE      H7S            14.8721148550      -18.3146742302       10.4261599543  MEMB      33              0.0000000000
      3767        33  SAPE      C28            16.0567107173      -16.5914941436       10.2364906283  MEMB      33              0.0000000000
      3768        33  SAPE      H8R            16.3681978886      -16.3792096170       11.2713177504  MEMB      33              0.0000000000
      3769        33  SAPE      C29            16.9008072624      -16.2804808680        9.2456856230  MEMB      33              0.0000000000
      3770        33  SAPE      H9R            17.8406190072      -15.7899868713        9.5296412180  MEMB      33              0.0000000000
      3771        33  SAPE      C210           16.7298799836      -16.5186887386        7.7696583492  MEMB      33              0.0000000000
      3772        33  SAPE      H10R           16.8910725886      -15.5420687094        7.2830157023  MEMB      33              0.0000000000
      3773        33  SAPE      H10S           15.6879047508      -16.8137935359        7.5190835146  MEMB      33              0.0000000000
      3774        33  SAPE      C211           17.7225931931      -17.4948227617        7.1896951229  MEMB      33              0.0000000000
      3775        33  SAPE      H11R           18.7743010636      -17.3224231959        7.4551833248  MEMB      33              0.0000000000
      3776        33  SAPE      C212           17.4468082599      -18.4503523845        6.2866412315  MEMB      33              0.0000000000
      3777        33  SAPE      H12R           18.2688904974      -19.0595554481        5.8808973837  MEMB      33              0.0000000000
      3778        33  SAPE      C213           16.0955271298      -18.7249248240        5.6797909640  MEMB      33              0.0000000000
      3779        33  SAPE      H13R           15.2898958997      -18.6739218807        6.4433395826  MEMB      33              0.0000000000
      3780        33  SAPE      H13S           16.0598794271      -19.7684738148        5.2940724199  MEMB      33              0.0000000000
      3781        33  SAPE      C214           15.8130116192      -17.7283753820        4.5810390078  MEMB      33              0.0000000000
      3782        33  SAPE      H14R           15.0967278990      -16.9339455514        4.8438301470  MEMB      33              0.0000000000
      3783        33  SAPE      C215           16.3476813796      -17.7455449282        3.3462691916  MEMB      33              0.0000000000
      3784        33  SAPE      H15R           16.0655291057      -16.9660280710        2.6233460214  MEMB      33              0.0000000000
      3785        33  SAPE      C216           17.3271324681      -18.7714224646        2.8400948966  MEMB      33              0.0000000000
      3786        33  SAPE      H16R           17.1163096522      -19.0789807278        1.7919926825  MEMB      33              0.0000000000
      3787        33  SAPE      H16S           17.2866581245      -19.6899583425        3.4595076529  MEMB      33              0.0000000000
      3788        33  SAPE      C217           18.7592392339      -18.2551779087        2.9010484162  MEMB      33              0.0000000000
      3789        33  SAPE      H17R           19.4295709158      -19.1106419046        2.6502165481  MEMB      33              0.0000000000
      3790        33  SAPE      H17S           18.9877095573      -17.9118141357        3.9345409708  MEMB      33              0.0000000000
      3791        33  SAPE      C218           19.0449720621      -17.1308026325        1.9115756397  MEMB      33              0.0000000000
      3792        33  SAPE      H18R           18.5661952708      -16.1855535431        2.2562689256  MEMB      33              0.0000000000
      3793        33  SAPE      H18S           18.6050666360      -17.4337360817        0.9360596598  MEMB      33              0.0000000000
      3794        33  SAPE      C219           20.5313983065      -16.9035421934        1.6733723662  MEMB      33              0.0000000000
      3795        33  SAPE      H19R           21.0204394220      -17.8907335891        1.5025768061  MEMB      33              0.0000000000
      3796        33  SAPE      H19S           20.9858801360      -16.4460857906        2.5816415069  MEMB      33              0.0000000000
      3797        33  SAPE      C220           20.7955791765      -16.0147975991        0.4665827618  MEMB      33              0.0000000000
      3798        33  SAPE      H20R           20.3539911652      -16.4491998350       -0.4559156945  MEMB      33              0.0000000000
      3799        33  SAPE      H20S           21.8904850440      -15.9191132391        0.3190556837  MEMB      33              0.0000000000
      3800        33  SAPE      H20T           20.3771168557      -14.9988508960        0.6242424504  MEMB      33              0.0000000000
      3801        33  SAPE      C33            12.4557386628      -20.1378683664       13.2108845578  MEMB      33              0.0000000000
      3802        33  SAPE      H3X            12.0863069325      -19.1282841519       13.4948321613  MEMB      33              0.0000000000
      3803        33  SAPE      H3Y            11.5717394295      -20.8144871816       13.1373685481  MEMB      33              0.0000000000
      3804        33  SAPE      C34            13.0728498464      -20.0317972747       11.8036261690  MEMB      33              0.0000000000
      3805        33  SAPE      H4X            13.9106339598      -19.3103007604       11.8561168302  MEMB      33              0.0000000000
      3806        33  SAPE      H4Y            12.2916711757      -19.6083602006       11.1361354508  MEMB      33              0.0000000000
      3807        33  SAPE      C35            13.6194703465      -21.3233601424       11.1745065723  MEMB      33              0.0000000000
      3808        33  SAPE      H5X            12.8314641270      -22.1058203579       11.1879161409  MEMB      33              0.0000000000
      3809        33  SAPE      H5Y            14.4706422307      -21.6732999752       11.8030538301  MEMB      33              0.0000000000
      3810        33  SAPE      C36            14.1612755998      -21.1749640497        9.7339819370  MEMB      33              0.0000000000
      3811        33  SAPE      H6X            14.7162751543      -22.1141953933        9.5037068135  MEMB      33              0.0000000000
      3812        33  SAPE      H6Y            14.9027564134      -20.3497863350        9.6808472068  MEMB      33              0.0000000000
      3813        33  SAPE      C37            13.0865262223      -20.9984902456        8.6414882375  MEMB      33              0.0000000000
      3814        33  SAPE      H7X            12.1616598708      -21.5226703844        8.9619936536  MEMB      33              0.0000000000
      3815        33  SAPE      H7Y            13.4460020856      -21.4807150577        7.7026790850  MEMB      33              0.0000000000
      3816        33  SAPE      C38            12.7777001244      -19.5316400731        8.3069778955  MEMB      33              0.0000000000
      3817        33  SAPE      H8X            13.6430609073      -19.0930170416        7.7637260889  MEMB      33              0.0000000000
      3818        33  SAPE      H8Y            12.6660738218      -18.9486119065        9.2430073291  MEMB      33              0.0000000000
      3819        33  SAPE      C39            11.5039319309      -19.3232748581        7.4721246769  MEMB      33              0.0000000000
      3820        33  SAPE      H9X            10.6675916793      -19.9143191108        7.9036445695  MEMB      33              0.0000000000
      3821        33  SAPE      H9Y            11.6869828000      -19.7103360716        6.4514013716  MEMB      33              0.0000000000
      3822        33  SAPE      C310           11.1199379190      -17.8339362901        7.4399523362  MEMB      33              0.0000000000
      3823        33  SAPE      H10X           12.0543229624      -17.2358543934        7.3525831434  MEMB      33              0.0000000000
      3824        33  SAPE      H10Y           10.6787084370      -17.5835300470        8.4318493345  MEMB      33              0.0000000000
      3825        33  SAPE      C311           10.1357507532      -17.3988616433        6.3347312424  MEMB      33              0.0000000000
      3826        33  SAPE      H11X            9.9714883366      -16.3006900861        6.4235673702  MEMB      33              0.0000000000
      3827        33  SAPE      H11Y            9.1551595244      -17.8937036260        6.5227381394  MEMB      33              0.0000000000
      3828        33  SAPE      C312           10.5483741290      -17.7064677744        4.8802631438  MEMB      33              0.0000000000
      3829        33  SAPE      H12X            9.7993426893      -17.2586845022        4.1886093047  MEMB      33              0.0000000000
      3830        33  SAPE      H12Y           10.4649662385      -18.8050453781        4.7513792061  MEMB      33              0.0000000000
      3831        33  SAPE      C313           11.9480349041      -17.2193308693        4.4542750128  MEMB      33              0.0000000000
      3832        33  SAPE      H13X           12.6206466167      -17.1476988366        5.3369575678  MEMB      33              0.0000000000
      3833        33  SAPE      H13Y           11.8676057180      -16.1957746198        4.0235168355  MEMB      33              0.0000000000
      3834        33  SAPE      C314           12.6367682134      -18.1678689574        3.4552868309  MEMB      33              0.0000000000
      3835        33  SAPE      H14X           13.5743304337      -17.6902306948        3.1033192577  MEMB      33              0.0000000000
      3836        33  SAPE      H14Y           11.9965968103      -18.3137524400        2.5590614545  MEMB      33              0.0000000000
      3837        33  SAPE      C315           12.9465348669      -19.5244744065        4.1167078778  MEMB      33              0.0000000000
      3838        33  SAPE      H15X           11.9829147762      -20.0513119031        4.2861577534  MEMB      33              0.0000000000
      3839        33  SAPE      H15Y           13.4136681662      -19.3498884385        5.1099551450  MEMB      33              0.0000000000
      3840        33  SAPE      C316           13.8226090898      -20.4973996548        3.3223457589  MEMB      33              0.0000000000
      3841        33  SAPE      H16X           14.8708396776      -20.1396954736        3.2679506822  MEMB      33              0.0000000000
      3842        33  SAPE      H16Y           13.4356884118      -20.5337319983        2.2936254519  MEMB      33              0.0000000000
      3843        33  SAPE      C317           13.7719326039      -21.9234021568        3.8920648607  MEMB      33              0.0000000000
      3844        33  SAPE      H17X           12.7423858079      -22.1199953914        4.2675125438  MEMB      33              0.0000000000
      3845        33  SAPE      H17Y           14.4560081789      -21.9755397406        4.7676229982  MEMB      33              0.0000000000
      3846        33  SAPE      C318           14.1230605235      -23.0141214440        2.8757153926  MEMB      33              0.0000000000
      3847        33  SAPE      H18X           13.2400853537      -23.2707913910        2.2541016830  MEMB      33              0.0000000000
      3848        33  SAPE      H18Y           14.4698100683      -23.9337926289        3.3928890787  MEMB      33              0.0000000000
      3849        33  SAPE      H18Z           14.9292487291      -22.6697062432        2.1934207831  MEMB      33              0.0000000000
      3850        34  SAPS      N               0.7263204623      -23.9889424133       18.7371414314  MEMB      34              0.0000000000
      3851        34  SAPS      HN1             0.9602029973      -23.4189267771       17.9071788377  MEMB      34              0.0000000000
      3852        34  SAPS      HN2             0.5103923550      -24.9859906093       18.5268294375  MEMB      34              0.0000000000
      3853        34  SAPS      HN3            -0.1136570461      -23.5688106221       19.2319405473  MEMB      34              0.0000000000
      3854        34  SAPS      C12             1.8056002292      -23.9732448436       19.7631493775  MEMB      34              0.0000000000
      3855        34  SAPS      H12A            1.9828713769      -22.9426763780       20.0486888424  MEMB      34              0.0000000000
      3856        34  SAPS      C13             1.3582995168      -24.7769024901       21.0283928509  MEMB      34              0.0000000000
      3857        34  SAPS      O13A            0.3164988503      -25.4881705607       20.9196098269  MEMB      34              0.0000000000
      3858        34  SAPS      O13B            1.6032638427      -24.2346880915       22.1353492713  MEMB      34              0.0000000000
      3859        34  SAPS      C11             3.1038306346      -24.5473468631       19.1199049469  MEMB      34              0.0000000000
      3860        34  SAPS      H11A            3.2196977267      -24.1630951822       18.0839370698  MEMB      34              0.0000000000
      3861        34  SAPS      H11B            3.0365125500      -25.6594788539       19.0428450562  MEMB      34              0.0000000000
      3862        34  SAPS      P               5.3824496018      -25.0260849408       20.3677684712  MEMB      34              0.0000000000
      3863        34  SAPS      O13             6.3141406042      -24.2285076236       21.1952116765  MEMB      34              0.0000000000
      3864        34  SAPS      O14             4.7798887562      -26.2043974053       21.0233291269  MEMB      34              0.0000000000
      3865        34  SAPS      O12             4.2354986317      -24.0901928089       19.8445762897  MEMB      34              0.0000000000
      3866        34  SAPS      O11             6.1051376787      -25.5092423561       19.0848410080  MEMB      34              0.0000000000
      3867        34  SAPS      C1              6.9936688523      -24.7336404155       18.3045164350  MEMB      34              0.0000000000
      3868        34  SAPS      HA              6.9088287497      -23.6377761837       18.4984587842  MEMB      34              0.0000000000
      3869        34  SAPS      HB              8.0333034165      -25.0590601299       18.5388774636  MEMB      34              0.0000000000
      3870        34  SAPS      C2              6.6752271647      -25.0158872865       16.8233141917  MEMB      34              0.0000000000
      3871        34  SAPS      HS              7.5720631669      -24.7301329166       16.2261348635  MEMB      34              0.0000000000
      3872        34  SAPS      O21             5.5344861207      -24.2097450905       16.4761574341  MEMB      34              0.0000000000
      3873        34  SAPS      C21             5.3814453397      -24.0086943806       15.1861612823  MEMB      34              0.0000000000
      3874        34  SAPS      O22             6.2024111416      -24.2581373136       14.3192116964  MEMB      34              0.0000000000
      3875        34  SAPS      C22             3.9573690369      -23.5033840998       14.9730283273  MEMB      34              0.0000000000
      3876        34  SAPS      H2R             3.2815797460      -24.1024668616       15.6162903972  MEMB      34              0.0000000000
      3877        34  SAPS      H2S             3.9159451018      -22.4380564443       15.2763800008  MEMB      34              0.0000000000
      3878        34  SAPS      C3              6.3834676825      -26.5434404648       16.6232324587  MEMB      34              0.0000000000
      3879        34  SAPS      HX              5.4758955586      -26.8317538629       17.1984477715  MEMB      34              0.0000000000
      3880        34  SAPS      HY              7.2262217412      -27.0898974476       17.1017766814  MEMB      34              0.0000000000
      3881        34  SAPS      O31             6.3148054626      -26.9282378075       15.2352171031  MEMB      34              0.0000000000
      3882        34  SAPS      C31             5.1079772929      -27.0018699193       14.6748038968  MEMB      34              0.0000000000
      3883        34  SAPS      O32             4.0443281106      -26.9041867817       15.2556814022  MEMB      34              0.0000000000
      3884        34  SAPS      C32             5.3088043897      -27.1398453955       13.1539212665  MEMB      34              0.0000000000
      3885        34  SAPS      H2X             5.9331435489      -28.0449277153       13.0059958221  MEMB      34              0.0000000000
      3886        34  SAPS      H2Y             5.8932064553      -26.2575714538       12.8205846016  MEMB      34              0.0000000000
      3887        34  SAPS      C23             3.5345348126      -23.6832159811       13.5067343818  MEMB      34              0.0000000000
      3888        34  SAPS      H3R             3.4619906743      -24.7654292463       13.2998613695  MEMB      34              0.0000000000
      3889        34  SAPS      H3S             4.3317363632      -23.3205276708       12.8289733151  MEMB      34              0.0000000000
      3890        34  SAPS      C24             2.2145079027      -22.9842637076       13.1567590086  MEMB      34              0.0000000000
      3891        34  SAPS      H4R             2.2305940470      -22.7620182812       12.0677578619  MEMB      34              0.0000000000
      3892        34  SAPS      H4S             2.1506791220      -21.9989219513       13.6681365750  MEMB      34              0.0000000000
      3893        34  SAPS      C25             1.0338185930      -23.8623661749       13.4897376101  MEMB      34              0.0000000000
      3894        34  SAPS      H5R             0.5915969477      -23.7005722255       14.4822332126  MEMB      34              0.0000000000
      3895        34  SAPS      C26             0.4941356449      -24.7904973031       12.6720865478  MEMB      34              0.0000000000
      3896        34  SAPS      H6R            -0.3539610256      -25.3927478937       13.0288553707  MEMB      34              0.0000000000
      3897        34  SAPS      C27             0.9416000286      -25.1467719079       11.2760214835  MEMB      34              0.0000000000
      3898        34  SAPS      H7R             1.1657619625      -26.2344907081       11.2332478249  MEMB      34              0.0000000000
      3899        34  SAPS      H7S             1.9014915069      -24.6471058258       11.0421911246  MEMB      34              0.0000000000
      3900        34  SAPS      C28            -0.0845924674      -24.8185838358       10.2161352793  MEMB      34              0.0000000000
      3901        34  SAPS      H8R            -0.9154998740      -25.5365216740       10.1308516655  MEMB      34              0.0000000000
      3902        34  SAPS      C29            -0.0956915796      -23.7349089258        9.4129321319  MEMB      34              0.0000000000
      3903        34  SAPS      H9R            -0.8979657236      -23.6461344361        8.6635946728  MEMB      34              0.0000000000
      3904        34  SAPS      C210            0.9111674545      -22.6094331734        9.3973904418  MEMB      34              0.0000000000
      3905        34  SAPS      H10R            0.9763262917      -22.1742246329       10.4176574976  MEMB      34              0.0000000000
      3906        34  SAPS      H10S            0.5022936646      -21.7822174440        8.7768756512  MEMB      34              0.0000000000
      3907        34  SAPS      C211            2.2995692496      -22.9714237043        8.9291937075  MEMB      34              0.0000000000
      3908        34  SAPS      H11R            3.0028394928      -23.2540654258        9.7296774697  MEMB      34              0.0000000000
      3909        34  SAPS      C212            2.7315878404      -23.0014214802        7.6570761329  MEMB      34              0.0000000000
      3910        34  SAPS      H12R            3.7767948159      -23.2933711295        7.4613243339  MEMB      34              0.0000000000
      3911        34  SAPS      C213            1.9193343138      -22.6815028054        6.4273892463  MEMB      34              0.0000000000
      3912        34  SAPS      H13R            2.4366087465      -21.9102923200        5.8162228039  MEMB      34              0.0000000000
      3913        34  SAPS      H13S            0.9309604663      -22.2474972290        6.6895959769  MEMB      34              0.0000000000
      3914        34  SAPS      C214            1.7200794060      -23.9522921731        5.6471965148  MEMB      34              0.0000000000
      3915        34  SAPS      H14R            1.8896881495      -24.8774544682        6.2150488246  MEMB      34              0.0000000000
      3916        34  SAPS      C215            1.3743351030      -24.0443800431        4.3550285518  MEMB      34              0.0000000000
      3917        34  SAPS      H15R            1.2524171800      -25.0360429075        3.8902886893  MEMB      34              0.0000000000
      3918        34  SAPS      C216            1.1219646921      -22.8752378356        3.4530624318  MEMB      34              0.0000000000
      3919        34  SAPS      H16R            0.5847558977      -22.0524562555        3.9800625819  MEMB      34              0.0000000000
      3920        34  SAPS      H16S            0.4867730087      -23.2011839852        2.5971891926  MEMB      34              0.0000000000
      3921        34  SAPS      C217            2.4153281494      -22.3164608234        2.8760795126  MEMB      34              0.0000000000
      3922        34  SAPS      H17R            2.9724499471      -23.1432439609        2.3798475149  MEMB      34              0.0000000000
      3923        34  SAPS      H17S            3.0684689056      -21.9029853902        3.6759258605  MEMB      34              0.0000000000
      3924        34  SAPS      C218            2.1074909481      -21.2385860686        1.8394861424  MEMB      34              0.0000000000
      3925        34  SAPS      H18R            1.8241102822      -20.2876126764        2.3422977940  MEMB      34              0.0000000000
      3926        34  SAPS      H18S            1.2221896500      -21.5681685489        1.2623834109  MEMB      34              0.0000000000
      3927        34  SAPS      C219            3.3051529911      -21.0191145045        0.9214275368  MEMB      34              0.0000000000
      3928        34  SAPS      H19R            2.9919756538      -20.5406905670       -0.0336252505  MEMB      34              0.0000000000
      3929        34  SAPS      H19S            3.7816389250      -21.9973987570        0.6802101829  MEMB      34              0.0000000000
      3930        34  SAPS      C220            4.2863219516      -20.0959992811        1.5985932637  MEMB      34              0.0000000000
      3931        34  SAPS      H20R            4.0178971122      -19.0617112954        1.3120158992  MEMB      34              0.0000000000
      3932        34  SAPS      H20S            5.3440761261      -20.3106115562        1.3597661671  MEMB      34              0.0000000000
      3933        34  SAPS      H20T            4.1680239851      -20.2046205735        2.6850290589  MEMB      34              0.0000000000
      3934        34  SAPS      C33             4.0398182700      -27.2841350706       12.2759923480  MEMB      34              0.0000000000
      3935        34  SAPS      H3X             3.3567086806      -26.4178279780       12.3206340754  MEMB      34              0.0000000000
      3936        34  SAPS      H3Y             3.4447467937      -28.1352047595       12.6597088097  MEMB      34              0.0000000000
      3937        34  SAPS      C34             4.4015771240      -27.5313280549       10.8012068109  MEMB      34              0.0000000000
      3938        34  SAPS      H4X             3.5930272560      -28.1390761911       10.3431377402  MEMB      34              0.0000000000
      3939        34  SAPS      H4Y             5.3278722946      -28.1355510959       10.7328894750  MEMB      34              0.0000000000
      3940        34  SAPS      C35             4.5411211991      -26.2353570681        9.9819705776  MEMB      34              0.0000000000
      3941        34  SAPS      H5X             5.3596054111      -25.5996609925       10.3767235427  MEMB      34              0.0000000000
      3942        34  SAPS      H5Y             3.5899653388      -25.6679626779       10.1157818373  MEMB      34              0.0000000000
      3943        34  SAPS      C36             4.6960056126      -26.4963252452        8.4739366228  MEMB      34              0.0000000000
      3944        34  SAPS      H6X             3.8327932964      -26.0021510174        7.9713879599  MEMB      34              0.0000000000
      3945        34  SAPS      H6Y             4.6278710182      -27.5926525888        8.2959069309  MEMB      34              0.0000000000
      3946        34  SAPS      C37             5.9518581045      -25.9549836971        7.7742075440  MEMB      34              0.0000000000
      3947        34  SAPS      H7X             6.8418298046      -26.5651897017        8.0385750107  MEMB      34              0.0000000000
      3948        34  SAPS      H7Y             6.1379200787      -24.9147713547        8.1280629959  MEMB      34              0.0000000000
      3949        34  SAPS      C38             5.7784493560      -25.9001955941        6.2374087100  MEMB      34              0.0000000000
      3950        34  SAPS      H8X             6.7084759049      -25.4958432645        5.7809692654  MEMB      34              0.0000000000
      3951        34  SAPS      H8Y             4.9556291809      -25.1806878599        6.0180013905  MEMB      34              0.0000000000
      3952        34  SAPS      C39             5.4202433578      -27.2321630441        5.5461419265  MEMB      34              0.0000000000
      3953        34  SAPS      H9X             4.6973058068      -27.7997626094        6.1701908576  MEMB      34              0.0000000000
      3954        34  SAPS      H9Y             6.3154160700      -27.8706267943        5.4445949195  MEMB      34              0.0000000000
      3955        34  SAPS      C310            4.7686504041      -27.0530439717        4.1624372685  MEMB      34              0.0000000000
      3956        34  SAPS      H10X            3.8656059048      -26.4159880336        4.2946180746  MEMB      34              0.0000000000
      3957        34  SAPS      H10Y            4.4298048180      -28.0471322014        3.8010976088  MEMB      34              0.0000000000
      3958        34  SAPS      C311            5.6643020319      -26.4360631275        3.0742111272  MEMB      34              0.0000000000
      3959        34  SAPS      H11X            6.3019436359      -27.2285253777        2.6247389647  MEMB      34              0.0000000000
      3960        34  SAPS      H11Y            6.3467354911      -25.6874867130        3.5352616096  MEMB      34              0.0000000000
      3961        34  SAPS      C312            4.8664526145      -25.7141324472        1.9689246817  MEMB      34              0.0000000000
      3962        34  SAPS      H12X            5.5842301636      -25.2959546187        1.2281680651  MEMB      34              0.0000000000
      3963        34  SAPS      H12Y            4.3400643787      -24.8565645341        2.4405573347  MEMB      34              0.0000000000
      3964        34  SAPS      C313            3.8325013236      -26.5834086042        1.2275605040  MEMB      34              0.0000000000
      3965        34  SAPS      H13X            3.1764675307      -27.0972363657        1.9641745690  MEMB      34              0.0000000000
      3966        34  SAPS      H13Y            4.3744536078      -27.3627163036        0.6546881107  MEMB      34              0.0000000000
      3967        34  SAPS      C314            2.9241021349      -25.7784380285        0.2768092170  MEMB      34              0.0000000000
      3968        34  SAPS      H14X            3.5340138142      -25.0844322255       -0.3420880117  MEMB      34              0.0000000000
      3969        34  SAPS      H14Y            2.2617020867      -25.1590487148        0.9227509373  MEMB      34              0.0000000000
      3970        34  SAPS      C315            2.0501332895      -26.6464671756       -0.6565562737  MEMB      34              0.0000000000
      3971        34  SAPS      H15X            1.9571196152      -27.6491382025       -0.1889687104  MEMB      34              0.0000000000
      3972        34  SAPS      H15Y            2.5653183140      -26.7934497746       -1.6258406880  MEMB      34              0.0000000000
      3973        34  SAPS      C316            0.6240132399      -26.0926087712       -0.8416731284  MEMB      34              0.0000000000
      3974        34  SAPS      H16X            0.5855707923      -25.0860144452       -0.3843323149  MEMB      34              0.0000000000
      3975        34  SAPS      H16Y           -0.0759854881      -26.7103862547       -0.2335548617  MEMB      34              0.0000000000
      3976        34  SAPS      C317            0.0344478666      -25.9939035056       -2.2674551598  MEMB      34              0.0000000000
      3977        34  SAPS      H17X           -0.7781704625      -25.2364882977       -2.2049320514  MEMB      34              0.0000000000
      3978        34  SAPS      H17Y           -0.4520844854      -26.9485120475       -2.5541545169  MEMB      34              0.0000000000
      3979        34  SAPS      C318            0.9266866074      -25.5758108632       -3.4325013904  MEMB      34              0.0000000000
      3980        34  SAPS      H18X            0.2831221047      -25.4768892065       -4.3282515262  MEMB      34              0.0000000000
      3981        34  SAPS      H18Y            1.7194065426      -26.3247313032       -3.6389714134  MEMB      34              0.0000000000
      3982        34  SAPS      H18Z            1.3750420427      -24.5838913482       -3.2712212213  MEMB      34              0.0000000000
      3983        35  SAPC      N              22.3727796658       -4.9170632047       21.4818300098  MEMB      35              0.0000000000
      3984        35  SAPC      C12            23.8310959463       -5.1310824149       21.8861506072  MEMB      35              0.0000000000
      3985        35  SAPC      H12A           23.8802261142       -5.7186346990       22.7947946216  MEMB      35              0.0000000000
      3986        35  SAPC      H12B           24.2642375633       -4.1768224238       22.1744888150  MEMB      35              0.0000000000
      3987        35  SAPC      C13            21.6406635279       -4.0367099012       22.4312494550  MEMB      35              0.0000000000
      3988        35  SAPC      H13A           22.0394574878       -3.0240013133       22.4675799151  MEMB      35              0.0000000000
      3989        35  SAPC      H13B           20.5946265424       -3.9297910752       22.1631092147  MEMB      35              0.0000000000
      3990        35  SAPC      H13C           21.6860671508       -4.4446288016       23.4374023766  MEMB      35              0.0000000000
      3991        35  SAPC      C14            22.3646567055       -4.2676916315       20.1670532959  MEMB      35              0.0000000000
      3992        35  SAPC      H14A           22.8228285927       -4.9023433852       19.4100452396  MEMB      35              0.0000000000
      3993        35  SAPC      H14B           21.3921110991       -3.9609222858       19.8277992769  MEMB      35              0.0000000000
      3994        35  SAPC      H14C           23.0279870248       -3.4009869171       20.1557145925  MEMB      35              0.0000000000
      3995        35  SAPC      C15            21.6944734641       -6.2395298623       21.3634657744  MEMB      35              0.0000000000
      3996        35  SAPC      H15A           22.2711653427       -6.9037354474       20.7201773379  MEMB      35              0.0000000000
      3997        35  SAPC      H15B           21.6185415939       -6.7310538198       22.3327237815  MEMB      35              0.0000000000
      3998        35  SAPC      H15C           20.7065941567       -6.1173605295       20.9437158860  MEMB      35              0.0000000000
      3999        35  SAPC      C11            24.7911179053       -5.7667730510       20.8518432959  MEMB      35              0.0000000000
      4000        35  SAPC      H11A           24.4191164861       -6.7625220945       20.5315170690  MEMB      35              0.0000000000
      4001        35  SAPC      H11B           25.7601777703       -5.9539341590       21.3821098962  MEMB      35              0.0000000000
      4002        35  SAPC      P              26.3099657159       -4.3879882584       19.2243156980  MEMB      35              0.0000000000
      4003        35  SAPC      O13            26.0921125814       -2.9787789945       18.8393013295  MEMB      35              0.0000000000
      4004        35  SAPC      O14            27.3097897501       -4.6444310213       20.2696803756  MEMB      35              0.0000000000
      4005        35  SAPC      O12            24.9182921161       -4.9112122850       19.7139985510  MEMB      35              0.0000000000
      4006        35  SAPC      O11            26.5575685726       -5.3471024700       17.9659019455  MEMB      35              0.0000000000
      4007        35  SAPC      C1             26.3001262037       -4.9987292921       16.5937833483  MEMB      35              0.0000000000
      4008        35  SAPC      HA             26.2704732357       -3.8975337647       16.5110044617  MEMB      35              0.0000000000
      4009        35  SAPC      HB             27.1287359279       -5.2860709405       15.9044249441  MEMB      35              0.0000000000
      4010        35  SAPC      C2             24.9826063781       -5.6003751996       15.9650277375  MEMB      35              0.0000000000
      4011        35  SAPC      HS             24.4630422885       -6.1755346554       16.7643349777  MEMB      35              0.0000000000
      4012        35  SAPC      O21            25.2647806595       -6.4590676919       14.8300720824  MEMB      35              0.0000000000
      4013        35  SAPC      C21            24.2161435873       -7.1433569391       14.3518013946  MEMB      35              0.0000000000
      4014        35  SAPC      O22            23.1369465182       -7.2744959425       14.9010448493  MEMB      35              0.0000000000
      4015        35  SAPC      C22            24.5340513264       -7.6013841148       12.9172753578  MEMB      35              0.0000000000
      4016        35  SAPC      H2R            24.6190967078       -6.6610121709       12.3418149481  MEMB      35              0.0000000000
      4017        35  SAPC      H2S            25.5137867495       -8.1170825103       12.8986968699  MEMB      35              0.0000000000
      4018        35  SAPC      C3             24.0963693486       -4.4026550386       15.5106795085  MEMB      35              0.0000000000
      4019        35  SAPC      HX             23.7045248062       -4.0383200343       16.4627645709  MEMB      35              0.0000000000
      4020        35  SAPC      HY             23.2681549634       -4.7010500017       14.8318369620  MEMB      35              0.0000000000
      4021        35  SAPC      O31            24.9190050032       -3.4102720159       14.9001517873  MEMB      35              0.0000000000
      4022        35  SAPC      C31            24.5076347497       -2.2656615162       14.4314141695  MEMB      35              0.0000000000
      4023        35  SAPC      O32            23.4336742858       -1.7194075730       14.5679555946  MEMB      35              0.0000000000
      4024        35  SAPC      C32            25.6432648156       -1.7447878264       13.5961443798  MEMB      35              0.0000000000
      4025        35  SAPC      H2X            26.5490115119       -1.8365081155       14.2331950883  MEMB      35              0.0000000000
      4026        35  SAPC      H2Y            25.5012218384       -0.6676095730       13.3907509042  MEMB      35              0.0000000000
      4027        35  SAPC      C23            23.4176157570       -8.4367784163       12.2298615438  MEMB      35              0.0000000000
      4028        35  SAPC      H3R            22.4261710516       -8.0256623006       12.5349338494  MEMB      35              0.0000000000
      4029        35  SAPC      H3S            23.4804332090       -9.4906034380       12.5819373248  MEMB      35              0.0000000000
      4030        35  SAPC      C24            23.5213385108       -8.3741344745       10.6842149593  MEMB      35              0.0000000000
      4031        35  SAPC      H4R            24.5072803744       -8.8059271985       10.4089432243  MEMB      35              0.0000000000
      4032        35  SAPC      H4S            23.5453694252       -7.3033289795       10.3838437249  MEMB      35              0.0000000000
      4033        35  SAPC      C25            22.4359235916       -9.1164250536        9.9372887951  MEMB      35              0.0000000000
      4034        35  SAPC      H5R            22.1573634590      -10.0862321535       10.3805100880  MEMB      35              0.0000000000
      4035        35  SAPC      C26            21.8204700979       -8.7527618689        8.7882761996  MEMB      35              0.0000000000
      4036        35  SAPC      H6R            21.0750873024       -9.4424805392        8.3593398885  MEMB      35              0.0000000000
      4037        35  SAPC      C27            22.0400227794       -7.5221642305        7.9397514131  MEMB      35              0.0000000000
      4038        35  SAPC      H7R            22.1998540586       -7.8231283296        6.8794490525  MEMB      35              0.0000000000
      4039        35  SAPC      H7S            22.9636379415       -6.9758128168        8.2321656505  MEMB      35              0.0000000000
      4040        35  SAPC      C28            20.8562675462       -6.5971005641        8.0674614679  MEMB      35              0.0000000000
      4041        35  SAPC      H8R            20.8114875963       -6.0638018630        9.0297722885  MEMB      35              0.0000000000
      4042        35  SAPC      C29            19.8772582708       -6.3587858179        7.1725477107  MEMB      35              0.0000000000
      4043        35  SAPC      H9R            19.1091005913       -5.6257072778        7.4594122060  MEMB      35              0.0000000000
      4044        35  SAPC      C210           19.6878309603       -6.9468962422        5.7924859882  MEMB      35              0.0000000000
      4045        35  SAPC      H10R           18.9652842922       -7.7937700087        5.8448779853  MEMB      35              0.0000000000
      4046        35  SAPC      H10S           20.6309594594       -7.3684491735        5.3859785288  MEMB      35              0.0000000000
      4047        35  SAPC      C211           19.1168866885       -5.8851697258        4.8845743527  MEMB      35              0.0000000000
      4048        35  SAPC      H11R           18.0377665927       -5.7358571202        4.9975268205  MEMB      35              0.0000000000
      4049        35  SAPC      C212           19.7398867498       -5.1726570180        3.9294640193  MEMB      35              0.0000000000
      4050        35  SAPC      H12R           19.1653379370       -4.3864751323        3.4135184084  MEMB      35              0.0000000000
      4051        35  SAPC      C213           21.1842065163       -5.2616527132        3.5209865288  MEMB      35              0.0000000000
      4052        35  SAPC      H13R           21.2574855063       -5.1685596346        2.4152502338  MEMB      35              0.0000000000
      4053        35  SAPC      H13S           21.5973039446       -6.2628749830        3.7649641457  MEMB      35              0.0000000000
      4054        35  SAPC      C214           22.0044987396       -4.2107896884        4.2151993398  MEMB      35              0.0000000000
      4055        35  SAPC      H14R           22.3234561398       -4.4773662247        5.2363664516  MEMB      35              0.0000000000
      4056        35  SAPC      C215           22.4278095667       -3.0454356654        3.6956726442  MEMB      35              0.0000000000
      4057        35  SAPC      H15R           23.0687650509       -2.4109417533        4.3254110519  MEMB      35              0.0000000000
      4058        35  SAPC      C216           22.2050686468       -2.4919155050        2.3120176670  MEMB      35              0.0000000000
      4059        35  SAPC      H16R           22.2203512266       -3.3152691170        1.5696502823  MEMB      35              0.0000000000
      4060        35  SAPC      H16S           23.0956582897       -1.8764296089        2.1006875355  MEMB      35              0.0000000000
      4061        35  SAPC      C217           20.9938306031       -1.6030430175        1.9666564512  MEMB      35              0.0000000000
      4062        35  SAPC      H17R           20.4526755953       -1.2619255352        2.8677102212  MEMB      35              0.0000000000
      4063        35  SAPC      H17S           20.2879127442       -2.2480363333        1.4035791448  MEMB      35              0.0000000000
      4064        35  SAPC      C218           21.3517606348       -0.3363743951        1.1540439866  MEMB      35              0.0000000000
      4065        35  SAPC      H18R           21.7516947641        0.4290041841        1.8469603458  MEMB      35              0.0000000000
      4066        35  SAPC      H18S           20.4205804557        0.0864627498        0.7133489517  MEMB      35              0.0000000000
      4067        35  SAPC      C219           22.3902559150       -0.5321494383        0.0402678060  MEMB      35              0.0000000000
      4068        35  SAPC      H19R           22.0782448271       -1.3931790900       -0.5895722412  MEMB      35              0.0000000000
      4069        35  SAPC      H19S           23.3736933617       -0.7995213572        0.4769290985  MEMB      35              0.0000000000
      4070        35  SAPC      C220           22.5862602299        0.7203179003       -0.8172320682  MEMB      35              0.0000000000
      4071        35  SAPC      H20R           21.6040640400        1.1799862371       -1.0461853257  MEMB      35              0.0000000000
      4072        35  SAPC      H20S           23.0857335398        0.4533353208       -1.7729878274  MEMB      35              0.0000000000
      4073        35  SAPC      H20T           23.2040603969        1.4774103235       -0.2889955727  MEMB      35              0.0000000000
      4074        35  SAPC      C33            25.8228450047       -2.5760654406       12.3043606536  MEMB      35              0.0000000000
      4075        35  SAPC      H3X            26.9006692629       -2.8172376200       12.2324060797  MEMB      35              0.0000000000
      4076        35  SAPC      H3Y            25.5297506708       -1.9647646267       11.4250548662  MEMB      35              0.0000000000
      4077        35  SAPC      C34            25.1809306358       -3.9638055999       12.1664496776  MEMB      35              0.0000000000
      4078        35  SAPC      H4X            24.0775194266       -3.8794511566       12.0318318442  MEMB      35              0.0000000000
      4079        35  SAPC      H4Y            25.3996857488       -4.5947331127       13.0531277976  MEMB      35              0.0000000000
      4080        35  SAPC      C35            25.8020860871       -4.6476648585       10.9551534032  MEMB      35              0.0000000000
      4081        35  SAPC      H5X            25.8321416924       -5.7504182216       11.0504415507  MEMB      35              0.0000000000
      4082        35  SAPC      H5Y            26.8555994575       -4.3141230102       10.7994557621  MEMB      35              0.0000000000
      4083        35  SAPC      C36            24.9927062087       -4.3151866843        9.7256955210  MEMB      35              0.0000000000
      4084        35  SAPC      H6X            24.8663771861       -3.2114221939        9.6407767045  MEMB      35              0.0000000000
      4085        35  SAPC      H6Y            23.9833395974       -4.7751870281        9.8175557460  MEMB      35              0.0000000000
      4086        35  SAPC      C37            25.7112162650       -4.8295357646        8.5031069480  MEMB      35              0.0000000000
      4087        35  SAPC      H7X            25.8469313996       -5.9304083685        8.5984719168  MEMB      35              0.0000000000
      4088        35  SAPC      H7Y            26.7251396322       -4.3645509911        8.4660555959  MEMB      35              0.0000000000
      4089        35  SAPC      C38            24.9315660235       -4.4830093213        7.2476881098  MEMB      35              0.0000000000
      4090        35  SAPC      H8X            24.5550299911       -3.4365493536        7.3228261320  MEMB      35              0.0000000000
      4091        35  SAPC      H8Y            24.0449620625       -5.1503696697        7.1607149869  MEMB      35              0.0000000000
      4092        35  SAPC      C39            25.8172284652       -4.5869232564        6.0167894704  MEMB      35              0.0000000000
      4093        35  SAPC      H9X            26.5474726532       -3.7489608875        6.0778945367  MEMB      35              0.0000000000
      4094        35  SAPC      H9Y            25.1941638528       -4.4071968923        5.1185716381  MEMB      35              0.0000000000
      4095        35  SAPC      C310           26.6259848116       -5.8932945295        5.9201565568  MEMB      35              0.0000000000
      4096        35  SAPC      H10X           27.4264079944       -5.8057240098        6.6853814597  MEMB      35              0.0000000000
      4097        35  SAPC      H10Y           27.1416527551       -5.9427226640        4.9355249633  MEMB      35              0.0000000000
      4098        35  SAPC      C311           25.8634089674       -7.2111790038        6.1796999660  MEMB      35              0.0000000000
      4099        35  SAPC      H11X           24.9878890942       -7.0730879102        6.8448409041  MEMB      35              0.0000000000
      4100        35  SAPC      H11Y           26.5480316542       -7.9275033822        6.6881441468  MEMB      35              0.0000000000
      4101        35  SAPC      C312           25.4211759453       -7.9037998931        4.8994535700  MEMB      35              0.0000000000
      4102        35  SAPC      H12X           25.0040001973       -8.9138097723        5.1053036393  MEMB      35              0.0000000000
      4103        35  SAPC      H12Y           26.3129144024       -8.0343817255        4.2543334827  MEMB      35              0.0000000000
      4104        35  SAPC      C313           24.3869733655       -7.1226359692        4.1150169500  MEMB      35              0.0000000000
      4105        35  SAPC      H13X           24.4433744599       -6.0362273788        4.2923393137  MEMB      35              0.0000000000
      4106        35  SAPC      H13Y           23.3781970239       -7.4431764990        4.4579072002  MEMB      35              0.0000000000
      4107        35  SAPC      C314           24.5484817100       -7.3822218927        2.6231651909  MEMB      35              0.0000000000
      4108        35  SAPC      H14X           23.6148649242       -6.9997747896        2.1565964394  MEMB      35              0.0000000000
      4109        35  SAPC      H14Y           24.5934469877       -8.4796756546        2.4647752592  MEMB      35              0.0000000000
      4110        35  SAPC      C315           25.7765936298       -6.7535563489        1.9323242315  MEMB      35              0.0000000000
      4111        35  SAPC      H15X           25.6900685758       -6.9465378180        0.8430543520  MEMB      35              0.0000000000
      4112        35  SAPC      H15Y           26.7136988801       -7.2383428086        2.2704940021  MEMB      35              0.0000000000
      4113        35  SAPC      C316           25.8948881569       -5.2452867214        2.1133036044  MEMB      35              0.0000000000
      4114        35  SAPC      H16X           26.7302030816       -4.8416185127        1.4988642559  MEMB      35              0.0000000000
      4115        35  SAPC      H16Y           26.1198219387       -5.0525317978        3.1799606241  MEMB      35              0.0000000000
      4116        35  SAPC      C317           24.6189337275       -4.5256811645        1.7073528484  MEMB      35              0.0000000000
      4117        35  SAPC      H17X           24.7306895052       -3.4480245884        1.9282382070  MEMB      35              0.0000000000
      4118        35  SAPC      H17Y           23.7751867053       -4.8974162714        2.3233995964  MEMB      35              0.0000000000
      4119        35  SAPC      C318           24.2602193632       -4.6918332392        0.2397521089  MEMB      35              0.0000000000
      4120        35  SAPC      H18X           25.1392286922       -4.4527619777       -0.3937291247  MEMB      35              0.0000000000
      4121        35  SAPC      H18Y           23.4277849257       -4.0056457242       -0.0230059252  MEMB      35              0.0000000000
      4122        35  SAPC      H18Z           23.9283274628       -5.7272514299        0.0194631145  MEMB      35              0.0000000000
      4123        36  POPC      N              -6.5465573390      -26.0104102799       20.6344797511  MEMB      36              0.0000000000
      4124        36  POPC      C12            -5.7438274298      -26.6228917502       19.4959186589  MEMB      36              0.0000000000
      4125        36  POPC      H12A           -6.4487590369      -27.1476702213       18.8483357037  MEMB      36              0.0000000000
      4126        36  POPC      H12B           -5.0135931803      -27.3275036045       19.8580841368  MEMB      36              0.0000000000
      4127        36  POPC      C13            -7.7772434111      -25.4535367323       19.9865180611  MEMB      36              0.0000000000
      4128        36  POPC      H13A           -8.4605663270      -26.2585633043       19.7341402324  MEMB      36              0.0000000000
      4129        36  POPC      H13B           -8.2927735079      -24.7635102483       20.6237263149  MEMB      36              0.0000000000
      4130        36  POPC      H13C           -7.4983123554      -24.9546586000       19.0549288889  MEMB      36              0.0000000000
      4131        36  POPC      C14            -6.9854521994      -26.9776185321       21.6712587320  MEMB      36              0.0000000000
      4132        36  POPC      H14A           -7.6133809753      -26.4998087505       22.4295428575  MEMB      36              0.0000000000
      4133        36  POPC      H14B           -7.6438716839      -27.7152452204       21.2267448578  MEMB      36              0.0000000000
      4134        36  POPC      H14C           -6.1681851353      -27.4918335520       22.1593606068  MEMB      36              0.0000000000
      4135        36  POPC      C15            -5.7562284617      -24.9437628072       21.3019047729  MEMB      36              0.0000000000
      4136        36  POPC      H15A           -4.8870861856      -25.3674107413       21.7916876256  MEMB      36              0.0000000000
      4137        36  POPC      H15B           -6.3591917575      -24.3593211311       21.9791498293  MEMB      36              0.0000000000
      4138        36  POPC      H15C           -5.3717614989      -24.2571502752       20.5405909197  MEMB      36              0.0000000000
      4139        36  POPC      C11            -4.9798436642      -25.6215412427       18.5892907797  MEMB      36              0.0000000000
      4140        36  POPC      H11A           -4.5799936144      -26.2016822133       17.7264915171  MEMB      36              0.0000000000
      4141        36  POPC      H11B           -4.0931475700      -25.2196455326       19.1401587803  MEMB      36              0.0000000000
      4142        36  POPC      P              -5.4508958712      -23.0630356318       18.1400504959  MEMB      36              0.0000000000
      4143        36  POPC      O13            -5.0238936288      -22.7515011737       19.5233619819  MEMB      36              0.0000000000
      4144        36  POPC      O14            -6.4935487335      -22.2068279357       17.5469147817  MEMB      36              0.0000000000
      4145        36  POPC      O12            -5.8493943811      -24.5976886155       18.0972703975  MEMB      36              0.0000000000
      4146        36  POPC      O11            -4.1953982331      -23.0154313364       17.1691036035  MEMB      36              0.0000000000
      4147        36  POPC      C1             -4.0495290612      -23.9373786785       16.0812663724  MEMB      36              0.0000000000
      4148        36  POPC      HA             -4.9740785625      -24.4931997495       15.8073590388  MEMB      36              0.0000000000
      4149        36  POPC      HB             -3.3159408824      -24.7004023747       16.4219065610  MEMB      36              0.0000000000
      4150        36  POPC      C2             -3.4943106993      -23.2719229176       14.7860229377  MEMB      36              0.0000000000
      4151        36  POPC      HS             -2.9204889240      -22.3934160827       15.1134215465  MEMB      36              0.0000000000
      4152        36  POPC      O21            -4.5629396199      -22.9448959188       13.8431835925  MEMB      36              0.0000000000
      4153        36  POPC      C21            -4.2809975492      -22.2639544814       12.7148959854  MEMB      36              0.0000000000
      4154        36  POPC      O22            -3.1747792428      -21.8890302467       12.3883277858  MEMB      36              0.0000000000
      4155        36  POPC      C22            -5.5301048773      -22.1363577496       11.7894372070  MEMB      36              0.0000000000
      4156        36  POPC      H2R            -6.1475272901      -22.9915950109       11.9645569537  MEMB      36              0.0000000000
      4157        36  POPC      H2S            -5.0811245862      -22.2154117338       10.7718451453  MEMB      36              0.0000000000
      4158        36  POPC      C3             -2.4582534978      -24.2506101207       14.1909967120  MEMB      36              0.0000000000
      4159        36  POPC      HX             -1.6824644668      -24.3787300946       14.9815036253  MEMB      36              0.0000000000
      4160        36  POPC      HY             -1.9364656980      -23.7890996790       13.3246723522  MEMB      36              0.0000000000
      4161        36  POPC      O31            -3.0516773850      -25.5393408158       13.9395442354  MEMB      36              0.0000000000
      4162        36  POPC      C31            -3.3916485141      -25.7205384696       12.6722742306  MEMB      36              0.0000000000
      4163        36  POPC      O32            -3.1282192053      -24.9663196449       11.7551711489  MEMB      36              0.0000000000
      4164        36  POPC      C32            -4.1746085660      -27.0130156134       12.5269087142  MEMB      36              0.0000000000
      4165        36  POPC      H2X            -5.1800522963      -26.8618528898       12.9524721423  MEMB      36              0.0000000000
      4166        36  POPC      H2Y            -3.6596614213      -27.7724939890       13.1531687543  MEMB      36              0.0000000000
      4167        36  POPC      C23            -6.5114555191      -20.9160555876       11.7788801362  MEMB      36              0.0000000000
      4168        36  POPC      H3R            -6.5328270006      -20.5121447499       10.7434818241  MEMB      36              0.0000000000
      4169        36  POPC      H3S            -6.0062173515      -20.1519601427       12.4050583934  MEMB      36              0.0000000000
      4170        36  POPC      C24            -8.0136266652      -20.9525013659       12.2982496362  MEMB      36              0.0000000000
      4171        36  POPC      H4R            -8.1675951154      -19.8681256536       12.1302937420  MEMB      36              0.0000000000
      4172        36  POPC      H4S            -8.0059187074      -20.9639051923       13.3750646686  MEMB      36              0.0000000000
      4173        36  POPC      C25            -9.3466492214      -21.6231085790       11.7027207595  MEMB      36              0.0000000000
      4174        36  POPC      H5R            -9.3097462297      -22.0220758522       10.7002769381  MEMB      36              0.0000000000
      4175        36  POPC      H5S           -10.0066077550      -20.7441396019       11.5562461319  MEMB      36              0.0000000000
      4176        36  POPC      C26           -10.3483214322      -22.5189722808       12.5358981299  MEMB      36              0.0000000000
      4177        36  POPC      H6R           -11.1994564064      -21.8700765870       12.8310102261  MEMB      36              0.0000000000
      4178        36  POPC      H6S            -9.8650858451      -22.8080860436       13.4700950247  MEMB      36              0.0000000000
      4179        36  POPC      C27           -10.9869030868      -23.8753346611       12.0455398642  MEMB      36              0.0000000000
      4180        36  POPC      H7R           -11.9565421115      -23.9967513264       12.5807435774  MEMB      36              0.0000000000
      4181        36  POPC      H7S           -10.3762031493      -24.7005775456       12.4604946181  MEMB      36              0.0000000000
      4182        36  POPC      C28           -11.2090401319      -24.1783435349       10.5423356028  MEMB      36              0.0000000000
      4183        36  POPC      H8R           -10.4403447107      -23.6538237631        9.9538010287  MEMB      36              0.0000000000
      4184        36  POPC      H8S           -12.1858516047      -23.7457402912       10.2382986048  MEMB      36              0.0000000000
      4185        36  POPC      C29           -11.1742703558      -25.6694413579       10.2391290736  MEMB      36              0.0000000000
      4186        36  POPC      H91           -11.7266045150      -26.3069332028       10.9513734686  MEMB      36              0.0000000000
      4187        36  POPC      C210          -10.5239735507      -26.2909086489        9.2313364543  MEMB      36              0.0000000000
      4188        36  POPC      H101          -10.5550309560      -27.3792142697        9.1644970185  MEMB      36              0.0000000000
      4189        36  POPC      C211           -9.6703097604      -25.7103186212        8.1453050699  MEMB      36              0.0000000000
      4190        36  POPC      H11R           -8.8490547058      -26.4156664100        7.8945886849  MEMB      36              0.0000000000
      4191        36  POPC      H11S           -9.1799648892      -24.8027975562        8.5025374181  MEMB      36              0.0000000000
      4192        36  POPC      C212          -10.4342853693      -25.3349727826        6.8690254757  MEMB      36              0.0000000000
      4193        36  POPC      H12R          -11.1973805718      -24.5647104727        7.1272812270  MEMB      36              0.0000000000
      4194        36  POPC      H12S          -10.9612641315      -26.2209344126        6.4572181012  MEMB      36              0.0000000000
      4195        36  POPC      C213           -9.4985669985      -24.7607471798        5.7951336482  MEMB      36              0.0000000000
      4196        36  POPC      H13R           -8.8316679205      -24.0104820389        6.2696132395  MEMB      36              0.0000000000
      4197        36  POPC      H13S          -10.1105064976      -24.2295365223        5.0361434099  MEMB      36              0.0000000000
      4198        36  POPC      C214           -8.6575609207      -25.8313523577        5.0852445459  MEMB      36              0.0000000000
      4199        36  POPC      H14R           -9.3327380211      -26.4900967493        4.4941303960  MEMB      36              0.0000000000
      4200        36  POPC      H14S           -8.1502279721      -26.4653213477        5.8445118363  MEMB      36              0.0000000000
      4201        36  POPC      C215           -7.5846058919      -25.2495813909        4.1531517019  MEMB      36              0.0000000000
      4202        36  POPC      H15R           -6.9064475647      -26.0790470583        3.8446238403  MEMB      36              0.0000000000
      4203        36  POPC      H15S           -6.9695078679      -24.5011058400        4.7022754676  MEMB      36              0.0000000000
      4204        36  POPC      C216           -8.1716338750      -24.6165786394        2.8849251261  MEMB      36              0.0000000000
      4205        36  POPC      H16R           -8.7659287560      -23.7203964873        3.1555502361  MEMB      36              0.0000000000
      4206        36  POPC      H16S           -8.8535118584      -25.3504537612        2.3982007375  MEMB      36              0.0000000000
      4207        36  POPC      C217           -7.0832280860      -24.2125922024        1.8884180428  MEMB      36              0.0000000000
      4208        36  POPC      H17R           -6.3925623628      -25.0807957353        1.7813267961  MEMB      36              0.0000000000
      4209        36  POPC      H17S           -6.5076803800      -23.3614505542        2.3219765431  MEMB      36              0.0000000000
      4210        36  POPC      C218           -7.5962452914      -23.8345054217        0.4970279406  MEMB      36              0.0000000000
      4211        36  POPC      H18R           -6.7498883695      -23.5570685228       -0.1672055997  MEMB      36              0.0000000000
      4212        36  POPC      H18S           -8.2898591136      -22.9728751950        0.5516720376  MEMB      36              0.0000000000
      4213        36  POPC      H18T           -8.1357998836      -24.6909712073        0.0394051295  MEMB      36              0.0000000000
      4214        36  POPC      C33            -4.1805774461      -27.4919117446       11.0524548524  MEMB      36              0.0000000000
      4215        36  POPC      H3X            -4.4863428248      -28.5587707037       11.0006374222  MEMB      36              0.0000000000
      4216        36  POPC      H3Y            -3.1415437994      -27.4028440504       10.6890806432  MEMB      36              0.0000000000
      4217        36  POPC      C34            -4.9686914114      -26.7017646313       10.0009700416  MEMB      36              0.0000000000
      4218        36  POPC      H4X            -4.7340062146      -25.6236054568       10.1232901557  MEMB      36              0.0000000000
      4219        36  POPC      H4Y            -6.0620814151      -26.8377527727       10.1280358930  MEMB      36              0.0000000000
      4220        36  POPC      C35            -4.5390261243      -27.1241930497        8.5805846073  MEMB      36              0.0000000000
      4221        36  POPC      H5X            -4.7934926098      -28.1991119672        8.4372265167  MEMB      36              0.0000000000
      4222        36  POPC      H5Y            -3.4327529157      -27.0240407993        8.4868765982  MEMB      36              0.0000000000
      4223        36  POPC      C36            -5.1951562287      -26.3025459378        7.4689507449  MEMB      36              0.0000000000
      4224        36  POPC      H6X            -6.2964361216      -26.3091933392        7.6321530747  MEMB      36              0.0000000000
      4225        36  POPC      H6Y            -5.0049650926      -26.7743607646        6.4797302556  MEMB      36              0.0000000000
      4226        36  POPC      C37            -4.7125888483      -24.8480918404        7.4031100111  MEMB      36              0.0000000000
      4227        36  POPC      H7X            -4.6623635830      -24.3805027709        8.4079442667  MEMB      36              0.0000000000
      4228        36  POPC      H7Y            -5.4722902383      -24.2957979215        6.8095067313  MEMB      36              0.0000000000
      4229        36  POPC      C38            -3.3856299356      -24.6399417036        6.6685292925  MEMB      36              0.0000000000
      4230        36  POPC      H8X            -3.5103748574      -25.0891366270        5.6589116447  MEMB      36              0.0000000000
      4231        36  POPC      H8Y            -2.5461575138      -25.1643435178        7.1757101426  MEMB      36              0.0000000000
      4232        36  POPC      C39            -3.0850455961      -23.1371358373        6.5523897745  MEMB      36              0.0000000000
      4233        36  POPC      H9X            -2.7904142403      -22.7524141083        7.5560266490  MEMB      36              0.0000000000
      4234        36  POPC      H9Y            -4.0215603985      -22.6107282051        6.2603975557  MEMB      36              0.0000000000
      4235        36  POPC      C310           -1.9978062176      -22.7639726653        5.5393144070  MEMB      36              0.0000000000
      4236        36  POPC      H10X           -1.0148479243      -23.0662735052        5.9650718462  MEMB      36              0.0000000000
      4237        36  POPC      H10Y           -1.9748578793      -21.6585534839        5.4205665162  MEMB      36              0.0000000000
      4238        36  POPC      C311           -2.1260015649      -23.4397018734        4.1642261062  MEMB      36              0.0000000000
      4239        36  POPC      H11X           -1.8639346529      -24.5134963468        4.2942199937  MEMB      36              0.0000000000
      4240        36  POPC      H11Y           -1.3794941854      -22.9895586170        3.4817339063  MEMB      36              0.0000000000
      4241        36  POPC      C312           -3.4736195032      -23.3384020337        3.4398346322  MEMB      36              0.0000000000
      4242        36  POPC      H12X           -3.4992351773      -22.3874886157        2.8621021407  MEMB      36              0.0000000000
      4243        36  POPC      H12Y           -4.3274099334      -23.3365321223        4.1497410211  MEMB      36              0.0000000000
      4244        36  POPC      C313           -3.6698999981      -24.4591795828        2.4181743668  MEMB      36              0.0000000000
      4245        36  POPC      H13X           -4.5059932616      -24.1506449944        1.7551985901  MEMB      36              0.0000000000
      4246        36  POPC      H13Y           -3.9534901984      -25.4074837600        2.9259112865  MEMB      36              0.0000000000
      4247        36  POPC      C314           -2.4496992099      -24.6778511738        1.5244925902  MEMB      36              0.0000000000
      4248        36  POPC      H14X           -1.6638115148      -25.2528629899        2.0630735798  MEMB      36              0.0000000000
      4249        36  POPC      H14Y           -2.0227471512      -23.6813430154        1.2635194603  MEMB      36              0.0000000000
      4250        36  POPC      C315           -2.8304883574      -25.3853541343        0.2254079840  MEMB      36              0.0000000000
      4251        36  POPC      H15X           -1.9932005194      -25.2396969824       -0.4877239128  MEMB      36              0.0000000000
      4252        36  POPC      H15Y           -3.7261813715      -24.8865640362       -0.2116992602  MEMB      36              0.0000000000
      4253        36  POPC      C316           -3.0989214539      -26.8791295283        0.3913109476  MEMB      36              0.0000000000
      4254        36  POPC      H16X           -3.1149295583      -27.3751304127       -0.6025497160  MEMB      36              0.0000000000
      4255        36  POPC      H16Y           -4.0760227278      -27.0523858249        0.8917341282  MEMB      36              0.0000000000
      4256        36  POPC      H16Z           -2.2982749582      -27.3492808989        1.0019189771  MEMB      36              0.0000000000
      4257        37  SAPE      N              23.1578534079        7.3304793598       17.3606376263  MEMB      37              0.0000000000
      4258        37  SAPE      HN1            24.0369967778        7.6579244640       16.9065056499  MEMB      37              0.0000000000
      4259        37  SAPE      HN2            22.9772371978        6.3658977151       17.0273380159  MEMB      37              0.0000000000
      4260        37  SAPE      HN3            22.3611395366        7.9377981249       17.0636770198  MEMB      37              0.0000000000
      4261        37  SAPE      C12            23.3391052648        7.4167954451       18.8595530332  MEMB      37              0.0000000000
      4262        37  SAPE      H12A           22.5333791879        6.8411448980       19.3576837896  MEMB      37              0.0000000000
      4263        37  SAPE      H12B           23.2404698164        8.4894551513       19.1339096785  MEMB      37              0.0000000000
      4264        37  SAPE      C11            24.7183101617        6.8796049445       19.3012328976  MEMB      37              0.0000000000
      4265        37  SAPE      H11A           25.5348417644        7.4420464493       18.7891266953  MEMB      37              0.0000000000
      4266        37  SAPE      H11B           24.8253146785        5.8154590311       18.9808872999  MEMB      37              0.0000000000
      4267        37  SAPE      P              24.7313206332        8.2313233378       21.6162768246  MEMB      37              0.0000000000
      4268        37  SAPE      O13            23.3047485666        8.5838677763       21.7836596290  MEMB      37              0.0000000000
      4269        37  SAPE      O14            25.5796847649        8.1904540464       22.8227017193  MEMB      37              0.0000000000
      4270        37  SAPE      O12            24.8795129496        6.9211741072       20.7163780807  MEMB      37              0.0000000000
      4271        37  SAPE      O11            25.2884972751        9.3436145126       20.6787538937  MEMB      37              0.0000000000
      4272        37  SAPE      C1             26.6414302044        9.4054094213       20.2781175027  MEMB      37              0.0000000000
      4273        37  SAPE      HA             27.2914842462        9.7090789141       21.1259321803  MEMB      37              0.0000000000
      4274        37  SAPE      HB             27.0203829481        8.4338031187       19.8855993222  MEMB      37              0.0000000000
      4275        37  SAPE      C2             26.7123749686       10.4664993188       19.1800875503  MEMB      37              0.0000000000
      4276        37  SAPE      HS             26.4443319972       11.4367332291       19.6646472343  MEMB      37              0.0000000000
      4277        37  SAPE      O21            25.8036063771       10.0931564323       18.1199536632  MEMB      37              0.0000000000
      4278        37  SAPE      C21            24.9692264470       11.0419977478       17.7347530945  MEMB      37              0.0000000000
      4279        37  SAPE      O22            24.7109098964       12.0666256701       18.3276170805  MEMB      37              0.0000000000
      4280        37  SAPE      C22            24.4172160453       10.6604839552       16.3614570963  MEMB      37              0.0000000000
      4281        37  SAPE      H2R            25.2527061242       10.8445203387       15.6513116277  MEMB      37              0.0000000000
      4282        37  SAPE      H2S            24.1903673629        9.5830388940       16.3486550005  MEMB      37              0.0000000000
      4283        37  SAPE      C3             28.1458543563       10.6139476301       18.6313552841  MEMB      37              0.0000000000
      4284        37  SAPE      HX             28.8425772436       10.6737219745       19.4776645680  MEMB      37              0.0000000000
      4285        37  SAPE      HY             28.2310293397       11.5973529659       18.1254240724  MEMB      37              0.0000000000
      4286        37  SAPE      O31            28.5110928080        9.4864629525       17.8077829015  MEMB      37              0.0000000000
      4287        37  SAPE      C31            28.1538005037        9.6831462526       16.5476966724  MEMB      37              0.0000000000
      4288        37  SAPE      O32            27.6845555686       10.7164130969       16.0950279227  MEMB      37              0.0000000000
      4289        37  SAPE      C32            28.4243226583        8.4591043092       15.7078218410  MEMB      37              0.0000000000
      4290        37  SAPE      H2X            27.9833498672        7.5717324596       16.2057246869  MEMB      37              0.0000000000
      4291        37  SAPE      H2Y            29.5201686649        8.3120053532       15.6191908284  MEMB      37              0.0000000000
      4292        37  SAPE      C23            23.1865323333       11.4937505014       15.9215602421  MEMB      37              0.0000000000
      4293        37  SAPE      H3R            23.4523927413       12.5790346561       15.9469888155  MEMB      37              0.0000000000
      4294        37  SAPE      H3S            22.3546082430       11.3472866177       16.6478956316  MEMB      37              0.0000000000
      4295        37  SAPE      C24            22.6720269199       11.1667187913       14.4992171352  MEMB      37              0.0000000000
      4296        37  SAPE      H4R            21.9780323995       11.9900933964       14.2135536286  MEMB      37              0.0000000000
      4297        37  SAPE      H4S            22.0494463935       10.2470623016       14.5387249421  MEMB      37              0.0000000000
      4298        37  SAPE      C25            23.7666126737       11.0705699151       13.4606048491  MEMB      37              0.0000000000
      4299        37  SAPE      H5R            24.4208600283       11.9553779053       13.4115041220  MEMB      37              0.0000000000
      4300        37  SAPE      C26            24.0269286120       10.0409545462       12.6281631350  MEMB      37              0.0000000000
      4301        37  SAPE      H6R            24.8582255627       10.1442928449       11.9102343317  MEMB      37              0.0000000000
      4302        37  SAPE      C27            23.2903281637        8.7266413516       12.5234634031  MEMB      37              0.0000000000
      4303        37  SAPE      H7R            22.6299141310        8.5549387337       13.4003556291  MEMB      37              0.0000000000
      4304        37  SAPE      H7S            24.0265569741        7.8953680933       12.5495718165  MEMB      37              0.0000000000
      4305        37  SAPE      C28            22.4570492435        8.6388508457       11.2684190530  MEMB      37              0.0000000000
      4306        37  SAPE      H8R            21.4026595219        8.9157506101       11.4232714005  MEMB      37              0.0000000000
      4307        37  SAPE      C29            22.8486223270        8.2865712483       10.0238417525  MEMB      37              0.0000000000
      4308        37  SAPE      H9R            22.0994905102        8.3249055123        9.2193839742  MEMB      37              0.0000000000
      4309        37  SAPE      C210           24.2358901139        7.8888191001        9.5739683981  MEMB      37              0.0000000000
      4310        37  SAPE      H10R           24.7942654088        7.4372075322       10.4233694606  MEMB      37              0.0000000000
      4311        37  SAPE      H10S           24.7795181449        8.8250442585        9.3182927767  MEMB      37              0.0000000000
      4312        37  SAPE      C211           24.3460809619        6.9552824586        8.3853914739  MEMB      37              0.0000000000
      4313        37  SAPE      H11R           24.7224613987        5.9505719846        8.6296389816  MEMB      37              0.0000000000
      4314        37  SAPE      C212           24.0624564323        7.2196714064        7.0923888932  MEMB      37              0.0000000000
      4315        37  SAPE      H12R           24.2549292242        6.4349041918        6.3414359162  MEMB      37              0.0000000000
      4316        37  SAPE      C213           23.5588206327        8.5224491323        6.5174583428  MEMB      37              0.0000000000
      4317        37  SAPE      H13R           24.4075616059        9.0441635539        6.0233030930  MEMB      37              0.0000000000
      4318        37  SAPE      H13S           23.2120023883        9.2106759840        7.3197180311  MEMB      37              0.0000000000
      4319        37  SAPE      C214           22.4459275399        8.3068432540        5.5163522019  MEMB      37              0.0000000000
      4320        37  SAPE      H14R           22.0460592535        7.2816556267        5.4411978464  MEMB      37              0.0000000000
      4321        37  SAPE      C215           21.8965268215        9.2536999202        4.7365061051  MEMB      37              0.0000000000
      4322        37  SAPE      H15R           21.0941680460        8.9665428764        4.0385177022  MEMB      37              0.0000000000
      4323        37  SAPE      C216           22.2888153161       10.7096042866        4.7133203275  MEMB      37              0.0000000000
      4324        37  SAPE      H16R           22.4787427433       11.0776050990        5.7467765197  MEMB      37              0.0000000000
      4325        37  SAPE      H16S           21.4575517452       11.3261702408        4.3054824054  MEMB      37              0.0000000000
      4326        37  SAPE      C217           23.5540779677       10.9504422577        3.8682646249  MEMB      37              0.0000000000
      4327        37  SAPE      H17R           24.3710278614       10.2821449908        4.2259007114  MEMB      37              0.0000000000
      4328        37  SAPE      H17S           23.9114240534       11.9915796774        4.0240922070  MEMB      37              0.0000000000
      4329        37  SAPE      C218           23.3445545710       10.6976627663        2.3664233744  MEMB      37              0.0000000000
      4330        37  SAPE      H18R           22.8497124107        9.7141376599        2.2133998678  MEMB      37              0.0000000000
      4331        37  SAPE      H18S           24.3431977024       10.6211503109        1.8915061079  MEMB      37              0.0000000000
      4332        37  SAPE      C219           22.5529991455       11.7912663630        1.6328851825  MEMB      37              0.0000000000
      4333        37  SAPE      H19R           21.5729889522       11.9484952087        2.1358897484  MEMB      37              0.0000000000
      4334        37  SAPE      H19S           22.3411767007       11.4247745118        0.6012795135  MEMB      37              0.0000000000
      4335        37  SAPE      C220           23.2908763416       13.1289293988        1.5180000213  MEMB      37              0.0000000000
      4336        37  SAPE      H20R           24.3102615913       12.9830253452        1.1065364579  MEMB      37              0.0000000000
      4337        37  SAPE      H20S           23.3691037221       13.6323701059        2.5062077767  MEMB      37              0.0000000000
      4338        37  SAPE      H20T           22.7540703634       13.7979470107        0.8187273320  MEMB      37              0.0000000000
      4339        37  SAPE      C33            27.7856372626        8.7175233798       14.3347662765  MEMB      37              0.0000000000
      4340        37  SAPE      H3X            28.1446206413        9.6821929004       13.9029842258  MEMB      37              0.0000000000
      4341        37  SAPE      H3Y            26.6784667090        8.7971484212       14.4484167764  MEMB      37              0.0000000000
      4342        37  SAPE      C34            28.1028739961        7.6185929504       13.3344022948  MEMB      37              0.0000000000
      4343        37  SAPE      H4X            27.9932077709        6.6483536740       13.8590475182  MEMB      37              0.0000000000
      4344        37  SAPE      H4Y            29.1653027219        7.7005758977       13.0205182379  MEMB      37              0.0000000000
      4345        37  SAPE      C35            27.1730746007        7.7048957480       12.1225150616  MEMB      37              0.0000000000
      4346        37  SAPE      H5X            26.1220126541        7.6228490313       12.4741875053  MEMB      37              0.0000000000
      4347        37  SAPE      H5Y            27.3585964939        6.8537686277       11.4324918792  MEMB      37              0.0000000000
      4348        37  SAPE      C36            27.3321122211        9.0110999725       11.3314218699  MEMB      37              0.0000000000
      4349        37  SAPE      H6X            27.0829672949        9.8955773225       11.9561480333  MEMB      37              0.0000000000
      4350        37  SAPE      H6Y            26.5901367817        8.9954307381       10.5073771091  MEMB      37              0.0000000000
      4351        37  SAPE      C37            28.7364937051        9.1769409007       10.7372732266  MEMB      37              0.0000000000
      4352        37  SAPE      H7X            29.2235892285        8.1755229589       10.6852467913  MEMB      37              0.0000000000
      4353        37  SAPE      H7Y            29.3543627038        9.8107209271       11.4110515862  MEMB      37              0.0000000000
      4354        37  SAPE      C38            28.7163937116        9.7675182050        9.3220179044  MEMB      37              0.0000000000
      4355        37  SAPE      H8X            29.7572636885       10.0331090279        9.0361124057  MEMB      37              0.0000000000
      4356        37  SAPE      H8Y            28.1172341013       10.7036381789        9.3075955974  MEMB      37              0.0000000000
      4357        37  SAPE      C39            28.1512538997        8.7797969256        8.2919486208  MEMB      37              0.0000000000
      4358        37  SAPE      H9X            27.0463351936        8.7177950803        8.4115077107  MEMB      37              0.0000000000
      4359        37  SAPE      H9Y            28.5623521582        7.7623726332        8.4825769654  MEMB      37              0.0000000000
      4360        37  SAPE      C310           28.4657175447        9.1642934919        6.8420743908  MEMB      37              0.0000000000
      4361        37  SAPE      H10X           29.5619794216        9.0816560716        6.6676786460  MEMB      37              0.0000000000
      4362        37  SAPE      H10Y           28.1673094217       10.2210738059        6.6613762797  MEMB      37              0.0000000000
      4363        37  SAPE      C311           27.7132054085        8.2501561505        5.8719080087  MEMB      37              0.0000000000
      4364        37  SAPE      H11X           26.6218646565        8.4224307936        6.0046674923  MEMB      37              0.0000000000
      4365        37  SAPE      H11Y           27.9200642142        7.1874378190        6.1365105158  MEMB      37              0.0000000000
      4366        37  SAPE      C312           28.0800871105        8.4661819474        4.4023249041  MEMB      37              0.0000000000
      4367        37  SAPE      H12X           29.1155818319        8.0874296060        4.2417943136  MEMB      37              0.0000000000
      4368        37  SAPE      H12Y           28.0683791182        9.5500293948        4.1527207035  MEMB      37              0.0000000000
      4369        37  SAPE      C313           27.1085683980        7.7271639724        3.4762732630  MEMB      37              0.0000000000
      4370        37  SAPE      H13X           26.1704235910        8.3191203432        3.3762892267  MEMB      37              0.0000000000
      4371        37  SAPE      H13Y           26.8301121958        6.7547641675        3.9420078323  MEMB      37              0.0000000000
      4372        37  SAPE      C314           27.6952640159        7.4557108704        2.0896319207  MEMB      37              0.0000000000
      4373        37  SAPE      H14X           28.6726733156        6.9483699857        2.1746593288  MEMB      37              0.0000000000
      4374        37  SAPE      H14Y           27.9102052369        8.4164139925        1.5808459834  MEMB      37              0.0000000000
      4375        37  SAPE      C315           26.7544304748        6.6056431240        1.2308063196  MEMB      37              0.0000000000
      4376        37  SAPE      H15X           25.7823566261        7.1456532283        1.1944363499  MEMB      37              0.0000000000
      4377        37  SAPE      H15Y           26.5754361193        5.6207261738        1.7157308829  MEMB      37              0.0000000000
      4378        37  SAPE      C316           27.3121612855        6.3923615707       -0.1825863654  MEMB      37              0.0000000000
      4379        37  SAPE      H16X           28.1799113339        5.7025126526       -0.1646359864  MEMB      37              0.0000000000
      4380        37  SAPE      H16Y           27.7086398880        7.3616118520       -0.5466848907  MEMB      37              0.0000000000
      4381        37  SAPE      C317           26.3016695608        5.8534368255       -1.2003105912  MEMB      37              0.0000000000
      4382        37  SAPE      H17X           26.1755065845        4.7604788998       -1.0423574375  MEMB      37              0.0000000000
      4383        37  SAPE      H17Y           26.7321757038        6.0028913970       -2.2137460219  MEMB      37              0.0000000000
      4384        37  SAPE      C318           24.9331388289        6.5174916196       -1.1852635155  MEMB      37              0.0000000000
      4385        37  SAPE      H18X           24.4459871625        6.3932478717       -2.1767254423  MEMB      37              0.0000000000
      4386        37  SAPE      H18Y           25.0168619670        7.6009992733       -0.9699456658  MEMB      37              0.0000000000
      4387        37  SAPE      H18Z           24.2889428987        6.0600433802       -0.4049054780  MEMB      37              0.0000000000
      4388        38  SOPE      N              16.4245373615       19.1372393812       23.2341918750  MEMB      38              0.0000000000
      4389        38  SOPE      HN1            15.5916835748       19.0926285485       23.8453178533  MEMB      38              0.0000000000
      4390        38  SOPE      HN2            16.1473180657       18.8094571338       22.2593918776  MEMB      38              0.0000000000
      4391        38  SOPE      HN3            17.2113994624       18.5182065067       23.5480191692  MEMB      38              0.0000000000
      4392        38  SOPE      C12            16.9627390062       20.5375718971       23.0680426944  MEMB      38              0.0000000000
      4393        38  SOPE      H12A           17.8918813862       20.4541145767       22.4693558302  MEMB      38              0.0000000000
      4394        38  SOPE      H12B           17.2119342260       20.9382661940       24.0650162668  MEMB      38              0.0000000000
      4395        38  SOPE      C11            15.9681760727       21.4540072650       22.3415871273  MEMB      38              0.0000000000
      4396        38  SOPE      H11A           16.5002451078       22.3285351171       21.8994694986  MEMB      38              0.0000000000
      4397        38  SOPE      H11B           15.2374303332       21.8531797671       23.0813328967  MEMB      38              0.0000000000
      4398        38  SOPE      P              15.9179313536       20.0434883193       20.1083463728  MEMB      38              0.0000000000
      4399        38  SOPE      O13            16.3987954988       18.7339802707       20.6138448451  MEMB      38              0.0000000000
      4400        38  SOPE      O14            16.9283442078       20.9603106075       19.5410670660  MEMB      38              0.0000000000
      4401        38  SOPE      O12            15.2386667694       20.7475962388       21.3539410487  MEMB      38              0.0000000000
      4402        38  SOPE      O11            14.6838819900       19.8147839581       19.1489425913  MEMB      38              0.0000000000
      4403        38  SOPE      C1             13.3771380368       19.5422953508       19.6892461886  MEMB      38              0.0000000000
      4404        38  SOPE      HA             13.1847108029       20.0311615640       20.6749653443  MEMB      38              0.0000000000
      4405        38  SOPE      HB             13.2633291407       18.4476565154       19.8459713598  MEMB      38              0.0000000000
      4406        38  SOPE      C2             12.2356576771       20.0321832873       18.7443991707  MEMB      38              0.0000000000
      4407        38  SOPE      HS             11.2896814092       19.5608842877       19.0687221642  MEMB      38              0.0000000000
      4408        38  SOPE      O21            12.4695707218       19.7050334430       17.3617113389  MEMB      38              0.0000000000
      4409        38  SOPE      C21            13.0455228544       18.5507769126       17.0819379287  MEMB      38              0.0000000000
      4410        38  SOPE      O22            12.7273231001       17.4826140381       17.5814760957  MEMB      38              0.0000000000
      4411        38  SOPE      C22            14.1730640241       18.7766007456       16.0675790966  MEMB      38              0.0000000000
      4412        38  SOPE      H2R            15.1097140184       18.8151084461       16.6685458971  MEMB      38              0.0000000000
      4413        38  SOPE      H2S            14.0465477659       19.7649703114       15.5840041477  MEMB      38              0.0000000000
      4414        38  SOPE      C3             12.0080274573       21.5827134887       18.8665299036  MEMB      38              0.0000000000
      4415        38  SOPE      HX             11.4988599688       21.7562782300       19.8420419557  MEMB      38              0.0000000000
      4416        38  SOPE      HY             11.2725688296       21.8962377068       18.0882206104  MEMB      38              0.0000000000
      4417        38  SOPE      O31            13.2155490532       22.3908373513       18.8351353793  MEMB      38              0.0000000000
      4418        38  SOPE      C31            13.7993803125       22.4658982525       17.6409758335  MEMB      38              0.0000000000
      4419        38  SOPE      O32            13.3864913577       21.9915394669       16.5975121891  MEMB      38              0.0000000000
      4420        38  SOPE      C32            15.0769048722       23.3143795318       17.7033230121  MEMB      38              0.0000000000
      4421        38  SOPE      H2X            15.8952370073       22.6170156782       17.9724610044  MEMB      38              0.0000000000
      4422        38  SOPE      H2Y            14.9795568111       24.0739945220       18.4980542130  MEMB      38              0.0000000000
      4423        38  SOPE      C23            14.3211549587       17.6578002635       15.0128313319  MEMB      38              0.0000000000
      4424        38  SOPE      H3R            14.4619499820       16.6907423052       15.5388354479  MEMB      38              0.0000000000
      4425        38  SOPE      H3S            15.2573239424       17.8442566637       14.4372614967  MEMB      38              0.0000000000
      4426        38  SOPE      C24            13.1702384306       17.5539799213       13.9915566241  MEMB      38              0.0000000000
      4427        38  SOPE      H4R            13.3154605660       16.6252171193       13.3940796266  MEMB      38              0.0000000000
      4428        38  SOPE      H4S            12.1935344890       17.4565696943       14.5158896805  MEMB      38              0.0000000000
      4429        38  SOPE      C25            13.1149760255       18.7492339312       13.0254695146  MEMB      38              0.0000000000
      4430        38  SOPE      H5R            12.8849471536       19.6624117923       13.6209054689  MEMB      38              0.0000000000
      4431        38  SOPE      H5S            14.1165478951       18.8937003102       12.5664383541  MEMB      38              0.0000000000
      4432        38  SOPE      C26            12.0552623885       18.6275409024       11.9106419654  MEMB      38              0.0000000000
      4433        38  SOPE      H6R            11.0630821987       18.5583855756       12.4090610014  MEMB      38              0.0000000000
      4434        38  SOPE      H6S            12.0477103922       19.5685677110       11.3178986190  MEMB      38              0.0000000000
      4435        38  SOPE      C27            12.1847389223       17.4240336080       10.9518740287  MEMB      38              0.0000000000
      4436        38  SOPE      H7R            12.1888237554       16.4799955038       11.5379074200  MEMB      38              0.0000000000
      4437        38  SOPE      H7S            11.2703963590       17.3983893419       10.3138705573  MEMB      38              0.0000000000
      4438        38  SOPE      C28            13.4085837001       17.4320677266       10.0167749378  MEMB      38              0.0000000000
      4439        38  SOPE      H8R            14.3370057387       17.4297564349       10.6290860180  MEMB      38              0.0000000000
      4440        38  SOPE      H8S            13.4017702269       16.4812727328        9.4362659105  MEMB      38              0.0000000000
      4441        38  SOPE      C29            13.3737147379       18.6363428945        9.1127298665  MEMB      38              0.0000000000
      4442        38  SOPE      H91            13.5656852470       19.5846717743        9.6316922546  MEMB      38              0.0000000000
      4443        38  SOPE      C210           13.0865726447       18.6921392748        7.8019980928  MEMB      38              0.0000000000
      4444        38  SOPE      H101           13.1310648399       19.6737879063        7.3075707287  MEMB      38              0.0000000000
      4445        38  SOPE      C211           12.7225250212       17.5628516265        6.8753507713  MEMB      38              0.0000000000
      4446        38  SOPE      H11R           11.6233868493       17.5652360754        6.7001103272  MEMB      38              0.0000000000
      4447        38  SOPE      H11S           12.9793378950       16.5609277057        7.2869307439  MEMB      38              0.0000000000
      4448        38  SOPE      C212           13.4208825116       17.7506381399        5.5180013879  MEMB      38              0.0000000000
      4449        38  SOPE      H12R           13.3220151325       18.7955622961        5.1492258308  MEMB      38              0.0000000000
      4450        38  SOPE      H12S           12.8969742397       17.1072774974        4.7724620344  MEMB      38              0.0000000000
      4451        38  SOPE      C213           14.9014176080       17.3526637185        5.5326052567  MEMB      38              0.0000000000
      4452        38  SOPE      H13R           15.2348500899       17.1304353394        6.5710762020  MEMB      38              0.0000000000
      4453        38  SOPE      H13S           15.5332859862       18.1794251188        5.1419440408  MEMB      38              0.0000000000
      4454        38  SOPE      C214           15.1090285100       16.1246813693        4.6561781892  MEMB      38              0.0000000000
      4455        38  SOPE      H14R           14.8130655323       16.3769112681        3.6134993826  MEMB      38              0.0000000000
      4456        38  SOPE      H14S           14.4214927854       15.3287529847        5.0189517079  MEMB      38              0.0000000000
      4457        38  SOPE      C215           16.5324465319       15.5724026637        4.6719935704  MEMB      38              0.0000000000
      4458        38  SOPE      H15R           16.8515730028       15.4255823303        5.7298177546  MEMB      38              0.0000000000
      4459        38  SOPE      H15S           17.2395292046       16.2866430195        4.1998635410  MEMB      38              0.0000000000
      4460        38  SOPE      C216           16.5560595984       14.2163449858        3.9633555209  MEMB      38              0.0000000000
      4461        38  SOPE      H16R           15.8983838428       13.5772076310        4.5888525757  MEMB      38              0.0000000000
      4462        38  SOPE      H16S           17.5516319592       13.7348318028        3.9982240475  MEMB      38              0.0000000000
      4463        38  SOPE      C217           16.0357413809       14.2423958393        2.5106854815  MEMB      38              0.0000000000
      4464        38  SOPE      H17R           14.9744738269       14.5751401033        2.4900737931  MEMB      38              0.0000000000
      4465        38  SOPE      H17S           16.0487460661       13.2028932877        2.1363600345  MEMB      38              0.0000000000
      4466        38  SOPE      C218           16.8541127000       15.0585298541        1.5128045336  MEMB      38              0.0000000000
      4467        38  SOPE      H18R           17.8303079897       14.5537812393        1.3450150837  MEMB      38              0.0000000000
      4468        38  SOPE      H18S           17.0321883154       16.0862004584        1.8925402180  MEMB      38              0.0000000000
      4469        38  SOPE      H18T           16.3329947810       15.1239041211        0.5341446871  MEMB      38              0.0000000000
      4470        38  SOPE      C33            15.3779457480       23.9794495948       16.3323885227  MEMB      38              0.0000000000
      4471        38  SOPE      H3X            14.6835199221       24.8252647924       16.1498804233  MEMB      38              0.0000000000
      4472        38  SOPE      H3Y            15.1920627449       23.2285121383       15.5299343149  MEMB      38              0.0000000000
      4473        38  SOPE      C34            16.8055551320       24.5157692968       16.1749957589  MEMB      38              0.0000000000
      4474        38  SOPE      H4X            17.4815094223       23.8797920792       16.7862065373  MEMB      38              0.0000000000
      4475        38  SOPE      H4Y            16.8461582226       25.5514156110       16.5794883338  MEMB      38              0.0000000000
      4476        38  SOPE      C35            17.3008545097       24.4831497295       14.7156747362  MEMB      38              0.0000000000
      4477        38  SOPE      H5X            18.3254138478       24.9130424272       14.6796517666  MEMB      38              0.0000000000
      4478        38  SOPE      H5Y            16.6668270837       25.1263783038       14.0653557327  MEMB      38              0.0000000000
      4479        38  SOPE      C36            17.3263385203       23.0506939646       14.1485737469  MEMB      38              0.0000000000
      4480        38  SOPE      H6X            16.3548371732       22.8273818259       13.6557711953  MEMB      38              0.0000000000
      4481        38  SOPE      H6Y            17.4347499180       22.3405690712       14.9999095910  MEMB      38              0.0000000000
      4482        38  SOPE      C37            18.4855039025       22.7883435808       13.1856108485  MEMB      38              0.0000000000
      4483        38  SOPE      H7X            19.3828007016       23.2725978921       13.6120823470  MEMB      38              0.0000000000
      4484        38  SOPE      H7Y            18.2966806958       23.2503439011       12.1965982793  MEMB      38              0.0000000000
      4485        38  SOPE      C38            18.8372880086       21.3083731227       12.9850036798  MEMB      38              0.0000000000
      4486        38  SOPE      H8X            18.5339897825       20.7116938541       13.8717855343  MEMB      38              0.0000000000
      4487        38  SOPE      H8Y            19.9430756476       21.2465808711       12.8917394988  MEMB      38              0.0000000000
      4488        38  SOPE      C39            18.2723334933       20.7115393223       11.6918639551  MEMB      38              0.0000000000
      4489        38  SOPE      H9X            18.3797311913       19.6038584394       11.7123928499  MEMB      38              0.0000000000
      4490        38  SOPE      H9Y            18.8842310008       21.0847780205       10.8383403956  MEMB      38              0.0000000000
      4491        38  SOPE      C310           16.8124239991       21.0907717351       11.4429458980  MEMB      38              0.0000000000
      4492        38  SOPE      H10X           16.7299310825       22.1797395030       11.2254638986  MEMB      38              0.0000000000
      4493        38  SOPE      H10Y           16.2192458184       20.8887140910       12.3649034340  MEMB      38              0.0000000000
      4494        38  SOPE      C311           16.1749631516       20.3279016527       10.2827816332  MEMB      38              0.0000000000
      4495        38  SOPE      H11X           15.1579880448       20.7524884670       10.1489353179  MEMB      38              0.0000000000
      4496        38  SOPE      H11Y           16.0582972169       19.2603540874       10.5783012110  MEMB      38              0.0000000000
      4497        38  SOPE      C312           16.9285727580       20.3796971311        8.9395685497  MEMB      38              0.0000000000
      4498        38  SOPE      H12X           16.2695862034       19.8673762558        8.2020758717  MEMB      38              0.0000000000
      4499        38  SOPE      H12Y           17.8714619228       19.7949975262        9.0120518082  MEMB      38              0.0000000000
      4500        38  SOPE      C313           17.2661498543       21.7919900721        8.4294563137  MEMB      38              0.0000000000
      4501        38  SOPE      H13X           17.9908688731       22.2775917342        9.1202920894  MEMB      38              0.0000000000
      4502        38  SOPE      H13Y           16.3460008880       22.4101282684        8.4587105321  MEMB      38              0.0000000000
      4503        38  SOPE      C314           17.8636743468       21.8207286244        7.0052740990  MEMB      38              0.0000000000
      4504        38  SOPE      H14X           18.9042121979       21.4278063916        7.0427498913  MEMB      38              0.0000000000
      4505        38  SOPE      H14Y           17.9163251294       22.8806173949        6.6661416056  MEMB      38              0.0000000000
      4506        38  SOPE      C315           17.0777683018       20.9964897971        5.9716369181  MEMB      38              0.0000000000
      4507        38  SOPE      H15X           15.9989685106       21.2577948995        6.0384281702  MEMB      38              0.0000000000
      4508        38  SOPE      H15Y           17.1703530460       19.9172776219        6.2253123997  MEMB      38              0.0000000000
      4509        38  SOPE      C316           17.5588287691       21.1856829647        4.5234325522  MEMB      38              0.0000000000
      4510        38  SOPE      H16X           18.6634179781       21.0679501499        4.4831720896  MEMB      38              0.0000000000
      4511        38  SOPE      H16Y           17.3168697479       22.2182550396        4.1847574519  MEMB      38              0.0000000000
      4512        38  SOPE      C317           16.9147140756       20.1677230628        3.5697725290  MEMB      38              0.0000000000
      4513        38  SOPE      H17X           15.8104934343       20.2049811792        3.7116036675  MEMB      38              0.0000000000
      4514        38  SOPE      H17Y           17.2485469496       19.1451088635        3.8593334254  MEMB      38              0.0000000000
      4515        38  SOPE      C318           17.2333027223       20.3984588093        2.0919394008  MEMB      38              0.0000000000
      4516        38  SOPE      H18X           16.6597767793       19.6912283371        1.4534344816  MEMB      38              0.0000000000
      4517        38  SOPE      H18Y           18.3157632854       20.2545009158        1.8899413821  MEMB      38              0.0000000000
      4518        38  SOPE      H18Z           16.9592400693       21.4346687208        1.7999096167  MEMB      38              0.0000000000
      4519        39  SAPS      N             -23.6139533764      -12.3056204441       22.5006448629  MEMB      39              0.0000000000
      4520        39  SAPS      HN1           -24.4288394220      -12.9485444088       22.3690668491  MEMB      39              0.0000000000
      4521        39  SAPS      HN2           -23.1211787181      -12.4988476088       23.3925333663  MEMB      39              0.0000000000
      4522        39  SAPS      HN3           -23.9088366713      -11.3160691139       22.3583409643  MEMB      39              0.0000000000
      4523        39  SAPS      C12           -22.6935081278      -12.6490321346       21.3917097397  MEMB      39              0.0000000000
      4524        39  SAPS      H12A          -21.7994374202      -12.0420944499       21.4650530401  MEMB      39              0.0000000000
      4525        39  SAPS      C13           -22.2358882625      -14.1369383281       21.4600443703  MEMB      39              0.0000000000
      4526        39  SAPS      O13A          -22.4264694625      -14.7203834328       22.5692055213  MEMB      39              0.0000000000
      4527        39  SAPS      O13B          -21.2896047042      -14.4306913904       20.6913281089  MEMB      39              0.0000000000
      4528        39  SAPS      C11           -23.4710732458      -12.2743486419       20.1090050499  MEMB      39              0.0000000000
      4529        39  SAPS      H11A          -24.3284274003      -12.9726704639       19.9699442924  MEMB      39              0.0000000000
      4530        39  SAPS      H11B          -22.7779913117      -12.4420720979       19.2729775020  MEMB      39              0.0000000000
      4531        39  SAPS      P             -23.3058698486       -9.7233590813       19.3451949627  MEMB      39              0.0000000000
      4532        39  SAPS      O13           -24.2646629367       -9.2492719537       18.3315729526  MEMB      39              0.0000000000
      4533        39  SAPS      O14           -22.7588991558       -8.8254895641       20.3784974754  MEMB      39              0.0000000000
      4534        39  SAPS      O12           -23.9559543537      -10.9264878035       20.1463014509  MEMB      39              0.0000000000
      4535        39  SAPS      O11           -22.0817084184      -10.3407181511       18.6145732009  MEMB      39              0.0000000000
      4536        39  SAPS      C1            -20.7960110066       -9.7273190289       18.5575543168  MEMB      39              0.0000000000
      4537        39  SAPS      HA            -20.8785206701       -8.6524274455       18.2837912704  MEMB      39              0.0000000000
      4538        39  SAPS      HB            -20.2967587352       -9.7784702052       19.5512177455  MEMB      39              0.0000000000
      4539        39  SAPS      C2            -19.9043100062      -10.4882176234       17.5271016177  MEMB      39              0.0000000000
      4540        39  SAPS      HS            -18.9227271135       -9.9637612747       17.4462159134  MEMB      39              0.0000000000
      4541        39  SAPS      O21           -20.5135875434      -10.5763335678       16.2276500343  MEMB      39              0.0000000000
      4542        39  SAPS      C21           -20.8459873391       -9.4494509748       15.6299470104  MEMB      39              0.0000000000
      4543        39  SAPS      O22           -20.4359810840       -8.3398109297       15.9444666931  MEMB      39              0.0000000000
      4544        39  SAPS      C22           -21.8223551662       -9.7893764094       14.4804593624  MEMB      39              0.0000000000
      4545        39  SAPS      H2R           -21.9006596376      -10.8973706032       14.4229664161  MEMB      39              0.0000000000
      4546        39  SAPS      H2S           -22.8151793039       -9.3960656179       14.7697354119  MEMB      39              0.0000000000
      4547        39  SAPS      C3            -19.6307827731      -11.9387218449       18.0319389947  MEMB      39              0.0000000000
      4548        39  SAPS      HX            -19.1877579518      -11.8568853120       19.0417197517  MEMB      39              0.0000000000
      4549        39  SAPS      HY            -18.8896352536      -12.4517064654       17.3779621764  MEMB      39              0.0000000000
      4550        39  SAPS      O31           -20.8405272547      -12.6966448640       18.1819112155  MEMB      39              0.0000000000
      4551        39  SAPS      C31           -21.2434024903      -13.3463867226       17.0985455301  MEMB      39              0.0000000000
      4552        39  SAPS      O32           -20.5965484448      -13.4441196198       16.0690322555  MEMB      39              0.0000000000
      4553        39  SAPS      C32           -22.6418795713      -13.9471419510       17.2456397788  MEMB      39              0.0000000000
      4554        39  SAPS      H2X           -22.7525707669      -14.2793322187       18.2991821847  MEMB      39              0.0000000000
      4555        39  SAPS      H2Y           -22.6948467883      -14.8644961021       16.6214257867  MEMB      39              0.0000000000
      4556        39  SAPS      C23           -21.4206747992       -9.2869998436       13.0627098478  MEMB      39              0.0000000000
      4557        39  SAPS      H3R           -21.8539413577       -9.9595001102       12.2900213459  MEMB      39              0.0000000000
      4558        39  SAPS      H3S           -20.3160070465       -9.3554128784       12.9515786498  MEMB      39              0.0000000000
      4559        39  SAPS      C24           -21.8568581748       -7.8380032781       12.7581422024  MEMB      39              0.0000000000
      4560        39  SAPS      H4R           -21.0165312105       -7.3823099145       12.1944592707  MEMB      39              0.0000000000
      4561        39  SAPS      H4S           -21.8997179748       -7.3074016448       13.7338961693  MEMB      39              0.0000000000
      4562        39  SAPS      C25           -23.1438579731       -7.5686864092       12.0071720105  MEMB      39              0.0000000000
      4563        39  SAPS      H5R           -24.0080518843       -7.3529399726       12.6580384200  MEMB      39              0.0000000000
      4564        39  SAPS      C26           -23.3307539592       -7.5132459576       10.6688221418  MEMB      39              0.0000000000
      4565        39  SAPS      H6R           -24.3427384531       -7.2622231104       10.3132729396  MEMB      39              0.0000000000
      4566        39  SAPS      C27           -22.3109683675       -7.7117018548        9.5547065797  MEMB      39              0.0000000000
      4567        39  SAPS      H7R           -21.9070647395       -8.7479335172        9.6116375575  MEMB      39              0.0000000000
      4568        39  SAPS      H7S           -21.4179142069       -7.0949574973        9.7485581480  MEMB      39              0.0000000000
      4569        39  SAPS      C28           -22.8658259696       -7.4480436328        8.1553689882  MEMB      39              0.0000000000
      4570        39  SAPS      H8R           -23.9660888955       -7.4928191670        8.1027689892  MEMB      39              0.0000000000
      4571        39  SAPS      C29           -22.1728027371       -7.1747948936        7.0169333858  MEMB      39              0.0000000000
      4572        39  SAPS      H9R           -22.7094174270       -6.9857695486        6.0730452036  MEMB      39              0.0000000000
      4573        39  SAPS      C210          -20.6761072426       -7.1037346933        6.9925095713  MEMB      39              0.0000000000
      4574        39  SAPS      H10R          -20.3792934410       -8.1036915037        7.3776455566  MEMB      39              0.0000000000
      4575        39  SAPS      H10S          -20.3592082621       -6.4014078048        7.7960277898  MEMB      39              0.0000000000
      4576        39  SAPS      C211          -19.6436511198       -6.8962776443        5.9095530382  MEMB      39              0.0000000000
      4577        39  SAPS      H11R          -18.6979551463       -7.1365335801        6.3743626212  MEMB      39              0.0000000000
      4578        39  SAPS      C212          -19.4867937192       -6.4144132580        4.6516885001  MEMB      39              0.0000000000
      4579        39  SAPS      H12R          -18.4504918807       -6.4854492182        4.2929530774  MEMB      39              0.0000000000
      4580        39  SAPS      C213          -20.3060491843       -5.7089206777        3.5964824833  MEMB      39              0.0000000000
      4581        39  SAPS      H13R          -19.7652980351       -6.0055733458        2.6687408407  MEMB      39              0.0000000000
      4582        39  SAPS      H13S          -20.0782311412       -4.6353706600        3.6929692235  MEMB      39              0.0000000000
      4583        39  SAPS      C214          -21.7816178951       -5.7515835854        3.3004904412  MEMB      39              0.0000000000
      4584        39  SAPS      H14R          -22.4687230320       -5.6140215802        4.1536994615  MEMB      39              0.0000000000
      4585        39  SAPS      C215          -22.2918953851       -5.8632293939        2.0529362356  MEMB      39              0.0000000000
      4586        39  SAPS      H15R          -23.3846383288       -5.8216754911        1.9261006771  MEMB      39              0.0000000000
      4587        39  SAPS      C216          -21.5293129097       -5.9838502960        0.7425891654  MEMB      39              0.0000000000
      4588        39  SAPS      H16R          -20.5255634523       -6.4349762600        0.8715100153  MEMB      39              0.0000000000
      4589        39  SAPS      H16S          -21.3386197224       -4.9854543344        0.3132205629  MEMB      39              0.0000000000
      4590        39  SAPS      C217          -22.3094176454       -6.8350122740       -0.2843713903  MEMB      39              0.0000000000
      4591        39  SAPS      H17R          -23.1654047458       -6.2170460711       -0.6381709407  MEMB      39              0.0000000000
      4592        39  SAPS      H17S          -22.7553290080       -7.7038473391        0.2409062975  MEMB      39              0.0000000000
      4593        39  SAPS      C218          -21.5553397036       -7.4203051631       -1.5107502073  MEMB      39              0.0000000000
      4594        39  SAPS      H18R          -21.9738070407       -6.9784915089       -2.4390940417  MEMB      39              0.0000000000
      4595        39  SAPS      H18S          -21.8019092038       -8.5032901365       -1.5798898862  MEMB      39              0.0000000000
      4596        39  SAPS      C219          -20.0287249742       -7.2571567054       -1.5877609724  MEMB      39              0.0000000000
      4597        39  SAPS      H19R          -19.7108858414       -6.2526910930       -1.2336296232  MEMB      39              0.0000000000
      4598        39  SAPS      H19S          -19.7456823645       -7.3093487019       -2.6653841200  MEMB      39              0.0000000000
      4599        39  SAPS      C220          -19.2532957856       -8.3566875782       -0.8600277404  MEMB      39              0.0000000000
      4600        39  SAPS      H20R          -19.3970772381       -8.2732902823        0.2322657775  MEMB      39              0.0000000000
      4601        39  SAPS      H20S          -18.1672121494       -8.2541543341       -1.0512642338  MEMB      39              0.0000000000
      4602        39  SAPS      H20T          -19.5823659900       -9.3655161683       -1.1897384916  MEMB      39              0.0000000000
      4603        39  SAPS      C33           -23.7504542450      -12.9355605427       16.8622732225  MEMB      39              0.0000000000
      4604        39  SAPS      H3X           -23.4674289608      -11.9177535540       17.2188121142  MEMB      39              0.0000000000
      4605        39  SAPS      H3Y           -24.6886171748      -13.1988835994       17.3992272663  MEMB      39              0.0000000000
      4606        39  SAPS      C34           -24.0549949218      -12.8340157878       15.3611418343  MEMB      39              0.0000000000
      4607        39  SAPS      H4X           -24.5262326694      -13.7817331285       15.0241096441  MEMB      39              0.0000000000
      4608        39  SAPS      H4Y           -23.1110087661      -12.6985396707       14.7902908519  MEMB      39              0.0000000000
      4609        39  SAPS      C35           -24.9920491126      -11.6511748438       15.0856415221  MEMB      39              0.0000000000
      4610        39  SAPS      H5X           -24.4981862328      -10.6944765105       15.3653591259  MEMB      39              0.0000000000
      4611        39  SAPS      H5Y           -25.8586903407      -11.7671285653       15.7792220340  MEMB      39              0.0000000000
      4612        39  SAPS      C36           -25.5530702533      -11.5797256316       13.6573366122  MEMB      39              0.0000000000
      4613        39  SAPS      H6X           -26.4951341993      -10.9840065090       13.7187055734  MEMB      39              0.0000000000
      4614        39  SAPS      H6Y           -25.8080756170      -12.5991253379       13.3092288349  MEMB      39              0.0000000000
      4615        39  SAPS      C37           -24.6804621389      -10.9049726312       12.5897125932  MEMB      39              0.0000000000
      4616        39  SAPS      H7X           -23.7539624907      -11.4901369153       12.4182898464  MEMB      39              0.0000000000
      4617        39  SAPS      H7Y           -24.3742046920       -9.9081992851       12.9805416575  MEMB      39              0.0000000000
      4618        39  SAPS      C38           -25.4581083413      -10.7119883360       11.2741525540  MEMB      39              0.0000000000
      4619        39  SAPS      H8X           -25.4495517766       -9.6291072302       11.0209100450  MEMB      39              0.0000000000
      4620        39  SAPS      H8Y           -26.5197672462      -10.9909927326       11.4402308461  MEMB      39              0.0000000000
      4621        39  SAPS      C39           -24.9215355859      -11.4980341925       10.0632996509  MEMB      39              0.0000000000
      4622        39  SAPS      H9X           -25.6603684918      -11.4050052985        9.2354027596  MEMB      39              0.0000000000
      4623        39  SAPS      H9Y           -24.8203509665      -12.5748077225       10.3058269195  MEMB      39              0.0000000000
      4624        39  SAPS      C310          -23.5892918125      -10.9137726678        9.5872634062  MEMB      39              0.0000000000
      4625        39  SAPS      H10X          -22.7569661213      -11.2764504509       10.2308921143  MEMB      39              0.0000000000
      4626        39  SAPS      H10Y          -23.6907723713       -9.8281976524        9.7418593391  MEMB      39              0.0000000000
      4627        39  SAPS      C311          -23.2398997521      -11.0936321066        8.1026619233  MEMB      39              0.0000000000
      4628        39  SAPS      H11X          -22.3167112985      -10.5051862823        7.8998082780  MEMB      39              0.0000000000
      4629        39  SAPS      H11Y          -24.0502183726      -10.6738926031        7.4665900587  MEMB      39              0.0000000000
      4630        39  SAPS      C312          -23.0086879424      -12.5594665033        7.7626981503  MEMB      39              0.0000000000
      4631        39  SAPS      H12X          -24.0185879935      -13.0197021680        7.6474486477  MEMB      39              0.0000000000
      4632        39  SAPS      H12Y          -22.4713022537      -13.0269415799        8.6205593976  MEMB      39              0.0000000000
      4633        39  SAPS      C313          -22.2001550444      -12.8714234220        6.5030922950  MEMB      39              0.0000000000
      4634        39  SAPS      H13X          -22.7290469946      -12.4277409976        5.6400894749  MEMB      39              0.0000000000
      4635        39  SAPS      H13Y          -22.2046727565      -13.9738027388        6.3390452041  MEMB      39              0.0000000000
      4636        39  SAPS      C314          -20.7330311175      -12.4205669787        6.5649263615  MEMB      39              0.0000000000
      4637        39  SAPS      H14X          -20.2619414568      -12.8400492701        7.4821436952  MEMB      39              0.0000000000
      4638        39  SAPS      H14Y          -20.6832800279      -11.3095029723        6.6272026078  MEMB      39              0.0000000000
      4639        39  SAPS      C315          -19.9431182521      -12.8714491420        5.3287583279  MEMB      39              0.0000000000
      4640        39  SAPS      H15X          -19.9427894384      -13.9840187056        5.2868678941  MEMB      39              0.0000000000
      4641        39  SAPS      H15Y          -18.8912762347      -12.5416264608        5.4130852803  MEMB      39              0.0000000000
      4642        39  SAPS      C316          -20.5535697712      -12.2997473149        4.0432977171  MEMB      39              0.0000000000
      4643        39  SAPS      H16X          -20.6941139432      -11.2043608894        4.1556602928  MEMB      39              0.0000000000
      4644        39  SAPS      H16Y          -21.5505326489      -12.7670531609        3.9316487307  MEMB      39              0.0000000000
      4645        39  SAPS      C317          -19.7887715944      -12.6045350973        2.7542988330  MEMB      39              0.0000000000
      4646        39  SAPS      H17X          -19.1279454783      -13.4630617251        2.9729941150  MEMB      39              0.0000000000
      4647        39  SAPS      H17Y          -19.1423958544      -11.7545625549        2.4635760256  MEMB      39              0.0000000000
      4648        39  SAPS      C318          -20.7012153246      -12.9314933820        1.5738542180  MEMB      39              0.0000000000
      4649        39  SAPS      H18X          -20.1322162015      -13.3934236563        0.7422259855  MEMB      39              0.0000000000
      4650        39  SAPS      H18Y          -21.2073648749      -12.0151318949        1.1992940177  MEMB      39              0.0000000000
      4651        39  SAPS      H18Z          -21.4780918950      -13.6533674145        1.8869526376  MEMB      39              0.0000000000
      4652        40  SAPI      C12           -19.0844521655      -16.8742341692       24.3383028699  MEMB      40              0.0000000000
      4653        40  SAPI      H2            -18.7889022682      -16.0920236320       23.5966038701  MEMB      40              0.0000000000
      4654        40  SAPI      O2            -17.8921294559      -17.4349750322       24.8760343614  MEMB      40              0.0000000000
      4655        40  SAPI      HO2           -17.7539816464      -18.1904078844       24.2822278160  MEMB      40              0.0000000000
      4656        40  SAPI      C13           -20.0331998035      -16.2375876926       25.3351622295  MEMB      40              0.0000000000
      4657        40  SAPI      H3            -20.9409447994      -15.9174538865       24.7579043220  MEMB      40              0.0000000000
      4658        40  SAPI      O3            -19.5024684091      -15.0563423541       25.9434297680  MEMB      40              0.0000000000
      4659        40  SAPI      HO3           -19.7736473155      -14.2629606925       25.4644840158  MEMB      40              0.0000000000
      4660        40  SAPI      C14           -20.4956449013      -17.2558782962       26.3646039354  MEMB      40              0.0000000000
      4661        40  SAPI      H4            -19.6075802648      -17.6202903803       26.9351315083  MEMB      40              0.0000000000
      4662        40  SAPI      O4            -21.3752776538      -16.5813167301       27.2654664049  MEMB      40              0.0000000000
      4663        40  SAPI      HO4           -21.2182715888      -15.6380262308       27.0875409534  MEMB      40              0.0000000000
      4664        40  SAPI      C15           -21.2014508337      -18.4230011465       25.6820568886  MEMB      40              0.0000000000
      4665        40  SAPI      H5            -22.1189053911      -18.0576565036       25.1636429989  MEMB      40              0.0000000000
      4666        40  SAPI      O5            -21.6093804317      -19.3820857919       26.6667174268  MEMB      40              0.0000000000
      4667        40  SAPI      HO5           -22.2553343429      -18.9854833911       27.2788281666  MEMB      40              0.0000000000
      4668        40  SAPI      C16           -20.2807588603      -19.0661387238       24.6434819206  MEMB      40              0.0000000000
      4669        40  SAPI      H6            -19.3963267672      -19.5351658663       25.1291245311  MEMB      40              0.0000000000
      4670        40  SAPI      O6            -20.9535890871      -20.0609645280       23.8619031772  MEMB      40              0.0000000000
      4671        40  SAPI      HO6           -20.9289058860      -19.6659186846       22.9681548708  MEMB      40              0.0000000000
      4672        40  SAPI      C11           -19.8535529091      -17.9856559952       23.6722104265  MEMB      40              0.0000000000
      4673        40  SAPI      H1            -20.8201269486      -17.5363114277       23.2918256663  MEMB      40              0.0000000000
      4674        40  SAPI      P             -19.3259939691      -17.8735001456       21.1559157422  MEMB      40              0.0000000000
      4675        40  SAPI      O13           -18.7267965025      -16.5237953743       21.1634716214  MEMB      40              0.0000000000
      4676        40  SAPI      O14           -20.7590534433      -18.1049447034       20.9109050800  MEMB      40              0.0000000000
      4677        40  SAPI      O12           -19.0505860499      -18.5890188381       22.6358090174  MEMB      40              0.0000000000
      4678        40  SAPI      O11           -18.4676156031      -18.8361469718       20.2824727894  MEMB      40              0.0000000000
      4679        40  SAPI      C1            -17.0689790772      -18.9425428425       20.4311477497  MEMB      40              0.0000000000
      4680        40  SAPI      HA            -16.6078221485      -17.9799855262       20.7432337752  MEMB      40              0.0000000000
      4681        40  SAPI      HB            -16.8488614017      -19.6956144341       21.2184597100  MEMB      40              0.0000000000
      4682        40  SAPI      C2            -16.5182777420      -19.4503002241       19.0814224765  MEMB      40              0.0000000000
      4683        40  SAPI      HS            -15.5726284515      -20.0073960994       19.2577458371  MEMB      40              0.0000000000
      4684        40  SAPI      O21           -16.2648808326      -18.3971525292       18.1431752845  MEMB      40              0.0000000000
      4685        40  SAPI      C21           -15.3637945439      -17.5074091337       18.4882108796  MEMB      40              0.0000000000
      4686        40  SAPI      O22           -14.6861795281      -17.5234341411       19.5060048343  MEMB      40              0.0000000000
      4687        40  SAPI      C22           -15.3137139216      -16.4198853724       17.4202854722  MEMB      40              0.0000000000
      4688        40  SAPI      H2R           -16.3128693803      -15.9360501127       17.3604084006  MEMB      40              0.0000000000
      4689        40  SAPI      H2S           -14.5762977827      -15.6607478403       17.7494039383  MEMB      40              0.0000000000
      4690        40  SAPI      C3            -17.5332164452      -20.4050813891       18.4075270928  MEMB      40              0.0000000000
      4691        40  SAPI      HX            -18.4880223143      -19.8464544070       18.2533329941  MEMB      40              0.0000000000
      4692        40  SAPI      HY            -17.7608806194      -21.2580121714       19.0786660318  MEMB      40              0.0000000000
      4693        40  SAPI      O31           -16.9533303423      -20.8745948411       17.1861910463  MEMB      40              0.0000000000
      4694        40  SAPI      C31           -17.4746616747      -20.3782561793       16.0750459101  MEMB      40              0.0000000000
      4695        40  SAPI      O32           -18.5951357544      -19.9229273979       15.9596884398  MEMB      40              0.0000000000
      4696        40  SAPI      C32           -16.4230038942      -20.4258865860       14.9855797168  MEMB      40              0.0000000000
      4697        40  SAPI      H2X           -16.2698560982      -21.4789134633       14.7116275721  MEMB      40              0.0000000000
      4698        40  SAPI      H2Y           -15.4720730463      -20.0311844631       15.3933779197  MEMB      40              0.0000000000
      4699        40  SAPI      C23           -14.9112631121      -16.9681584279       16.0279771201  MEMB      40              0.0000000000
      4700        40  SAPI      H3R           -15.4966987853      -17.8808244659       15.7863523140  MEMB      40              0.0000000000
      4701        40  SAPI      H3S           -13.8307183709      -17.2414510697       16.0407578638  MEMB      40              0.0000000000
      4702        40  SAPI      C24           -15.2059571303      -15.9242983900       14.9403075299  MEMB      40              0.0000000000
      4703        40  SAPI      H4R           -14.7195680836      -14.9925468615       15.2774876932  MEMB      40              0.0000000000
      4704        40  SAPI      H4S           -16.3019808786      -15.7298932488       14.9338990559  MEMB      40              0.0000000000
      4705        40  SAPI      C25           -14.6780010247      -16.2349871194       13.5656783580  MEMB      40              0.0000000000
      4706        40  SAPI      H5R           -13.6349473227      -16.5888783637       13.5290869326  MEMB      40              0.0000000000
      4707        40  SAPI      C26           -15.3403761425      -16.0662404110       12.4065608728  MEMB      40              0.0000000000
      4708        40  SAPI      H6R           -14.8008702610      -16.2528150926       11.4674032053  MEMB      40              0.0000000000
      4709        40  SAPI      C27           -16.7406634952      -15.5380291972       12.2209181079  MEMB      40              0.0000000000
      4710        40  SAPI      H7R           -16.7824615901      -14.9467306348       11.2806983545  MEMB      40              0.0000000000
      4711        40  SAPI      H7S           -17.0098685059      -14.8242685733       13.0299044479  MEMB      40              0.0000000000
      4712        40  SAPI      C28           -17.7507079437      -16.6539410420       12.1987271703  MEMB      40              0.0000000000
      4713        40  SAPI      H8R           -18.1237673026      -16.9603497605       13.1884233711  MEMB      40              0.0000000000
      4714        40  SAPI      C29           -18.2326145879      -17.2933169084       11.1197362938  MEMB      40              0.0000000000
      4715        40  SAPI      H9R           -18.9508819648      -18.1154329679       11.2718979501  MEMB      40              0.0000000000
      4716        40  SAPI      C210          -17.8691812464      -17.0344165042        9.6865575209  MEMB      40              0.0000000000
      4717        40  SAPI      H10R          -17.6116328301      -18.0052647183        9.2080617366  MEMB      40              0.0000000000
      4718        40  SAPI      H10S          -16.9650629525      -16.3943563296        9.5953045833  MEMB      40              0.0000000000
      4719        40  SAPI      C211          -19.0382329809      -16.3636576274        9.0183576037  MEMB      40              0.0000000000
      4720        40  SAPI      H11R          -19.2415617322      -15.3315881753        9.3445900167  MEMB      40              0.0000000000
      4721        40  SAPI      C212          -19.8550390031      -16.9304823936        8.1193432390  MEMB      40              0.0000000000
      4722        40  SAPI      H12R          -20.6997647831      -16.3347789371        7.7411463195  MEMB      40              0.0000000000
      4723        40  SAPI      C213          -19.7463321395      -18.3474972953        7.6131548126  MEMB      40              0.0000000000
      4724        40  SAPI      H13R          -20.0895269129      -19.0637779690        8.3926286086  MEMB      40              0.0000000000
      4725        40  SAPI      H13S          -18.6866882144      -18.6177076932        7.4090695746  MEMB      40              0.0000000000
      4726        40  SAPI      C214          -20.5955071987      -18.5153433836        6.3851294956  MEMB      40              0.0000000000
      4727        40  SAPI      H14R          -21.6702855261      -18.6347039332        6.5911280324  MEMB      40              0.0000000000
      4728        40  SAPI      C215          -20.1572307196      -18.4996916588        5.1146186393  MEMB      40              0.0000000000
      4729        40  SAPI      H15R          -20.8670861374      -18.6478675947        4.2865718785  MEMB      40              0.0000000000
      4730        40  SAPI      C216          -18.7206872759      -18.3086479601        4.7247661383  MEMB      40              0.0000000000
      4731        40  SAPI      H16R          -18.1103584141      -19.0954598976        5.2192364700  MEMB      40              0.0000000000
      4732        40  SAPI      H16S          -18.3380410020      -17.3309276566        5.0921596189  MEMB      40              0.0000000000
      4733        40  SAPI      C217          -18.4750218694      -18.4266965753        3.2101194770  MEMB      40              0.0000000000
      4734        40  SAPI      H17R          -18.8598425104      -19.4055567394        2.8472114991  MEMB      40              0.0000000000
      4735        40  SAPI      H17S          -17.3786069202      -18.4243315992        3.0484759744  MEMB      40              0.0000000000
      4736        40  SAPI      C218          -19.0657635492      -17.3100911631        2.3402421644  MEMB      40              0.0000000000
      4737        40  SAPI      H18R          -20.1718314995      -17.3494568833        2.4222800350  MEMB      40              0.0000000000
      4738        40  SAPI      H18S          -18.8240967490      -17.4943114607        1.2715627765  MEMB      40              0.0000000000
      4739        40  SAPI      C219          -18.5659852744      -15.8971790012        2.6724450867  MEMB      40              0.0000000000
      4740        40  SAPI      H19R          -18.9830662275      -15.5992840119        3.6614590929  MEMB      40              0.0000000000
      4741        40  SAPI      H19S          -19.0009982562      -15.2282228574        1.8951635722  MEMB      40              0.0000000000
      4742        40  SAPI      C220          -17.0446271189      -15.6859765060        2.7019472239  MEMB      40              0.0000000000
      4743        40  SAPI      H20R          -16.5769261484      -16.3360848412        3.4710405701  MEMB      40              0.0000000000
      4744        40  SAPI      H20S          -16.8029437807      -14.6306250566        2.9545927758  MEMB      40              0.0000000000
      4745        40  SAPI      H20T          -16.5939933591      -15.9229365332        1.7151262921  MEMB      40              0.0000000000
      4746        40  SAPI      C33           -16.8504560597      -19.6105382597       13.7585938663  MEMB      40              0.0000000000
      4747        40  SAPI      H3X           -16.8402657322      -18.5311514124       14.0293176285  MEMB      40              0.0000000000
      4748        40  SAPI      H3Y           -17.8920736435      -19.8660570359       13.4554303450  MEMB      40              0.0000000000
      4749        40  SAPI      C34           -15.9582498220      -19.8376866299       12.5367005703  MEMB      40              0.0000000000
      4750        40  SAPI      H4X           -16.1708605914      -19.0162550779       11.8198439957  MEMB      40              0.0000000000
      4751        40  SAPI      H4Y           -16.2481646508      -20.7806093406       12.0346950588  MEMB      40              0.0000000000
      4752        40  SAPI      C35           -14.4566694806      -19.8997941940       12.8316627600  MEMB      40              0.0000000000
      4753        40  SAPI      H5X           -14.2226232708      -20.7360229161       13.5266253516  MEMB      40              0.0000000000
      4754        40  SAPI      H5Y           -14.1452383139      -18.9523469319       13.3229128757  MEMB      40              0.0000000000
      4755        40  SAPI      C36           -13.6443417464      -20.0995623507       11.5544979612  MEMB      40              0.0000000000
      4756        40  SAPI      H6X           -13.8479885444      -21.1013916465       11.1207413175  MEMB      40              0.0000000000
      4757        40  SAPI      H6Y           -12.5793015267      -20.1140570083       11.8472693469  MEMB      40              0.0000000000
      4758        40  SAPI      C37           -13.9227959161      -19.0219605623       10.4894560514  MEMB      40              0.0000000000
      4759        40  SAPI      H7X           -12.9616627599      -18.6848511087       10.0625233269  MEMB      40              0.0000000000
      4760        40  SAPI      H7Y           -14.3942219701      -18.1343645868       10.9469491924  MEMB      40              0.0000000000
      4761        40  SAPI      C38           -14.7972745016      -19.5529331036        9.3506711001  MEMB      40              0.0000000000
      4762        40  SAPI      H8X           -15.7933417866      -19.8557724727        9.7422740693  MEMB      40              0.0000000000
      4763        40  SAPI      H8Y           -14.2919173086      -20.4814384596        8.9926363763  MEMB      40              0.0000000000
      4764        40  SAPI      C39           -14.9756800198      -18.6094021529        8.1450831845  MEMB      40              0.0000000000
      4765        40  SAPI      H9X           -14.0010676809      -18.1526806611        7.8814396292  MEMB      40              0.0000000000
      4766        40  SAPI      H9Y           -15.6520423615      -17.7609301150        8.3666320729  MEMB      40              0.0000000000
      4767        40  SAPI      C310          -15.5165497909      -19.4331926646        6.9715979577  MEMB      40              0.0000000000
      4768        40  SAPI      H10X          -16.6165056587      -19.5584193383        7.0669454162  MEMB      40              0.0000000000
      4769        40  SAPI      H10Y          -15.0703131153      -20.4474304369        7.0773468873  MEMB      40              0.0000000000
      4770        40  SAPI      C311          -15.1520422982      -18.9732988392        5.5556214659  MEMB      40              0.0000000000
      4771        40  SAPI      H11X          -14.0780559026      -18.6915633298        5.5107878383  MEMB      40              0.0000000000
      4772        40  SAPI      H11Y          -15.7521329275      -18.0792385224        5.2804396227  MEMB      40              0.0000000000
      4773        40  SAPI      C312          -15.4293914989      -20.1264392859        4.5744817997  MEMB      40              0.0000000000
      4774        40  SAPI      H12X          -16.5114474599      -20.3727935414        4.6575562474  MEMB      40              0.0000000000
      4775        40  SAPI      H12Y          -14.8785063831      -21.0434975574        4.8730677805  MEMB      40              0.0000000000
      4776        40  SAPI      C313          -15.1104547089      -19.8326916696        3.1072130287  MEMB      40              0.0000000000
      4777        40  SAPI      H13X          -14.0310346034      -19.9941085819        2.8979936673  MEMB      40              0.0000000000
      4778        40  SAPI      H13Y          -15.3195359281      -18.7589155928        2.9197253369  MEMB      40              0.0000000000
      4779        40  SAPI      C314          -15.9704631538      -20.7151540264        2.1888541431  MEMB      40              0.0000000000
      4780        40  SAPI      H14X          -17.0321237564      -20.6590211252        2.5167444327  MEMB      40              0.0000000000
      4781        40  SAPI      H14Y          -15.6582709613      -21.7772601029        2.3089120296  MEMB      40              0.0000000000
      4782        40  SAPI      C315          -15.9256819491      -20.3431673415        0.7024814270  MEMB      40              0.0000000000
      4783        40  SAPI      H15X          -16.6447016634      -21.0264505597        0.2011158645  MEMB      40              0.0000000000
      4784        40  SAPI      H15Y          -14.9044112391      -20.5325801426        0.3060330373  MEMB      40              0.0000000000
      4785        40  SAPI      C316          -16.3466665403      -18.9038829171        0.3724546625  MEMB      40              0.0000000000
      4786        40  SAPI      H16X          -15.7397905603      -18.1906230331        0.9696540434  MEMB      40              0.0000000000
      4787        40  SAPI      H16Y          -17.4082304289      -18.7824056674        0.6623977285  MEMB      40              0.0000000000
      4788        40  SAPI      C317          -16.1965454085      -18.5072626013       -1.1039387699  MEMB      40              0.0000000000
      4789        40  SAPI      H17X          -17.0249751463      -18.9561486231       -1.6983931714  MEMB      40              0.0000000000
      4790        40  SAPI      H17Y          -15.2394083262      -18.9244657706       -1.4910940627  MEMB      40              0.0000000000
      4791        40  SAPI      C318          -16.1784016472      -16.9865517496       -1.2948952802  MEMB      40              0.0000000000
      4792        40  SAPI      H18X          -16.0635565327      -16.7179604967       -2.3668768645  MEMB      40              0.0000000000
      4793        40  SAPI      H18Y          -15.3303599477      -16.5437698834       -0.7292124242  MEMB      40              0.0000000000
      4794        40  SAPI      H18Z          -17.1176165576      -16.5321976969       -0.9136280893  MEMB      40              0.0000000000
      4795        41  CHL1      C3            -23.1557751620       14.0008264145       17.2741409097  MEMB      41              0.0000000000
      4796        41  CHL1      H3            -22.6983877382       13.0291708545       16.9671285249  MEMB      41              0.0000000000
      4797        41  CHL1      O3            -23.1369231415       14.1105966997       18.6875063800  MEMB      41              0.0000000000
      4798        41  CHL1      H3'           -23.9046226855       14.6749467178       18.9013605855  MEMB      41              0.0000000000
      4799        41  CHL1      C4            -22.3453649828       15.1408013918       16.6487624471  MEMB      41              0.0000000000
      4800        41  CHL1      H4A           -22.8164960452       16.1002773664       16.9463334872  MEMB      41              0.0000000000
      4801        41  CHL1      H4B           -21.3214241226       15.1291114221       17.0828088078  MEMB      41              0.0000000000
      4802        41  CHL1      C5            -22.3385594421       14.9956047488       15.1423543649  MEMB      41              0.0000000000
      4803        41  CHL1      C6            -21.2078419357       14.9358027888       14.4314774267  MEMB      41              0.0000000000
      4804        41  CHL1      H6            -20.2466660766       15.0161488315       14.9524778867  MEMB      41              0.0000000000
      4805        41  CHL1      C7            -21.1640632935       14.8225068614       12.9299954044  MEMB      41              0.0000000000
      4806        41  CHL1      H7A           -20.4579012038       15.5667886199       12.5006722032  MEMB      41              0.0000000000
      4807        41  CHL1      H7B           -20.7942278142       13.8125211902       12.6525018418  MEMB      41              0.0000000000
      4808        41  CHL1      C8            -22.5367037551       14.9848177830       12.2339922524  MEMB      41              0.0000000000
      4809        41  CHL1      H8            -22.7441742422       16.0740286648       12.1608333055  MEMB      41              0.0000000000
      4810        41  CHL1      C14           -22.5009289399       14.3630819989       10.8469728297  MEMB      41              0.0000000000
      4811        41  CHL1      H14           -22.3448632091       13.2631597468       10.9970850258  MEMB      41              0.0000000000
      4812        41  CHL1      C15           -21.3702212341       14.8032926622        9.9045666185  MEMB      41              0.0000000000
      4813        41  CHL1      H15A          -21.2131018263       15.8999123605        9.9899548838  MEMB      41              0.0000000000
      4814        41  CHL1      H15B          -20.4196262656       14.2815490564       10.1362888492  MEMB      41              0.0000000000
      4815        41  CHL1      C16           -21.9005271231       14.4538405864        8.5088313969  MEMB      41              0.0000000000
      4816        41  CHL1      H16A          -21.8580489568       15.3719778056        7.8836916493  MEMB      41              0.0000000000
      4817        41  CHL1      H16B          -21.2996804677       13.6566474140        8.0265341220  MEMB      41              0.0000000000
      4818        41  CHL1      C17           -23.3829406754       13.9803856627        8.6699691476  MEMB      41              0.0000000000
      4819        41  CHL1      H17           -23.3577098325       12.8684906742        8.7328021805  MEMB      41              0.0000000000
      4820        41  CHL1      C13           -23.8025532500       14.4972865179       10.0657496703  MEMB      41              0.0000000000
      4821        41  CHL1      C18           -24.1690810655       15.9953358640        9.9322285284  MEMB      41              0.0000000000
      4822        41  CHL1      H18A          -25.0778631466       16.1018257934        9.3113211718  MEMB      41              0.0000000000
      4823        41  CHL1      H18B          -24.3942959330       16.4570182852       10.9116456262  MEMB      41              0.0000000000
      4824        41  CHL1      H18C          -23.3518526850       16.5746616831        9.4597997919  MEMB      41              0.0000000000
      4825        41  CHL1      C12           -24.8707540581       13.6974310687       10.8404114970  MEMB      41              0.0000000000
      4826        41  CHL1      H12A          -25.8631798361       13.7669103194       10.3597104479  MEMB      41              0.0000000000
      4827        41  CHL1      H12B          -24.5740323511       12.6252037977       10.8680705657  MEMB      41              0.0000000000
      4828        41  CHL1      C11           -24.9999635317       14.2124180539       12.2886819513  MEMB      41              0.0000000000
      4829        41  CHL1      H11A          -25.4922391775       15.2038077154       12.2511541911  MEMB      41              0.0000000000
      4830        41  CHL1      H11B          -25.6817335441       13.5250752566       12.8314889118  MEMB      41              0.0000000000
      4831        41  CHL1      C9            -23.6345165235       14.3030517896       13.0445886414  MEMB      41              0.0000000000
      4832        41  CHL1      H9            -23.3014859492       13.2367900661       13.1481670279  MEMB      41              0.0000000000
      4833        41  CHL1      C10           -23.7179415008       14.8574193663       14.4876625524  MEMB      41              0.0000000000
      4834        41  CHL1      C19           -24.2109341861       16.3166377787       14.4704787095  MEMB      41              0.0000000000
      4835        41  CHL1      H19A          -23.4637174038       17.0210771096       14.0501755006  MEMB      41              0.0000000000
      4836        41  CHL1      H19B          -25.1056831049       16.3790655557       13.8443580880  MEMB      41              0.0000000000
      4837        41  CHL1      H19C          -24.4814039182       16.6524138835       15.4922889374  MEMB      41              0.0000000000
      4838        41  CHL1      C1            -24.7027690814       13.9524830122       15.2801295819  MEMB      41              0.0000000000
      4839        41  CHL1      H1A           -25.7439392443       14.1845491943       14.9687029767  MEMB      41              0.0000000000
      4840        41  CHL1      H1B           -24.4995502459       12.8938922334       15.0073156708  MEMB      41              0.0000000000
      4841        41  CHL1      C2            -24.6095495673       14.0657711623       16.8044606369  MEMB      41              0.0000000000
      4842        41  CHL1      H2A           -25.1858122025       13.2410624450       17.2749401629  MEMB      41              0.0000000000
      4843        41  CHL1      H2B           -25.0664860681       15.0289421573       17.1170859403  MEMB      41              0.0000000000
      4844        41  CHL1      C20           -24.2483600073       14.3614562340        7.4538533616  MEMB      41              0.0000000000
      4845        41  CHL1      H20           -24.3633066067       15.4703186861        7.4377185945  MEMB      41              0.0000000000
      4846        41  CHL1      C21           -25.6589593207       13.7347097329        7.5377131879  MEMB      41              0.0000000000
      4847        41  CHL1      H21A          -26.2088052500       14.1164361295        8.4166676049  MEMB      41              0.0000000000
      4848        41  CHL1      H21B          -25.5938525775       12.6275537262        7.5847654566  MEMB      41              0.0000000000
      4849        41  CHL1      H21C          -26.2614703364       14.0135328660        6.6493163498  MEMB      41              0.0000000000
      4850        41  CHL1      C22           -23.5959635159       14.0041240850        6.0960594943  MEMB      41              0.0000000000
      4851        41  CHL1      H22A          -22.5203955752       14.2776703264        6.0850764668  MEMB      41              0.0000000000
      4852        41  CHL1      H22B          -23.6635696317       12.9101331724        5.9166254343  MEMB      41              0.0000000000
      4853        41  CHL1      C23           -24.2328790069       14.7863484919        4.9416762102  MEMB      41              0.0000000000
      4854        41  CHL1      H23A          -25.2749768954       14.4311436419        4.7865334432  MEMB      41              0.0000000000
      4855        41  CHL1      H23B          -24.2777404127       15.8642034807        5.2218279786  MEMB      41              0.0000000000
      4856        41  CHL1      C24           -23.4417216933       14.6672884125        3.6350900742  MEMB      41              0.0000000000
      4857        41  CHL1      H24A          -22.3750956538       14.9204628649        3.8259214083  MEMB      41              0.0000000000
      4858        41  CHL1      H24B          -23.4728601118       13.6155088979        3.2861978268  MEMB      41              0.0000000000
      4859        41  CHL1      C25           -23.9660583230       15.6006089524        2.5268606726  MEMB      41              0.0000000000
      4860        41  CHL1      H25           -23.7809038813       16.6506742430        2.8615017195  MEMB      41              0.0000000000
      4861        41  CHL1      C26           -23.1845407832       15.3938718881        1.2193180744  MEMB      41              0.0000000000
      4862        41  CHL1      H26A          -23.5680144134       16.0746255092        0.4308653569  MEMB      41              0.0000000000
      4863        41  CHL1      H26B          -22.1054876444       15.6012882873        1.3744377010  MEMB      41              0.0000000000
      4864        41  CHL1      H26C          -23.2888198524       14.3503928746        0.8599424915  MEMB      41              0.0000000000
      4865        41  CHL1      C27           -25.4841708604       15.4484651826        2.3084654587  MEMB      41              0.0000000000
      4866        41  CHL1      H27A          -25.7764854973       14.3935403192        2.1781676525  MEMB      41              0.0000000000
      4867        41  CHL1      H27B          -26.0433012558       15.8345888520        3.1865904529  MEMB      41              0.0000000000
      4868        41  CHL1      H27C          -25.8079176669       16.0143588347        1.4110744452  MEMB      41              0.0000000000
      4869        42  CHL1      C3             12.0893881725       26.2953829084       17.6484351971  MEMB      42              0.0000000000
      4870        42  CHL1      H3             13.1861003537       26.1009766795       17.5926323752  MEMB      42              0.0000000000
      4871        42  CHL1      O3             11.8040967440       26.7486903449       18.9552736291  MEMB      42              0.0000000000
      4872        42  CHL1      H3'            12.0930626037       27.6654462138       18.9144160885  MEMB      42              0.0000000000
      4873        42  CHL1      C4             11.6659563842       27.3804792346       16.6609136043  MEMB      42              0.0000000000
      4874        42  CHL1      H4A            10.5551654214       27.4536042015       16.6503456719  MEMB      42              0.0000000000
      4875        42  CHL1      H4B            12.0541672094       28.3690052681       16.9915580424  MEMB      42              0.0000000000
      4876        42  CHL1      C5             12.1788792953       26.9914312037       15.2963521594  MEMB      42              0.0000000000
      4877        42  CHL1      C6             13.0948659206       27.7621133597       14.7059366072  MEMB      42              0.0000000000
      4878        42  CHL1      H6             13.4185061951       28.6614851597       15.2419908096  MEMB      42              0.0000000000
      4879        42  CHL1      C7             13.6987069182       27.5026793771       13.3521096109  MEMB      42              0.0000000000
      4880        42  CHL1      H7A            13.6406478985       28.4069124066       12.7176550001  MEMB      42              0.0000000000
      4881        42  CHL1      H7B            14.7719126211       27.2413259290       13.4730563576  MEMB      42              0.0000000000
      4882        42  CHL1      C8             12.9802782494       26.3472867746       12.6085293990  MEMB      42              0.0000000000
      4883        42  CHL1      H8             12.0004547238       26.7401634801       12.2606012996  MEMB      42              0.0000000000
      4884        42  CHL1      C14            13.7775551499       25.9012511752       11.3822238583  MEMB      42              0.0000000000
      4885        42  CHL1      H14            14.7841292647       25.5785801131       11.7502494213  MEMB      42              0.0000000000
      4886        42  CHL1      C15            14.0566742034       26.9550746566       10.2944206628  MEMB      42              0.0000000000
      4887        42  CHL1      H15A           13.1454265856       27.5697255719       10.1264441410  MEMB      42              0.0000000000
      4888        42  CHL1      H15B           14.8879213070       27.6322670716       10.5723355155  MEMB      42              0.0000000000
      4889        42  CHL1      C16            14.3773986021       26.1321463883        9.0353113246  MEMB      42              0.0000000000
      4890        42  CHL1      H16A           13.7516905773       26.5022368976        8.1946913987  MEMB      42              0.0000000000
      4891        42  CHL1      H16B           15.4426205468       26.2329548150        8.7463356490  MEMB      42              0.0000000000
      4892        42  CHL1      C17            14.0465392584       24.6378038665        9.3627314339  MEMB      42              0.0000000000
      4893        42  CHL1      H17            15.0108586260       24.1544828284        9.6434450747  MEMB      42              0.0000000000
      4894        42  CHL1      C13            13.1818106952       24.7015544932       10.6523078086  MEMB      42              0.0000000000
      4895        42  CHL1      C18            11.7334272567       25.0198218131       10.2096958478  MEMB      42              0.0000000000
      4896        42  CHL1      H18A           11.7017037207       25.8589279962        9.4858746925  MEMB      42              0.0000000000
      4897        42  CHL1      H18B           11.2664989492       24.1375729141        9.7293713069  MEMB      42              0.0000000000
      4898        42  CHL1      H18C           11.1055759254       25.2950056241       11.0742443394  MEMB      42              0.0000000000
      4899        42  CHL1      C12            13.2705229948       23.5207993587       11.6464363198  MEMB      42              0.0000000000
      4900        42  CHL1      H12A           12.8556206102       22.5883736155       11.2229775903  MEMB      42              0.0000000000
      4901        42  CHL1      H12B           14.3487212841       23.3390281369       11.8530354196  MEMB      42              0.0000000000
      4902        42  CHL1      C11            12.5593485542       23.7913824291       12.9997422988  MEMB      42              0.0000000000
      4903        42  CHL1      H11A           11.4856101189       23.6022972698       12.8974765368  MEMB      42              0.0000000000
      4904        42  CHL1      H11B           12.9377490212       23.0414675355       13.7328043381  MEMB      42              0.0000000000
      4905        42  CHL1      C9             12.7556175312       25.2073497085       13.6155364281  MEMB      42              0.0000000000
      4906        42  CHL1      H9             13.7533023811       25.1033400192       14.1147046839  MEMB      42              0.0000000000
      4907        42  CHL1      C10            11.7463058413       25.6164575684       14.7533015851  MEMB      42              0.0000000000
      4908        42  CHL1      C19            10.2895634786       25.7364445928       14.2397432547  MEMB      42              0.0000000000
      4909        42  CHL1      H19A            9.6173642447       26.1110580964       15.0403317506  MEMB      42              0.0000000000
      4910        42  CHL1      H19B           10.2067511359       26.4111185155       13.3660472318  MEMB      42              0.0000000000
      4911        42  CHL1      H19C            9.9082234438       24.7371455801       13.9569086402  MEMB      42              0.0000000000
      4912        42  CHL1      C1             11.7364773619       24.5421451266       15.8819681510  MEMB      42              0.0000000000
      4913        42  CHL1      H1A            11.0851933498       23.6912128715       15.5839341945  MEMB      42              0.0000000000
      4914        42  CHL1      H1B            12.7640310057       24.1578722312       15.9364810788  MEMB      42              0.0000000000
      4915        42  CHL1      C2             11.3417898504       25.0121912082       17.3006815480  MEMB      42              0.0000000000
      4916        42  CHL1      H2A            11.5759858332       24.2357376814       18.0545215056  MEMB      42              0.0000000000
      4917        42  CHL1      H2B            10.2467259547       25.1792498735       17.3450247162  MEMB      42              0.0000000000
      4918        42  CHL1      C20            13.4737168605       23.8908372199        8.1383581057  MEMB      42              0.0000000000
      4919        42  CHL1      H20            12.5141253471       24.3791868053        7.8454516715  MEMB      42              0.0000000000
      4920        42  CHL1      C21            13.1812772805       22.4108626345        8.4662516158  MEMB      42              0.0000000000
      4921        42  CHL1      H21A           12.7621844494       21.8824945654        7.5882159181  MEMB      42              0.0000000000
      4922        42  CHL1      H21B           12.4268805078       22.3138635761        9.2662649827  MEMB      42              0.0000000000
      4923        42  CHL1      H21C           14.1125175637       21.8914442545        8.7620061216  MEMB      42              0.0000000000
      4924        42  CHL1      C22            14.3657544879       23.9444828399        6.8722024402  MEMB      42              0.0000000000
      4925        42  CHL1      H22A           14.8368787110       24.9409127698        6.7370835060  MEMB      42              0.0000000000
      4926        42  CHL1      H22B           15.1828698776       23.2032119205        6.9677946022  MEMB      42              0.0000000000
      4927        42  CHL1      C23            13.5488876528       23.6330756893        5.6106430325  MEMB      42              0.0000000000
      4928        42  CHL1      H23A           12.8861741534       22.7561184207        5.7754023461  MEMB      42              0.0000000000
      4929        42  CHL1      H23B           12.8858655308       24.5030895371        5.4077124423  MEMB      42              0.0000000000
      4930        42  CHL1      C24            14.3960089649       23.3057192669        4.3800385343  MEMB      42              0.0000000000
      4931        42  CHL1      H24A           15.1532567816       24.1013829842        4.2036122399  MEMB      42              0.0000000000
      4932        42  CHL1      H24B           14.9398904666       22.3534615722        4.5504169315  MEMB      42              0.0000000000
      4933        42  CHL1      C25            13.5042980542       23.1557869970        3.1383097403  MEMB      42              0.0000000000
      4934        42  CHL1      H25            12.6243407620       22.5209857602        3.4089954355  MEMB      42              0.0000000000
      4935        42  CHL1      C26            12.9903799034       24.5356772975        2.7049630368  MEMB      42              0.0000000000
      4936        42  CHL1      H26A           12.9800519118       24.6130902039        1.5997270976  MEMB      42              0.0000000000
      4937        42  CHL1      H26B           11.9672298339       24.7189367246        3.0855867875  MEMB      42              0.0000000000
      4938        42  CHL1      H26C           13.6453413374       25.3355797088        3.1054431038  MEMB      42              0.0000000000
      4939        42  CHL1      C27            14.2377658615       22.4424307961        1.9950633188  MEMB      42              0.0000000000
      4940        42  CHL1      H27A           14.3940886674       21.3722850853        2.2467541826  MEMB      42              0.0000000000
      4941        42  CHL1      H27B           13.6358140007       22.4950977048        1.0627075360  MEMB      42              0.0000000000
      4942        42  CHL1      H27C           15.2273790875       22.9074219670        1.8124233233  MEMB      42              0.0000000000
      4943        43  SAPC      N             -17.3849780179       19.6071035286       18.6166679202  MEMB      43              0.0000000000
      4944        43  SAPC      C12           -18.8688483916       19.8961433625       18.5842406299  MEMB      43              0.0000000000
      4945        43  SAPC      H12A          -19.3305938010       19.2904281419       17.8197677998  MEMB      43              0.0000000000
      4946        43  SAPC      H12B          -19.0138442336       20.9290558643       18.2809973675  MEMB      43              0.0000000000
      4947        43  SAPC      C13           -17.2073473204       18.3627425213       19.4305029336  MEMB      43              0.0000000000
      4948        43  SAPC      H13A          -17.7052683271       17.5055453288       18.9991565883  MEMB      43              0.0000000000
      4949        43  SAPC      H13B          -16.1743483247       18.1639834300       19.6380278893  MEMB      43              0.0000000000
      4950        43  SAPC      H13C          -17.7420245576       18.5358314600       20.3719505139  MEMB      43              0.0000000000
      4951        43  SAPC      C14           -16.7829416995       19.4494877966       17.2633128139  MEMB      43              0.0000000000
      4952        43  SAPC      H14A          -17.1960796911       18.6065674939       16.7319262131  MEMB      43              0.0000000000
      4953        43  SAPC      H14B          -16.9421818320       20.3426368552       16.6686602579  MEMB      43              0.0000000000
      4954        43  SAPC      H14C          -15.7133728830       19.3349285308       17.3513366188  MEMB      43              0.0000000000
      4955        43  SAPC      C15           -16.7068287910       20.7520496206       19.3325216770  MEMB      43              0.0000000000
      4956        43  SAPC      H15A          -16.6335755169       21.6563424905       18.7431697032  MEMB      43              0.0000000000
      4957        43  SAPC      H15B          -17.2932027393       21.0095316601       20.2212901367  MEMB      43              0.0000000000
      4958        43  SAPC      H15C          -15.7175171892       20.4864552004       19.6693078388  MEMB      43              0.0000000000
      4959        43  SAPC      C11           -19.6506140996       19.6937202684       19.9226928761  MEMB      43              0.0000000000
      4960        43  SAPC      H11A          -19.8550110855       18.6100212212       20.0592487253  MEMB      43              0.0000000000
      4961        43  SAPC      H11B          -20.6556504883       20.1735496827       19.8473255416  MEMB      43              0.0000000000
      4962        43  SAPC      P             -19.2831127459       21.3344938069       22.0262332161  MEMB      43              0.0000000000
      4963        43  SAPC      O13           -19.9374099616       20.7050448716       23.2022348566  MEMB      43              0.0000000000
      4964        43  SAPC      O14           -18.0282594611       22.0818122702       22.2969647969  MEMB      43              0.0000000000
      4965        43  SAPC      O12           -18.9011383298       20.1584757462       21.0385604687  MEMB      43              0.0000000000
      4966        43  SAPC      O11           -20.3425672639       22.1625713063       21.1405977984  MEMB      43              0.0000000000
      4967        43  SAPC      C1            -19.9056677160       22.9314228514       20.0103466057  MEMB      43              0.0000000000
      4968        43  SAPC      HA            -19.7817793065       23.9815185821       20.3540756281  MEMB      43              0.0000000000
      4969        43  SAPC      HB            -18.9195440189       22.5975823015       19.6163660205  MEMB      43              0.0000000000
      4970        43  SAPC      C2            -20.9068004409       22.9596195909       18.7955871573  MEMB      43              0.0000000000
      4971        43  SAPC      HS            -21.9194358819       23.1163470394       19.2312223069  MEMB      43              0.0000000000
      4972        43  SAPC      O21           -20.8646784681       21.7246519756       18.0386106145  MEMB      43              0.0000000000
      4973        43  SAPC      C21           -21.8650676952       21.5392116769       17.1731245852  MEMB      43              0.0000000000
      4974        43  SAPC      O22           -22.7930246988       22.3012152214       16.9939206463  MEMB      43              0.0000000000
      4975        43  SAPC      C22           -21.7754186278       20.1383269865       16.5380969801  MEMB      43              0.0000000000
      4976        43  SAPC      H2R           -21.2965519660       19.4620393755       17.2697324995  MEMB      43              0.0000000000
      4977        43  SAPC      H2S           -22.8181793400       19.7831722568       16.3966642890  MEMB      43              0.0000000000
      4978        43  SAPC      C3            -20.6071565015       24.1582572019       17.8477191487  MEMB      43              0.0000000000
      4979        43  SAPC      HX            -20.6524868967       25.1097026895       18.4319013025  MEMB      43              0.0000000000
      4980        43  SAPC      HY            -21.4150112885       24.2284519445       17.0945243545  MEMB      43              0.0000000000
      4981        43  SAPC      O31           -19.3723936411       23.9587175937       17.1283314718  MEMB      43              0.0000000000
      4982        43  SAPC      C31           -18.3085521775       24.5257652628       17.6823637537  MEMB      43              0.0000000000
      4983        43  SAPC      O32           -18.3246149647       25.2713550414       18.6377274422  MEMB      43              0.0000000000
      4984        43  SAPC      C32           -17.0351834984       24.0538000188       17.0066441108  MEMB      43              0.0000000000
      4985        43  SAPC      H2X           -16.2346383471       24.1008875126       17.7748471756  MEMB      43              0.0000000000
      4986        43  SAPC      H2Y           -16.8095214816       24.7903090130       16.2228160666  MEMB      43              0.0000000000
      4987        43  SAPC      C23           -21.0189310204       20.0866483137       15.1849935658  MEMB      43              0.0000000000
      4988        43  SAPC      H3R           -20.5014931279       19.0996016262       15.1145806394  MEMB      43              0.0000000000
      4989        43  SAPC      H3S           -20.2355992416       20.8743346523       15.1346071367  MEMB      43              0.0000000000
      4990        43  SAPC      C24           -21.9389599031       20.1613486642       13.9464532936  MEMB      43              0.0000000000
      4991        43  SAPC      H4R           -22.6170630961       19.2777843617       13.9506618434  MEMB      43              0.0000000000
      4992        43  SAPC      H4S           -21.3004425042       20.0586922183       13.0393097114  MEMB      43              0.0000000000
      4993        43  SAPC      C25           -22.7594824681       21.4251855258       13.8952188647  MEMB      43              0.0000000000
      4994        43  SAPC      H5R           -23.5597569946       21.4908632320       14.6508855101  MEMB      43              0.0000000000
      4995        43  SAPC      C26           -22.6040475112       22.4579456335       13.0482485177  MEMB      43              0.0000000000
      4996        43  SAPC      H6R           -23.2926970839       23.3087886945       13.1581164188  MEMB      43              0.0000000000
      4997        43  SAPC      C27           -21.5714204457       22.5946149911       11.9514579100  MEMB      43              0.0000000000
      4998        43  SAPC      H7R           -22.0138766396       22.1945580860       11.0139333794  MEMB      43              0.0000000000
      4999        43  SAPC      H7S           -20.6777467151       21.9700823510       12.1662562550  MEMB      43              0.0000000000
      5000        43  SAPC      C28           -21.1522488663       24.0266651019       11.7104524724  MEMB      43              0.0000000000
      5001        43  SAPC      H8R           -21.5908458774       24.7762226960       12.3781021291  MEMB      43              0.0000000000
      5002        43  SAPC      C29           -20.2126227119       24.4693011358       10.8611476545  MEMB      43              0.0000000000
      5003        43  SAPC      H9R           -20.0380946477       25.5537545127       10.8008633289  MEMB      43              0.0000000000
      5004        43  SAPC      C210          -19.3475167784       23.6475778129        9.9484357163  MEMB      43              0.0000000000
      5005        43  SAPC      H10R          -18.8395505672       22.8858326850       10.5705465974  MEMB      43              0.0000000000
      5006        43  SAPC      H10S          -18.5253093554       24.2987901467        9.5877571456  MEMB      43              0.0000000000
      5007        43  SAPC      C211          -20.0081774820       22.9401000358        8.7912178404  MEMB      43              0.0000000000
      5008        43  SAPC      H11R          -21.0143346376       22.5302663538        8.9770195326  MEMB      43              0.0000000000
      5009        43  SAPC      C212          -19.4391775817       22.7742468767        7.5811172170  MEMB      43              0.0000000000
      5010        43  SAPC      H12R          -19.9788957656       22.2025266615        6.8106508598  MEMB      43              0.0000000000
      5011        43  SAPC      C213          -18.0660840506       23.2594690872        7.1756879592  MEMB      43              0.0000000000
      5012        43  SAPC      H13R          -17.6500847465       22.5906317092        6.3898400189  MEMB      43              0.0000000000
      5013        43  SAPC      H13S          -17.3609867952       23.1815472876        8.0349562616  MEMB      43              0.0000000000
      5014        43  SAPC      C214          -18.1156463703       24.6945054601        6.7057474248  MEMB      43              0.0000000000
      5015        43  SAPC      H14R          -18.9241745337       25.3092102352        7.1364002705  MEMB      43              0.0000000000
      5016        43  SAPC      C215          -17.3038538570       25.2652655594        5.7981806314  MEMB      43              0.0000000000
      5017        43  SAPC      H15R          -17.4818216028       26.3159225544        5.5304085667  MEMB      43              0.0000000000
      5018        43  SAPC      C216          -16.1691278267       24.6100360524        5.0513286701  MEMB      43              0.0000000000
      5019        43  SAPC      H16R          -15.8221230369       23.6864166473        5.5653053688  MEMB      43              0.0000000000
      5020        43  SAPC      H16S          -15.3036718310       25.3085172771        5.0233268415  MEMB      43              0.0000000000
      5021        43  SAPC      C217          -16.5450309158       24.2412815809        3.6008633655  MEMB      43              0.0000000000
      5022        43  SAPC      H17R          -15.6558115994       23.7815285643        3.1128858334  MEMB      43              0.0000000000
      5023        43  SAPC      H17S          -16.7893595355       25.1608442011        3.0263056127  MEMB      43              0.0000000000
      5024        43  SAPC      C218          -17.7228763698       23.2587343168        3.5220705796  MEMB      43              0.0000000000
      5025        43  SAPC      H18R          -18.5872539316       23.6550440369        4.1009037541  MEMB      43              0.0000000000
      5026        43  SAPC      H18S          -17.4157004397       22.2981223226        3.9961811138  MEMB      43              0.0000000000
      5027        43  SAPC      C219          -18.2191341423       22.9876078194        2.0994000913  MEMB      43              0.0000000000
      5028        43  SAPC      H19R          -17.3789624207       22.5753458190        1.5043140982  MEMB      43              0.0000000000
      5029        43  SAPC      H19S          -18.5163722565       23.9375982817        1.6062636536  MEMB      43              0.0000000000
      5030        43  SAPC      C220          -19.3974990602       22.0095441388        2.1009828737  MEMB      43              0.0000000000
      5031        43  SAPC      H20R          -19.1923262533       21.1732656041        2.8063682117  MEMB      43              0.0000000000
      5032        43  SAPC      H20S          -19.5694163453       21.5796439671        1.0925697045  MEMB      43              0.0000000000
      5033        43  SAPC      H20T          -20.3224251014       22.5218604475        2.4421983282  MEMB      43              0.0000000000
      5034        43  SAPC      C33           -17.1132741943       22.6513743552       16.3917308708  MEMB      43              0.0000000000
      5035        43  SAPC      H3X           -17.8571994622       22.0178025117       16.9218048677  MEMB      43              0.0000000000
      5036        43  SAPC      H3Y           -16.1044473835       22.1856519459       16.4885701729  MEMB      43              0.0000000000
      5037        43  SAPC      C34           -17.4550813663       22.7356205276       14.9103814954  MEMB      43              0.0000000000
      5038        43  SAPC      H4X           -16.7275446550       23.4238116039       14.4219778598  MEMB      43              0.0000000000
      5039        43  SAPC      H4Y           -18.4716588084       23.1712759484       14.7717497249  MEMB      43              0.0000000000
      5040        43  SAPC      C35           -17.3702481985       21.3866296339       14.2127053605  MEMB      43              0.0000000000
      5041        43  SAPC      H5X           -18.1486239399       20.6929901785       14.5948953520  MEMB      43              0.0000000000
      5042        43  SAPC      H5Y           -16.3716830793       20.9306759613       14.3983382846  MEMB      43              0.0000000000
      5043        43  SAPC      C36           -17.5467723360       21.5678426837       12.7122685919  MEMB      43              0.0000000000
      5044        43  SAPC      H6X           -16.7879332518       22.2959788631       12.3420834813  MEMB      43              0.0000000000
      5045        43  SAPC      H6Y           -18.5481818078       22.0001768588       12.5002400392  MEMB      43              0.0000000000
      5046        43  SAPC      C37           -17.3905180472       20.2545681314       11.9567095466  MEMB      43              0.0000000000
      5047        43  SAPC      H7X           -18.2368398532       19.5722649282       12.1941641422  MEMB      43              0.0000000000
      5048        43  SAPC      H7Y           -16.4422371109       19.7677294314       12.2782425349  MEMB      43              0.0000000000
      5049        43  SAPC      C38           -17.3309482721       20.4937279995       10.4515309986  MEMB      43              0.0000000000
      5050        43  SAPC      H8X           -16.5511321482       21.2642845994       10.2529258394  MEMB      43              0.0000000000
      5051        43  SAPC      H8Y           -18.2944691379       20.9072484459       10.0891946628  MEMB      43              0.0000000000
      5052        43  SAPC      C39           -16.9704530012       19.2226492100        9.6904952285  MEMB      43              0.0000000000
      5053        43  SAPC      H9X           -16.4465986449       18.5117921081       10.3655654616  MEMB      43              0.0000000000
      5054        43  SAPC      H9Y           -16.2622173540       19.5053473483        8.8804346869  MEMB      43              0.0000000000
      5055        43  SAPC      C310          -18.1655917206       18.5114729493        9.0629209716  MEMB      43              0.0000000000
      5056        43  SAPC      H10X          -18.8967651452       18.1994233723        9.8380657902  MEMB      43              0.0000000000
      5057        43  SAPC      H10Y          -17.7728814932       17.5870762992        8.5783461506  MEMB      43              0.0000000000
      5058        43  SAPC      C311          -18.8518988182       19.3730197342        8.0025161425  MEMB      43              0.0000000000
      5059        43  SAPC      H11X          -18.1149469163       20.1144945247        7.6094128970  MEMB      43              0.0000000000
      5060        43  SAPC      H11Y          -19.6903487801       19.9452498679        8.4558320494  MEMB      43              0.0000000000
      5061        43  SAPC      C312          -19.3368405456       18.5199512063        6.8327212258  MEMB      43              0.0000000000
      5062        43  SAPC      H12X          -20.1640618802       17.8497201079        7.1500456383  MEMB      43              0.0000000000
      5063        43  SAPC      H12Y          -18.4918471453       17.8762458001        6.5460123127  MEMB      43              0.0000000000
      5064        43  SAPC      C313          -19.7475190347       19.3569065918        5.6262441655  MEMB      43              0.0000000000
      5065        43  SAPC      H13X          -19.6828978240       18.7542274249        4.6924617818  MEMB      43              0.0000000000
      5066        43  SAPC      H13Y          -19.0558783418       20.2234382708        5.5130998842  MEMB      43              0.0000000000
      5067        43  SAPC      C314          -21.1749030063       19.8431698828        5.8069279971  MEMB      43              0.0000000000
      5068        43  SAPC      H14X          -21.2963101901       20.2667273420        6.8303673067  MEMB      43              0.0000000000
      5069        43  SAPC      H14Y          -21.8680223418       18.9729309710        5.7221214415  MEMB      43              0.0000000000
      5070        43  SAPC      C315          -21.5654339484       20.9125697651        4.7959464902  MEMB      43              0.0000000000
      5071        43  SAPC      H15X          -21.5443450000       20.4622952473        3.7775013334  MEMB      43              0.0000000000
      5072        43  SAPC      H15Y          -20.8523068329       21.7664885419        4.8058466634  MEMB      43              0.0000000000
      5073        43  SAPC      C316          -22.9632010568       21.4030620061        5.1362975664  MEMB      43              0.0000000000
      5074        43  SAPC      H16X          -22.9368381468       22.1919512892        5.9195783455  MEMB      43              0.0000000000
      5075        43  SAPC      H16Y          -23.5220278802       20.5363569978        5.5648349200  MEMB      43              0.0000000000
      5076        43  SAPC      C317          -23.7435647290       21.8764716376        3.9255958427  MEMB      43              0.0000000000
      5077        43  SAPC      H17X          -23.4875985432       21.2535525697        3.0372022507  MEMB      43              0.0000000000
      5078        43  SAPC      H17Y          -23.4650564503       22.9245062169        3.6908878206  MEMB      43              0.0000000000
      5079        43  SAPC      C318          -25.2285884872       21.7288552849        4.2146235182  MEMB      43              0.0000000000
      5080        43  SAPC      H18X          -25.5599600921       22.3944205001        5.0321275554  MEMB      43              0.0000000000
      5081        43  SAPC      H18Y          -25.4193171652       20.6945336159        4.5644889988  MEMB      43              0.0000000000
      5082        43  SAPC      H18Z          -25.8393384770       21.9255381093        3.3070743195  MEMB      43              0.0000000000
      5083        44  CHL1      C3            -15.2108380162      -23.5804343235       17.2576929044  MEMB      44              0.0000000000
      5084        44  CHL1      H3            -15.2385274793      -22.4752942070       17.1426492528  MEMB      44              0.0000000000
      5085        44  CHL1      O3            -14.9448157762      -23.9045004648       18.6171444066  MEMB      44              0.0000000000
      5086        44  CHL1      H3'           -13.9853035969      -23.8347814384       18.7141134148  MEMB      44              0.0000000000
      5087        44  CHL1      C4            -16.5572342219      -24.2017530937       16.8662424600  MEMB      44              0.0000000000
      5088        44  CHL1      H4A           -16.4890729518      -25.2741090875       17.1235405762  MEMB      44              0.0000000000
      5089        44  CHL1      H4B           -17.3326688088      -23.7737046976       17.5436198301  MEMB      44              0.0000000000
      5090        44  CHL1      C5            -16.9314319533      -24.0415134031       15.4047678871  MEMB      44              0.0000000000
      5091        44  CHL1      C6            -18.1260932063      -23.5137850759       15.0849660144  MEMB      44              0.0000000000
      5092        44  CHL1      H6            -18.8409466577      -23.2455861032       15.8812930685  MEMB      44              0.0000000000
      5093        44  CHL1      C7            -18.5760820350      -23.2486053845       13.6819962218  MEMB      44              0.0000000000
      5094        44  CHL1      H7A           -19.6075065496      -23.6212729139       13.5255241810  MEMB      44              0.0000000000
      5095        44  CHL1      H7B           -18.5913241812      -22.1478986142       13.5172009917  MEMB      44              0.0000000000
      5096        44  CHL1      C8            -17.6685094042      -23.8869935972       12.5995755325  MEMB      44              0.0000000000
      5097        44  CHL1      H8            -17.9146040537      -24.9708088770       12.5343515350  MEMB      44              0.0000000000
      5098        44  CHL1      C14           -17.9629783239      -23.2158219815       11.2628528917  MEMB      44              0.0000000000
      5099        44  CHL1      H14           -17.6970079648      -22.1379956907       11.3980457466  MEMB      44              0.0000000000
      5100        44  CHL1      C15           -19.4242682607      -23.2001576626       10.7920300396  MEMB      44              0.0000000000
      5101        44  CHL1      H15A          -19.8404010347      -24.2245934574       10.8855110563  MEMB      44              0.0000000000
      5102        44  CHL1      H15B          -20.0528690498      -22.4965702263       11.3717537723  MEMB      44              0.0000000000
      5103        44  CHL1      C16           -19.3262867702      -22.8081597605        9.3144429860  MEMB      44              0.0000000000
      5104        44  CHL1      H16A          -19.9085052547      -23.5502791609        8.7250384940  MEMB      44              0.0000000000
      5105        44  CHL1      H16B          -19.7371734149      -21.7930695675        9.1311482888  MEMB      44              0.0000000000
      5106        44  CHL1      C17           -17.8076687366      -22.8584463654        8.9326152708  MEMB      44              0.0000000000
      5107        44  CHL1      H17           -17.4259427252      -21.8139984108        9.0274172402  MEMB      44              0.0000000000
      5108        44  CHL1      C13           -17.1369881157      -23.6864797677       10.0713614976  MEMB      44              0.0000000000
      5109        44  CHL1      C18           -17.3808766908      -25.1823439044        9.7808948012  MEMB      44              0.0000000000
      5110        44  CHL1      H18A          -16.6842725735      -25.5284222453        8.9878217879  MEMB      44              0.0000000000
      5111        44  CHL1      H18B          -17.2116021486      -25.8105590482       10.6758781312  MEMB      44              0.0000000000
      5112        44  CHL1      H18C          -18.4149975636      -25.3567135766        9.4257603502  MEMB      44              0.0000000000
      5113        44  CHL1      C12           -15.6529912235      -23.4493604869       10.4241654194  MEMB      44              0.0000000000
      5114        44  CHL1      H12A          -14.9889290017      -23.8554630429        9.6350104211  MEMB      44              0.0000000000
      5115        44  CHL1      H12B          -15.4834159291      -22.3566985587       10.5030901099  MEMB      44              0.0000000000
      5116        44  CHL1      C11           -15.2625994992      -24.1294615817       11.7619240381  MEMB      44              0.0000000000
      5117        44  CHL1      H11A          -15.2924100878      -25.2248992265       11.5956777936  MEMB      44              0.0000000000
      5118        44  CHL1      H11B          -14.2166261143      -23.8545765988       12.0064706061  MEMB      44              0.0000000000
      5119        44  CHL1      C9            -16.1833929852      -23.7323530205       12.9559943467  MEMB      44              0.0000000000
      5120        44  CHL1      H9            -16.0175097543      -22.6385973440       13.0585171955  MEMB      44              0.0000000000
      5121        44  CHL1      C10           -15.8212146393      -24.3397840648       14.3532606302  MEMB      44              0.0000000000
      5122        44  CHL1      C19           -15.6803666640      -25.8669591229       14.1702660667  MEMB      44              0.0000000000
      5123        44  CHL1      H19A          -14.8994711618      -26.1121814375       13.4242839729  MEMB      44              0.0000000000
      5124        44  CHL1      H19B          -15.3535167698      -26.3428365787       15.1137122971  MEMB      44              0.0000000000
      5125        44  CHL1      H19C          -16.6428123234      -26.3140184434       13.8471872528  MEMB      44              0.0000000000
      5126        44  CHL1      C1            -14.4505666116      -23.7912609706       14.8685739939  MEMB      44              0.0000000000
      5127        44  CHL1      H1A           -13.6390751033      -24.1866671300       14.2214712938  MEMB      44              0.0000000000
      5128        44  CHL1      H1B           -14.4500025340      -22.6864505690       14.7628886032  MEMB      44              0.0000000000
      5129        44  CHL1      C2            -14.1114292151      -24.1212203659       16.3419578613  MEMB      44              0.0000000000
      5130        44  CHL1      H2A           -13.1300114587      -23.6756224706       16.6143925094  MEMB      44              0.0000000000
      5131        44  CHL1      H2B           -14.0285988200      -25.2202520038       16.4856553633  MEMB      44              0.0000000000
      5132        44  CHL1      C20           -17.6059523528      -23.2927370369        7.4710475661  MEMB      44              0.0000000000
      5133        44  CHL1      H20           -17.8371579469      -24.3776991185        7.3867698335  MEMB      44              0.0000000000
      5134        44  CHL1      C21           -16.1420992879      -23.0655771239        7.0407383011  MEMB      44              0.0000000000
      5135        44  CHL1      H21A          -16.0801488766      -22.1365441279        6.4419719445  MEMB      44              0.0000000000
      5136        44  CHL1      H21B          -15.7992438048      -23.9022847934        6.3967403420  MEMB      44              0.0000000000
      5137        44  CHL1      H21C          -15.4490608063      -22.9621612873        7.8892611364  MEMB      44              0.0000000000
      5138        44  CHL1      C22           -18.5553853527      -22.5628150145        6.4733780595  MEMB      44              0.0000000000
      5139        44  CHL1      H22A          -19.6190603152      -22.7651830130        6.7193861146  MEMB      44              0.0000000000
      5140        44  CHL1      H22B          -18.4016820976      -21.4660476005        6.5829319920  MEMB      44              0.0000000000
      5141        44  CHL1      C23           -18.3458640282      -22.9381595294        4.9914235579  MEMB      44              0.0000000000
      5142        44  CHL1      H23A          -18.3031672549      -22.0015016404        4.3908198687  MEMB      44              0.0000000000
      5143        44  CHL1      H23B          -17.3785725615      -23.4618737690        4.8462889701  MEMB      44              0.0000000000
      5144        44  CHL1      C24           -19.4637780670      -23.8205288854        4.4165737261  MEMB      44              0.0000000000
      5145        44  CHL1      H24A          -19.8343066597      -24.5231025153        5.1954963216  MEMB      44              0.0000000000
      5146        44  CHL1      H24B          -20.3004712513      -23.1695765072        4.1104477239  MEMB      44              0.0000000000
      5147        44  CHL1      C25           -19.0407292076      -24.6165232460        3.1710739336  MEMB      44              0.0000000000
      5148        44  CHL1      H25           -18.1055088232      -25.1668679302        3.4251992871  MEMB      44              0.0000000000
      5149        44  CHL1      C26           -20.1130507440      -25.6437306016        2.7836943638  MEMB      44              0.0000000000
      5150        44  CHL1      H26A          -20.2964917613      -26.3511785310        3.6204526962  MEMB      44              0.0000000000
      5151        44  CHL1      H26B          -21.0657754741      -25.1332224023        2.5267734393  MEMB      44              0.0000000000
      5152        44  CHL1      H26C          -19.7792539225      -26.2231232080        1.8981663041  MEMB      44              0.0000000000
      5153        44  CHL1      C27           -18.7542420661      -23.6942439463        1.9809501988  MEMB      44              0.0000000000
      5154        44  CHL1      H27A          -19.6960345390      -23.2191946209        1.6325680553  MEMB      44              0.0000000000
      5155        44  CHL1      H27B          -18.0342869734      -22.8956570736        2.2528934869  MEMB      44              0.0000000000
      5156        44  CHL1      H27C          -18.3269933522      -24.2857820068        1.1434488586  MEMB      44              0.0000000000
      5157        45  SLPC      N              24.9391505458      -17.1781196157       16.6623202516  MEMB      45              0.0000000000
      5158        45  SLPC      C13            24.1541136772      -17.0006164072       17.9202001295  MEMB      45              0.0000000000
      5159        45  SLPC      H13A           23.3930588547      -17.7585115323       17.9827235395  MEMB      45              0.0000000000
      5160        45  SLPC      H13B           24.8216189475      -17.0921722276       18.7739825198  MEMB      45              0.0000000000
      5161        45  SLPC      H13C           23.6632299077      -16.0260023961       17.9322109360  MEMB      45              0.0000000000
      5162        45  SLPC      C14            26.0852283766      -16.2103124970       16.7239749351  MEMB      45              0.0000000000
      5163        45  SLPC      H14A           26.8020486304      -16.5001360793       17.5091185835  MEMB      45              0.0000000000
      5164        45  SLPC      H14B           26.6471948697      -16.2055021701       15.7996306217  MEMB      45              0.0000000000
      5165        45  SLPC      H14C           25.7371097191      -15.2108512185       16.9399245353  MEMB      45              0.0000000000
      5166        45  SLPC      C15            24.0719867497      -16.8911989766       15.4903045906  MEMB      45              0.0000000000
      5167        45  SLPC      H15A           23.1946267490      -17.5418597652       15.4526866829  MEMB      45              0.0000000000
      5168        45  SLPC      H15B           23.6831901339      -15.8850156157       15.5794245441  MEMB      45              0.0000000000
      5169        45  SLPC      H15C           24.6201295637      -16.9851548665       14.5635091299  MEMB      45              0.0000000000
      5170        45  SLPC      C12            25.4436343421      -18.5885108686       16.4952602246  MEMB      45              0.0000000000
      5171        45  SLPC      H12A           26.3641041165      -18.5546712162       15.9112948782  MEMB      45              0.0000000000
      5172        45  SLPC      H12B           24.7363256762      -19.1587562721       15.9212292694  MEMB      45              0.0000000000
      5173        45  SLPC      C11            25.7726446470      -19.4089553138       17.7496840694  MEMB      45              0.0000000000
      5174        45  SLPC      H11A           26.0017268021      -20.4626184270       17.4603652764  MEMB      45              0.0000000000
      5175        45  SLPC      H11B           24.8994044820      -19.4747827665       18.4361792489  MEMB      45              0.0000000000
      5176        45  SLPC      P              28.2986392674      -18.8308885961       17.6692722174  MEMB      45              0.0000000000
      5177        45  SLPC      O13            28.6342011213      -17.4094356142       17.4668727981  MEMB      45              0.0000000000
      5178        45  SLPC      O14            29.1310663646      -19.7499449123       18.4677774526  MEMB      45              0.0000000000
      5179        45  SLPC      O12            26.8719566723      -18.8123350244       18.4019354387  MEMB      45              0.0000000000
      5180        45  SLPC      O11            27.9912421892      -19.4790490935       16.2280916311  MEMB      45              0.0000000000
      5181        45  SLPC      C1             28.9251382788      -20.4203962539       15.6635236195  MEMB      45              0.0000000000
      5182        45  SLPC      HA             29.5163047295      -20.9385595834       16.4559083848  MEMB      45              0.0000000000
      5183        45  SLPC      HB             28.3593156737      -21.2257995182       15.1533133032  MEMB      45              0.0000000000
      5184        45  SLPC      C2             29.9565414258      -19.8400521947       14.6266596507  MEMB      45              0.0000000000
      5185        45  SLPC      HS             30.9576476455      -20.2179595286       14.9414333176  MEMB      45              0.0000000000
      5186        45  SLPC      O21            29.9410573103      -18.4010677421       14.6623006331  MEMB      45              0.0000000000
      5187        45  SLPC      C21            30.9936866804      -17.8551462576       14.0668259026  MEMB      45              0.0000000000
      5188        45  SLPC      O22            31.8494096013      -18.4731942932       13.4525846305  MEMB      45              0.0000000000
      5189        45  SLPC      C22            31.0154328436      -16.3520350053       14.3251930351  MEMB      45              0.0000000000
      5190        45  SLPC      H2R            31.0630391355      -16.2226061618       15.4298046431  MEMB      45              0.0000000000
      5191        45  SLPC      H2S            31.9363008789      -15.9257551844       13.8846065747  MEMB      45              0.0000000000
      5192        45  SLPC      C3             29.6773921478      -20.3556383806       13.1614244211  MEMB      45              0.0000000000
      5193        45  SLPC      HX             30.1356182078      -21.3536775621       13.0872703769  MEMB      45              0.0000000000
      5194        45  SLPC      HY             30.2218401771      -19.7550604659       12.3996498882  MEMB      45              0.0000000000
      5195        45  SLPC      O31            28.2746405743      -20.4919881559       12.8436594686  MEMB      45              0.0000000000
      5196        45  SLPC      C31            27.7350689282      -19.3549701993       12.4556759947  MEMB      45              0.0000000000
      5197        45  SLPC      O32            28.3444909233      -18.3436042264       12.1836787787  MEMB      45              0.0000000000
      5198        45  SLPC      C32            26.2260441780      -19.4900033566       12.5755353320  MEMB      45              0.0000000000
      5199        45  SLPC      H2X            25.8225221999      -18.4584512666       12.6775125811  MEMB      45              0.0000000000
      5200        45  SLPC      H2Y            26.0190251940      -20.0459802486       13.5156723264  MEMB      45              0.0000000000
      5201        45  SLPC      C23            29.7757586089      -15.6080547732       13.7773962480  MEMB      45              0.0000000000
      5202        45  SLPC      H3R            29.8040715180      -14.5844172265       14.2173269499  MEMB      45              0.0000000000
      5203        45  SLPC      H3S            28.8471931965      -16.1048405838       14.1321355045  MEMB      45              0.0000000000
      5204        45  SLPC      C24            29.7610932329      -15.4287603128       12.2494695981  MEMB      45              0.0000000000
      5205        45  SLPC      H4R            29.6761228871      -16.4097001894       11.7392557875  MEMB      45              0.0000000000
      5206        45  SLPC      H4S            30.7326333281      -14.9800560931       11.9379902220  MEMB      45              0.0000000000
      5207        45  SLPC      C25            28.6390331441      -14.4861640717       11.7804766694  MEMB      45              0.0000000000
      5208        45  SLPC      H5R            28.8085850884      -14.1889255285       10.7277848302  MEMB      45              0.0000000000
      5209        45  SLPC      H5S            28.7367395450      -13.5572147231       12.3881445143  MEMB      45              0.0000000000
      5210        45  SLPC      C26            27.1959314930      -14.9986480266       11.9609393927  MEMB      45              0.0000000000
      5211        45  SLPC      H6R            26.5379022252      -14.1053319286       11.9087101597  MEMB      45              0.0000000000
      5212        45  SLPC      H6S            27.0942564035      -15.4372130094       12.9771220149  MEMB      45              0.0000000000
      5213        45  SLPC      C27            26.6421921529      -16.0041968244       10.9290170871  MEMB      45              0.0000000000
      5214        45  SLPC      H7R            25.6432058382      -16.3328414192       11.2973345300  MEMB      45              0.0000000000
      5215        45  SLPC      H7S            27.2707736921      -16.9073079569       10.8815084849  MEMB      45              0.0000000000
      5216        45  SLPC      C28            26.4669277917      -15.4719975403        9.4962781676  MEMB      45              0.0000000000
      5217        45  SLPC      H8R            26.0940205665      -14.4259787180        9.5287324342  MEMB      45              0.0000000000
      5218        45  SLPC      H8S            25.6738206812      -16.0495827138        8.9871160953  MEMB      45              0.0000000000
      5219        45  SLPC      C29            27.7179532771      -15.5544508391        8.6718187998  MEMB      45              0.0000000000
      5220        45  SLPC      H9R            28.3105914867      -14.6496339721        8.7095117241  MEMB      45              0.0000000000
      5221        45  SLPC      C210           28.2936238684      -16.6287962153        8.1189579686  MEMB      45              0.0000000000
      5222        45  SLPC      H10R           29.1907987440      -16.4859802143        7.4980548167  MEMB      45              0.0000000000
      5223        45  SLPC      C211           27.8065288008      -18.0413304869        8.2026532823  MEMB      45              0.0000000000
      5224        45  SLPC      H11R           27.6613049907      -18.4294117735        7.1693680425  MEMB      45              0.0000000000
      5225        45  SLPC      H11S           26.8210671763      -18.0876406106        8.7035285955  MEMB      45              0.0000000000
      5226        45  SLPC      C212           28.8103143565      -18.8441518016        9.0025792036  MEMB      45              0.0000000000
      5227        45  SLPC      H12R           29.3222704561      -18.2999547599        9.8170439772  MEMB      45              0.0000000000
      5228        45  SLPC      C213           29.0588904657      -20.1565977586        8.8548413931  MEMB      45              0.0000000000
      5229        45  SLPC      H13R           29.8159187325      -20.6381290961        9.4926107121  MEMB      45              0.0000000000
      5230        45  SLPC      C214           28.3581485845      -21.0354652201        7.8593406706  MEMB      45              0.0000000000
      5231        45  SLPC      H14R           27.5152463956      -20.4681176677        7.4449938129  MEMB      45              0.0000000000
      5232        45  SLPC      H14S           27.8831816169      -21.8832871895        8.3869561530  MEMB      45              0.0000000000
      5233        45  SLPC      C215           29.1214757425      -21.5807145425        6.6386680247  MEMB      45              0.0000000000
      5234        45  SLPC      H15R           28.7923382748      -22.6360094255        6.4919793969  MEMB      45              0.0000000000
      5235        45  SLPC      H15S           30.2180361249      -21.6016974645        6.8106081786  MEMB      45              0.0000000000
      5236        45  SLPC      C216           28.7865323390      -20.8211214362        5.3429380494  MEMB      45              0.0000000000
      5237        45  SLPC      H16R           29.3966108463      -19.9064788968        5.2724433330  MEMB      45              0.0000000000
      5238        45  SLPC      H16S           27.7362248310      -20.4684572026        5.3543784203  MEMB      45              0.0000000000
      5239        45  SLPC      C217           29.0121347142      -21.6630738633        4.0867976490  MEMB      45              0.0000000000
      5240        45  SLPC      H17R           28.2293572547      -22.4511880812        4.0167965170  MEMB      45              0.0000000000
      5241        45  SLPC      H17S           29.9810266851      -22.1763768475        4.2138933365  MEMB      45              0.0000000000
      5242        45  SLPC      C218           29.0632863606      -20.8405097513        2.7988626637  MEMB      45              0.0000000000
      5243        45  SLPC      H18R           28.9978990401      -21.5066440343        1.9126550830  MEMB      45              0.0000000000
      5244        45  SLPC      H18S           30.0221903297      -20.2798213632        2.7428509169  MEMB      45              0.0000000000
      5245        45  SLPC      H18T           28.2247808588      -20.1119864945        2.7602203864  MEMB      45              0.0000000000
      5246        45  SLPC      C33            25.5056094565      -20.2122207446       11.4120285390  MEMB      45              0.0000000000
      5247        45  SLPC      H3X            25.7313402712      -21.2999528106       11.4246832785  MEMB      45              0.0000000000
      5248        45  SLPC      H3Y            25.8484836824      -19.8065116290       10.4353491123  MEMB      45              0.0000000000
      5249        45  SLPC      C34            24.0272363492      -19.9134148203       11.6357093246  MEMB      45              0.0000000000
      5250        45  SLPC      H4X            23.8857416910      -18.8156492071       11.4725195851  MEMB      45              0.0000000000
      5251        45  SLPC      H4Y            23.8054012875      -20.0398910673       12.7184608091  MEMB      45              0.0000000000
      5252        45  SLPC      C35            22.8867086127      -20.6686795445       10.9186300186  MEMB      45              0.0000000000
      5253        45  SLPC      H5X            22.3807520563      -19.7683765192       10.5288001761  MEMB      45              0.0000000000
      5254        45  SLPC      H5Y            22.1597164970      -21.1091566592       11.6284582991  MEMB      45              0.0000000000
      5255        45  SLPC      C36            22.9588925269      -21.5570264590        9.6575938842  MEMB      45              0.0000000000
      5256        45  SLPC      H6X            22.8253991259      -22.6273430733        9.9231806438  MEMB      45              0.0000000000
      5257        45  SLPC      H6Y            23.9279985391      -21.4586592857        9.1558413707  MEMB      45              0.0000000000
      5258        45  SLPC      C37            21.7816798442      -21.0803545127        8.7615577899  MEMB      45              0.0000000000
      5259        45  SLPC      H7X            21.9359555383      -19.9785215269        8.6900345062  MEMB      45              0.0000000000
      5260        45  SLPC      H7Y            20.8129022811      -21.2481350425        9.2780981068  MEMB      45              0.0000000000
      5261        45  SLPC      C38            21.6681802578      -21.4609963956        7.2811009815  MEMB      45              0.0000000000
      5262        45  SLPC      H8X            21.2608188503      -22.4775098561        7.1205221595  MEMB      45              0.0000000000
      5263        45  SLPC      H8Y            22.6930970053      -21.4623644157        6.8727039499  MEMB      45              0.0000000000
      5264        45  SLPC      C39            20.8424639912      -20.3779142812        6.5293510226  MEMB      45              0.0000000000
      5265        45  SLPC      H9X            20.9935782197      -19.4067312200        7.0446519401  MEMB      45              0.0000000000
      5266        45  SLPC      H9Y            19.7575309174      -20.5841287310        6.6100421455  MEMB      45              0.0000000000
      5267        45  SLPC      C310           21.2720599380      -20.1380900435        5.0737572704  MEMB      45              0.0000000000
      5268        45  SLPC      H10X           20.5223625196      -20.5382873529        4.3614656519  MEMB      45              0.0000000000
      5269        45  SLPC      H10Y           22.1940915062      -20.7437350821        4.9393626855  MEMB      45              0.0000000000
      5270        45  SLPC      C311           21.6496873330      -18.6786564392        4.6997191332  MEMB      45              0.0000000000
      5271        45  SLPC      H11X           21.6399426561      -18.0089124459        5.5825965923  MEMB      45              0.0000000000
      5272        45  SLPC      H11Y           20.9558607508      -18.2760247497        3.9576686535  MEMB      45              0.0000000000
      5273        45  SLPC      C312           23.0318831516      -18.6739940495        4.0646203215  MEMB      45              0.0000000000
      5274        45  SLPC      H12X           23.0583261021      -19.4803601855        3.2994763659  MEMB      45              0.0000000000
      5275        45  SLPC      H12Y           23.6959486795      -18.9154219932        4.9147342022  MEMB      45              0.0000000000
      5276        45  SLPC      C313           23.6973672412      -17.4351255213        3.4735657433  MEMB      45              0.0000000000
      5277        45  SLPC      H13X           23.7167341994      -16.6291770906        4.2372952143  MEMB      45              0.0000000000
      5278        45  SLPC      H13Y           23.1655674142      -17.0730291470        2.5700259425  MEMB      45              0.0000000000
      5279        45  SLPC      C314           25.1231854351      -17.9035691316        3.1159545858  MEMB      45              0.0000000000
      5280        45  SLPC      H14X           25.0110720563      -18.7973643329        2.4582705835  MEMB      45              0.0000000000
      5281        45  SLPC      H14Y           25.6309757720      -18.2591937901        4.0421645089  MEMB      45              0.0000000000
      5282        45  SLPC      C315           26.0230117382      -16.9186250345        2.3698369524  MEMB      45              0.0000000000
      5283        45  SLPC      H15X           25.4225932429      -16.1197137813        1.8894702117  MEMB      45              0.0000000000
      5284        45  SLPC      H15Y           26.5215814105      -17.4826687672        1.5454591015  MEMB      45              0.0000000000
      5285        45  SLPC      C316           27.1230907886      -16.3118222042        3.2473778482  MEMB      45              0.0000000000
      5286        45  SLPC      H16X           27.1140843176      -16.7555528718        4.2677566856  MEMB      45              0.0000000000
      5287        45  SLPC      H16Y           26.9256722002      -15.2221986020        3.3684137878  MEMB      45              0.0000000000
      5288        45  SLPC      C317           28.5172001892      -16.5050303445        2.6435214193  MEMB      45              0.0000000000
      5289        45  SLPC      H17X           28.5045088283      -16.1265743868        1.5947294523  MEMB      45              0.0000000000
      5290        45  SLPC      H17Y           28.7642809377      -17.5894049536        2.5895217804  MEMB      45              0.0000000000
      5291        45  SLPC      C318           29.5823452355      -15.7671215119        3.4518651583  MEMB      45              0.0000000000
      5292        45  SLPC      H18X           29.2309434171      -14.7458800268        3.7146525595  MEMB      45              0.0000000000
      5293        45  SLPC      H18Y           30.5196540427      -15.6671657209        2.8683142381  MEMB      45              0.0000000000
      5294        45  SLPC      H18Z           29.8055129760      -16.3114212783        4.3931668628  MEMB      45              0.0000000000
      5295        46  CHL1      C3             24.1512959008       20.1556253969       17.9078500622  MEMB      46              0.0000000000
      5296        46  CHL1      H3             24.0097257977       21.1787238320       17.4904728458  MEMB      46              0.0000000000
      5297        46  CHL1      O3             24.0979338623       20.2461811482       19.3275694934  MEMB      46              0.0000000000
      5298        46  CHL1      H3'            25.0191526265       20.2777746248       19.6027035332  MEMB      46              0.0000000000
      5299        46  CHL1      C4             23.0358868965       19.2280463518       17.4077564589  MEMB      46              0.0000000000
      5300        46  CHL1      H4A            23.2111371652       18.2053681866       17.8112507161  MEMB      46              0.0000000000
      5301        46  CHL1      H4B            22.0696686144       19.5759745699       17.8410769365  MEMB      46              0.0000000000
      5302        46  CHL1      C5             23.0165963628       19.2019906875       15.8937567836  MEMB      46              0.0000000000
      5303        46  CHL1      C6             21.9179175837       19.5550540920       15.2095272131  MEMB      46              0.0000000000
      5304        46  CHL1      H6             21.0020126462       19.8298220733       15.7536935467  MEMB      46              0.0000000000
      5305        46  CHL1      C7             21.8343075688       19.5232408216       13.7099932997  MEMB      46              0.0000000000
      5306        46  CHL1      H7A            20.8858488141       19.0487768196       13.3756693866  MEMB      46              0.0000000000
      5307        46  CHL1      H7B            21.8524026492       20.5706826490       13.3393649566  MEMB      46              0.0000000000
      5308        46  CHL1      C8             23.0160752015       18.7897705062       13.0189743418  MEMB      46              0.0000000000
      5309        46  CHL1      H8             22.8678155556       17.6943520414       13.1409550368  MEMB      46              0.0000000000
      5310        46  CHL1      C14            23.0377055833       19.1291444151       11.5312728346  MEMB      46              0.0000000000
      5311        46  CHL1      H14            23.1660585785       20.2412795003       11.4714679759  MEMB      46              0.0000000000
      5312        46  CHL1      C15            21.7566051381       18.8263284776       10.7397213196  MEMB      46              0.0000000000
      5313        46  CHL1      H15A           21.3798670998       17.8218838776       11.0251640420  MEMB      46              0.0000000000
      5314        46  CHL1      H15B           20.9628817075       19.5761521030       10.9275139211  MEMB      46              0.0000000000
      5315        46  CHL1      C16            22.2153841444       18.8194677188        9.2776308378  MEMB      46              0.0000000000
      5316        46  CHL1      H16A           21.9281381220       17.8476757312        8.8211818218  MEMB      46              0.0000000000
      5317        46  CHL1      H16B           21.7457933957       19.6367001109        8.6951400650  MEMB      46              0.0000000000
      5318        46  CHL1      C17            23.7718425392       18.9566904249        9.2763075956  MEMB      46              0.0000000000
      5319        46  CHL1      H17            23.9968893499       20.0460932778        9.1981981551  MEMB      46              0.0000000000
      5320        46  CHL1      C13            24.1987542968       18.5471403666       10.7185726913  MEMB      46              0.0000000000
      5321        46  CHL1      C18            24.2123863954       17.0025527323       10.8000924155  MEMB      46              0.0000000000
      5322        46  CHL1      H18A           24.3055862719       16.6415600823       11.8416256606  MEMB      46              0.0000000000
      5323        46  CHL1      H18B           23.2910493040       16.5808493274       10.3755606407  MEMB      46              0.0000000000
      5324        46  CHL1      H18C           25.0623139010       16.5961269642       10.2228683024  MEMB      46              0.0000000000
      5325        46  CHL1      C12            25.4787180987       19.1585268574       11.3276180316  MEMB      46              0.0000000000
      5326        46  CHL1      H12A           26.3873776241       18.7660589891       10.8329228150  MEMB      46              0.0000000000
      5327        46  CHL1      H12B           25.4599550385       20.2602698879       11.1892122920  MEMB      46              0.0000000000
      5328        46  CHL1      C11            25.5855120451       18.8377748814       12.8409696040  MEMB      46              0.0000000000
      5329        46  CHL1      H11A           25.7609248972       17.7528556434       12.9043183248  MEMB      46              0.0000000000
      5330        46  CHL1      H11B           26.4815503615       19.3467977583       13.2527371978  MEMB      46              0.0000000000
      5331        46  CHL1      C9             24.3246738140       19.2091479986       13.6848142912  MEMB      46              0.0000000000
      5332        46  CHL1      H9             24.3148036370       20.3283056291       13.6589327306  MEMB      46              0.0000000000
      5333        46  CHL1      C10            24.3500144177       18.8238354232       15.2037219033  MEMB      46              0.0000000000
      5334        46  CHL1      C19            24.4503097252       17.2830007520       15.3776543737  MEMB      46              0.0000000000
      5335        46  CHL1      H19A           24.8762085170       17.0165367953       16.3661895261  MEMB      46              0.0000000000
      5336        46  CHL1      H19B           23.4678295772       16.7754626870       15.2765360912  MEMB      46              0.0000000000
      5337        46  CHL1      H19C           25.0921522357       16.8333658341       14.6117363743  MEMB      46              0.0000000000
      5338        46  CHL1      C1             25.5676168209       19.5255890521       15.8890294413  MEMB      46              0.0000000000
      5339        46  CHL1      H1A            26.4900262798       18.9820066960       15.5839349289  MEMB      46              0.0000000000
      5340        46  CHL1      H1B            25.6458347463       20.5584771422       15.4865055302  MEMB      46              0.0000000000
      5341        46  CHL1      C2             25.5125272552       19.6189544652       17.4345233222  MEMB      46              0.0000000000
      5342        46  CHL1      H2A            26.3277503298       20.2909722477       17.7825322664  MEMB      46              0.0000000000
      5343        46  CHL1      H2B            25.6777297647       18.6053236662       17.8624677698  MEMB      46              0.0000000000
      5344        46  CHL1      C20            24.3741319728       18.2826643827        8.0178281802  MEMB      46              0.0000000000
      5345        46  CHL1      H20            24.1600388891       17.1904420282        8.0509005506  MEMB      46              0.0000000000
      5346        46  CHL1      C21            25.9006099528       18.4828025959        7.9738147802  MEMB      46              0.0000000000
      5347        46  CHL1      H21A           26.3534584609       17.8482016759        7.1835823735  MEMB      46              0.0000000000
      5348        46  CHL1      H21B           26.3773547120       18.1875425613        8.9203395447  MEMB      46              0.0000000000
      5349        46  CHL1      H21C           26.1415316768       19.5448330735        7.7592602315  MEMB      46              0.0000000000
      5350        46  CHL1      C22            23.7368973917       18.8619445863        6.7122030553  MEMB      46              0.0000000000
      5351        46  CHL1      H22A           22.6404773104       18.6791443029        6.6981711636  MEMB      46              0.0000000000
      5352        46  CHL1      H22B           23.8860858847       19.9650335928        6.7519667846  MEMB      46              0.0000000000
      5353        46  CHL1      C23            24.2948328629       18.3722590004        5.3538943363  MEMB      46              0.0000000000
      5354        46  CHL1      H23A           25.3809106715       18.1726501577        5.4230220658  MEMB      46              0.0000000000
      5355        46  CHL1      H23B           23.7965554964       17.4205677324        5.0659498458  MEMB      46              0.0000000000
      5356        46  CHL1      C24            24.0801175663       19.4383260390        4.2577827723  MEMB      46              0.0000000000
      5357        46  CHL1      H24A           22.9831651967       19.5847789897        4.1375189973  MEMB      46              0.0000000000
      5358        46  CHL1      H24B           24.4737660866       20.4036910284        4.6292454629  MEMB      46              0.0000000000
      5359        46  CHL1      C25            24.6720061439       19.1481246310        2.8505410591  MEMB      46              0.0000000000
      5360        46  CHL1      H25            24.5892942734       20.0904424075        2.2562206720  MEMB      46              0.0000000000
      5361        46  CHL1      C26            26.1433061480       18.7047687895        2.7828567646  MEMB      46              0.0000000000
      5362        46  CHL1      H26A           26.3412648101       18.2445205869        1.7907894213  MEMB      46              0.0000000000
      5363        46  CHL1      H26B           26.8522239734       19.5437090253        2.8777647960  MEMB      46              0.0000000000
      5364        46  CHL1      H26C           26.3754857220       17.9568644789        3.5658501096  MEMB      46              0.0000000000
      5365        46  CHL1      C27            23.8240696586       18.1031420879        2.1443513257  MEMB      46              0.0000000000
      5366        46  CHL1      H27A           22.7538951126       18.3905040515        2.1949280210  MEMB      46              0.0000000000
      5367        46  CHL1      H27B           24.1207359626       18.0049655001        1.0789422197  MEMB      46              0.0000000000
      5368        46  CHL1      H27C           23.9591642998       17.1217948173        2.6440357602  MEMB      46              0.0000000000
      5369        47  SLPC      N              20.5929837970      -27.4657018012       17.0589828604  MEMB      47              0.0000000000
      5370        47  SLPC      C13            20.2635452888      -28.5992189314       16.1472745565  MEMB      47              0.0000000000
      5371        47  SLPC      H13A           20.8804657458      -28.6278792566       15.2585844254  MEMB      47              0.0000000000
      5372        47  SLPC      H13B           20.3916976296      -29.5347820539       16.6841306840  MEMB      47              0.0000000000
      5373        47  SLPC      H13C           19.2271900657      -28.5509111298       15.8353277898  MEMB      47              0.0000000000
      5374        47  SLPC      C14            22.0550278908      -27.5038311676       17.3882837151  MEMB      47              0.0000000000
      5375        47  SLPC      H14A           22.3287332626      -28.3938488687       17.9254033126  MEMB      47              0.0000000000
      5376        47  SLPC      H14B           22.6594075738      -27.4173639152       16.4931424583  MEMB      47              0.0000000000
      5377        47  SLPC      H14C           22.3024418313      -26.6173656197       17.9789088684  MEMB      47              0.0000000000
      5378        47  SLPC      C15            19.7973113183      -27.5894081798       18.3176368974  MEMB      47              0.0000000000
      5379        47  SLPC      H15A           19.9763139350      -28.5232104709       18.8344299071  MEMB      47              0.0000000000
      5380        47  SLPC      H15B           20.0772285719      -26.7786704288       18.9998573609  MEMB      47              0.0000000000
      5381        47  SLPC      H15C           18.7402307337      -27.4819677141       18.1304308568  MEMB      47              0.0000000000
      5382        47  SLPC      C12            20.3120294207      -26.1025489056       16.4637025921  MEMB      47              0.0000000000
      5383        47  SLPC      H12A           19.4091494559      -26.1349371294       15.8752981736  MEMB      47              0.0000000000
      5384        47  SLPC      H12B           21.1409916103      -25.8480827094       15.8078530963  MEMB      47              0.0000000000
      5385        47  SLPC      C11            20.1590160621      -24.9114650002       17.4527648844  MEMB      47              0.0000000000
      5386        47  SLPC      H11A           19.2418101391      -25.0057398554       18.0766119862  MEMB      47              0.0000000000
      5387        47  SLPC      H11B           19.9772230774      -24.0275356597       16.8039067915  MEMB      47              0.0000000000
      5388        47  SLPC      P              22.5270116071      -23.8723417695       17.7785644004  MEMB      47              0.0000000000
      5389        47  SLPC      O13            23.4640985691      -23.5372849896       18.8854614106  MEMB      47              0.0000000000
      5390        47  SLPC      O14            23.0786152472      -24.5945763237       16.6150482354  MEMB      47              0.0000000000
      5391        47  SLPC      O12            21.2997062123      -24.7310271224       18.3055648425  MEMB      47              0.0000000000
      5392        47  SLPC      O11            21.8411591158      -22.5402101692       17.2658411723  MEMB      47              0.0000000000
      5393        47  SLPC      C1             21.0799366795      -21.7354756113       18.1672672671  MEMB      47              0.0000000000
      5394        47  SLPC      HA             20.1708233896      -22.2818108374       18.5042284286  MEMB      47              0.0000000000
      5395        47  SLPC      HB             21.6910273764      -21.4946410656       19.0698875119  MEMB      47              0.0000000000
      5396        47  SLPC      C2             20.6453616334      -20.3792091857       17.5184325266  MEMB      47              0.0000000000
      5397        47  SLPC      HS             19.8563259132      -19.9203521802       18.1559789031  MEMB      47              0.0000000000
      5398        47  SLPC      O21            20.1720749331      -20.4665621192       16.1672946609  MEMB      47              0.0000000000
      5399        47  SLPC      C21            19.2945415175      -21.3665105666       15.8096769289  MEMB      47              0.0000000000
      5400        47  SLPC      O22            18.6723393776      -22.1152506861       16.5458004169  MEMB      47              0.0000000000
      5401        47  SLPC      C22            19.0259411358      -21.2245488410       14.2924952069  MEMB      47              0.0000000000
      5402        47  SLPC      H2R            19.5546611182      -22.0418661978       13.7667618197  MEMB      47              0.0000000000
      5403        47  SLPC      H2S            17.9387225713      -21.4031803516       14.1728707124  MEMB      47              0.0000000000
      5404        47  SLPC      C3             21.8673032514      -19.4222522253       17.4802135910  MEMB      47              0.0000000000
      5405        47  SLPC      HX             22.1132858455      -19.1505068801       18.5301887762  MEMB      47              0.0000000000
      5406        47  SLPC      HY             21.5892773439      -18.4687067651       16.9639990625  MEMB      47              0.0000000000
      5407        47  SLPC      O31            23.0029215589      -20.1049444405       16.8776080211  MEMB      47              0.0000000000
      5408        47  SLPC      C31            22.8739121450      -20.2267424991       15.5454459831  MEMB      47              0.0000000000
      5409        47  SLPC      O32            22.4599054603      -19.3302408729       14.8256362813  MEMB      47              0.0000000000
      5410        47  SLPC      C32            23.4556293888      -21.5316148923       14.9930612418  MEMB      47              0.0000000000
      5411        47  SLPC      H2X            23.8525129546      -22.1625492017       15.8116074591  MEMB      47              0.0000000000
      5412        47  SLPC      H2Y            24.3077456745      -21.2587562629       14.3400655804  MEMB      47              0.0000000000
      5413        47  SLPC      C23            19.3806801770      -19.8434645199       13.6515861287  MEMB      47              0.0000000000
      5414        47  SLPC      H3R            20.4743601558      -19.7920958233       13.4650865362  MEMB      47              0.0000000000
      5415        47  SLPC      H3S            19.1171374201      -19.0050860881       14.3376682688  MEMB      47              0.0000000000
      5416        47  SLPC      C24            18.6584615137      -19.5990769127       12.3183120084  MEMB      47              0.0000000000
      5417        47  SLPC      H4R            17.5658031870      -19.6367066337       12.5036872819  MEMB      47              0.0000000000
      5418        47  SLPC      H4S            18.9058081805      -20.4131796570       11.5980089867  MEMB      47              0.0000000000
      5419        47  SLPC      C25            18.9490286620      -18.2388657986       11.6504400684  MEMB      47              0.0000000000
      5420        47  SLPC      H5R            18.7739216192      -17.3980560565       12.3530868094  MEMB      47              0.0000000000
      5421        47  SLPC      H5S            18.2070518587      -18.1509543419       10.8259702486  MEMB      47              0.0000000000
      5422        47  SLPC      C26            20.3479982439      -18.1569007440       11.0138994463  MEMB      47              0.0000000000
      5423        47  SLPC      H6R            20.6757830429      -19.2117229052       11.0586863020  MEMB      47              0.0000000000
      5424        47  SLPC      H6S            21.0343728540      -17.5297681453       11.6219585060  MEMB      47              0.0000000000
      5425        47  SLPC      C27            20.3358455755      -17.7581114793        9.5226310167  MEMB      47              0.0000000000
      5426        47  SLPC      H7R            19.4912813334      -17.0487967424        9.4100940642  MEMB      47              0.0000000000
      5427        47  SLPC      H7S            20.0800039813      -18.6577069937        8.9217622578  MEMB      47              0.0000000000
      5428        47  SLPC      C28            21.5628735130      -17.0124185260        8.9252159122  MEMB      47              0.0000000000
      5429        47  SLPC      H8R            21.4021323986      -15.9621290487        9.2437294018  MEMB      47              0.0000000000
      5430        47  SLPC      H8S            21.4812699317      -17.0136572015        7.8157999183  MEMB      47              0.0000000000
      5431        47  SLPC      C29            22.9567925884      -17.3531480335        9.3784444177  MEMB      47              0.0000000000
      5432        47  SLPC      H9R            23.1438706526      -16.9853003828       10.4016992972  MEMB      47              0.0000000000
      5433        47  SLPC      C210           23.9848628389      -17.9838274071        8.7622527194  MEMB      47              0.0000000000
      5434        47  SLPC      H10R           24.8966919653      -18.0597868103        9.3778042723  MEMB      47              0.0000000000
      5435        47  SLPC      C211           24.1468000259      -18.6138711385        7.3845780804  MEMB      47              0.0000000000
      5436        47  SLPC      H11R           24.6960813318      -17.9045737653        6.7137474859  MEMB      47              0.0000000000
      5437        47  SLPC      H11S           23.1422165203      -18.7798045299        6.9497044780  MEMB      47              0.0000000000
      5438        47  SLPC      C212           24.9152162308      -19.9330657409        7.4801468851  MEMB      47              0.0000000000
      5439        47  SLPC      H12R           25.3127746913      -20.0730473245        8.5022703125  MEMB      47              0.0000000000
      5440        47  SLPC      C213           25.2468400060      -20.9560216288        6.6461380512  MEMB      47              0.0000000000
      5441        47  SLPC      H13R           25.8046061233      -21.7817013125        7.1302763975  MEMB      47              0.0000000000
      5442        47  SLPC      C214           25.0432154115      -21.2940759053        5.1808392569  MEMB      47              0.0000000000
      5443        47  SLPC      H14R           26.0361918575      -21.3602674593        4.6896817885  MEMB      47              0.0000000000
      5444        47  SLPC      H14S           24.5379617097      -20.5119070265        4.6176645024  MEMB      47              0.0000000000
      5445        47  SLPC      C215           24.3640087769      -22.6487684221        4.8518711720  MEMB      47              0.0000000000
      5446        47  SLPC      H15R           23.6639673366      -22.9455393094        5.6622452085  MEMB      47              0.0000000000
      5447        47  SLPC      H15S           25.1686172234      -23.4163065284        4.8240684185  MEMB      47              0.0000000000
      5448        47  SLPC      C216           23.5978223458      -22.7092428622        3.5067483146  MEMB      47              0.0000000000
      5449        47  SLPC      H16R           22.5705397287      -22.3065361552        3.6451917156  MEMB      47              0.0000000000
      5450        47  SLPC      H16S           23.4763773084      -23.7791088636        3.2228897353  MEMB      47              0.0000000000
      5451        47  SLPC      C217           24.2390216652      -21.9494208922        2.3310286146  MEMB      47              0.0000000000
      5452        47  SLPC      H17R           24.3627916206      -20.8805383452        2.5903400671  MEMB      47              0.0000000000
      5453        47  SLPC      H17S           23.5372940801      -21.9720470295        1.4690136493  MEMB      47              0.0000000000
      5454        47  SLPC      C218           25.6019154342      -22.4790580014        1.8969752130  MEMB      47              0.0000000000
      5455        47  SLPC      H18R           26.0533167401      -21.8139180201        1.1326381086  MEMB      47              0.0000000000
      5456        47  SLPC      H18S           25.5051257589      -23.4903098956        1.4573116169  MEMB      47              0.0000000000
      5457        47  SLPC      H18T           26.2954506956      -22.5344416776        2.7610225794  MEMB      47              0.0000000000
      5458        47  SLPC      C33            22.3513641758      -22.2508306182       14.1650521218  MEMB      47              0.0000000000
      5459        47  SLPC      H3X            21.7216867614      -21.4801456118       13.6729639631  MEMB      47              0.0000000000
      5460        47  SLPC      H3Y            21.6859965418      -22.8321663134       14.8378835367  MEMB      47              0.0000000000
      5461        47  SLPC      C34            22.8403126464      -23.1403231885       13.0168414378  MEMB      47              0.0000000000
      5462        47  SLPC      H4X            23.6340577418      -22.5866467278       12.4692557122  MEMB      47              0.0000000000
      5463        47  SLPC      H4Y            22.0327763339      -23.3630647438       12.2848310852  MEMB      47              0.0000000000
      5464        47  SLPC      C35            23.4731230035      -24.4280464747       13.4920399764  MEMB      47              0.0000000000
      5465        47  SLPC      H5X            23.8974041977      -24.2296663650       14.4946363599  MEMB      47              0.0000000000
      5466        47  SLPC      H5Y            24.2987473890      -24.6408979106       12.7895067160  MEMB      47              0.0000000000
      5467        47  SLPC      C36            22.5597983995      -25.6433852642       13.5770119520  MEMB      47              0.0000000000
      5468        47  SLPC      H6X            21.5456169192      -25.3205515152       13.8938876871  MEMB      47              0.0000000000
      5469        47  SLPC      H6Y            22.9651746044      -26.3102809499       14.3742671424  MEMB      47              0.0000000000
      5470        47  SLPC      C37            22.5024665676      -26.3819299101       12.2337678441  MEMB      47              0.0000000000
      5471        47  SLPC      H7X            23.5237128441      -26.6555173786       11.8859121076  MEMB      47              0.0000000000
      5472        47  SLPC      H7Y            22.0721812211      -25.6641913215       11.5007424700  MEMB      47              0.0000000000
      5473        47  SLPC      C38            21.6587144069      -27.6523248365       12.3244376160  MEMB      47              0.0000000000
      5474        47  SLPC      H8X            20.8856869808      -27.4657810494       13.0967114544  MEMB      47              0.0000000000
      5475        47  SLPC      H8Y            22.3111929178      -28.4766349691       12.6933234552  MEMB      47              0.0000000000
      5476        47  SLPC      C39            20.9952039015      -28.1029272166       11.0125778235  MEMB      47              0.0000000000
      5477        47  SLPC      H9X            20.3835877320      -29.0077556130       11.2159186087  MEMB      47              0.0000000000
      5478        47  SLPC      H9Y            21.7934357024      -28.4209460354       10.3022136766  MEMB      47              0.0000000000
      5479        47  SLPC      C310           20.1123089960      -27.0726338387       10.2746350643  MEMB      47              0.0000000000
      5480        47  SLPC      H10X           19.4504366551      -27.6277912400        9.5696177379  MEMB      47              0.0000000000
      5481        47  SLPC      H10Y           20.7940625003      -26.4501802672        9.6553770930  MEMB      47              0.0000000000
      5482        47  SLPC      C311           19.2304033597      -26.1394528013       11.1314148080  MEMB      47              0.0000000000
      5483        47  SLPC      H11X           19.8722058455      -25.4667415727       11.7375068264  MEMB      47              0.0000000000
      5484        47  SLPC      H11Y           18.6192478899      -26.7378540652       11.8341367120  MEMB      47              0.0000000000
      5485        47  SLPC      C312           18.2365766371      -25.3046731358       10.2999447032  MEMB      47              0.0000000000
      5486        47  SLPC      H12X           17.6103067369      -24.6714384646       10.9684263775  MEMB      47              0.0000000000
      5487        47  SLPC      H12Y           17.5539715733      -26.0229007147        9.7877519840  MEMB      47              0.0000000000
      5488        47  SLPC      C313           18.8883767393      -24.4118679921        9.2368126534  MEMB      47              0.0000000000
      5489        47  SLPC      H13X           19.8041623366      -24.8976490570        8.8381913788  MEMB      47              0.0000000000
      5490        47  SLPC      H13Y           19.2096861266      -23.4449222062        9.6821907160  MEMB      47              0.0000000000
      5491        47  SLPC      C314           17.9761604536      -24.1976212757        8.0260381311  MEMB      47              0.0000000000
      5492        47  SLPC      H14X           17.1253882245      -23.5313447115        8.2900289883  MEMB      47              0.0000000000
      5493        47  SLPC      H14Y           17.5581118898      -25.1810586225        7.7106759452  MEMB      47              0.0000000000
      5494        47  SLPC      C315           18.7542300049      -23.6255933552        6.8425373782  MEMB      47              0.0000000000
      5495        47  SLPC      H15X           19.7008667144      -24.1934455363        6.6933565342  MEMB      47              0.0000000000
      5496        47  SLPC      H15Y           19.0203004632      -22.5785736178        7.1015886883  MEMB      47              0.0000000000
      5497        47  SLPC      C316           17.9488285769      -23.6611788867        5.5459198121  MEMB      47              0.0000000000
      5498        47  SLPC      H16X           16.8854009726      -23.4288165701        5.7838690386  MEMB      47              0.0000000000
      5499        47  SLPC      H16Y           17.9811099893      -24.6828980454        5.1044020255  MEMB      47              0.0000000000
      5500        47  SLPC      C317           18.4433152881      -22.6325601186        4.5318620864  MEMB      47              0.0000000000
      5501        47  SLPC      H17X           19.4004512170      -22.9731097155        4.0775450463  MEMB      47              0.0000000000
      5502        47  SLPC      H17Y           18.6463254849      -21.6762342905        5.0653229942  MEMB      47              0.0000000000
      5503        47  SLPC      C318           17.3977169917      -22.3492998036        3.4641464772  MEMB      47              0.0000000000
      5504        47  SLPC      H18X           16.4979105407      -21.9062990560        3.9383351522  MEMB      47              0.0000000000
      5505        47  SLPC      H18Y           17.1026085170      -23.2721423019        2.9220276968  MEMB      47              0.0000000000
      5506        47  SLPC      H18Z           17.7783499845      -21.6112876425        2.7313793453  MEMB      47              0.0000000000
      5507        48  CHL1      C3            -22.6820060356      -25.0591333729       17.1747872545  MEMB      48              0.0000000000
      5508        48  CHL1      H3            -21.6795729469      -25.4684796181       16.9110192183  MEMB      48              0.0000000000
      5509        48  CHL1      O3            -22.6607120706      -24.5990737127       18.5120566726  MEMB      48              0.0000000000
      5510        48  CHL1      H3'           -23.0113892465      -25.3085873622       19.0726530623  MEMB      48              0.0000000000
      5511        48  CHL1      C4            -22.9502609452      -23.8606337902       16.2670893019  MEMB      48              0.0000000000
      5512        48  CHL1      H4A           -23.8504226096      -23.3121792839       16.6183506335  MEMB      48              0.0000000000
      5513        48  CHL1      H4B           -22.0969996362      -23.1547698725       16.3971021152  MEMB      48              0.0000000000
      5514        48  CHL1      C5            -23.1183216502      -24.2962362050       14.8311407804  MEMB      48              0.0000000000
      5515        48  CHL1      C6            -22.3297228367      -23.7841825861       13.8896089857  MEMB      48              0.0000000000
      5516        48  CHL1      H6            -21.5748733218      -23.0440471456       14.1845255916  MEMB      48              0.0000000000
      5517        48  CHL1      C7            -22.4828363662      -24.0492969749       12.4296337056  MEMB      48              0.0000000000
      5518        48  CHL1      H7A           -22.4059074464      -23.1018309753       11.8530402157  MEMB      48              0.0000000000
      5519        48  CHL1      H7B           -21.6648041195      -24.7203207501       12.0869484463  MEMB      48              0.0000000000
      5520        48  CHL1      C8            -23.8403234927      -24.7118152389       12.0974606695  MEMB      48              0.0000000000
      5521        48  CHL1      H8            -24.6504251176      -23.9500933255       12.1584328907  MEMB      48              0.0000000000
      5522        48  CHL1      C14           -23.7554403580      -25.2507511590       10.6859702427  MEMB      48              0.0000000000
      5523        48  CHL1      H14           -22.9739376692      -26.0520696465       10.7073833421  MEMB      48              0.0000000000
      5524        48  CHL1      C15           -23.2658080712      -24.2649849773        9.6158621457  MEMB      48              0.0000000000
      5525        48  CHL1      H15A          -23.7594349172      -23.2899525225        9.7990746908  MEMB      48              0.0000000000
      5526        48  CHL1      H15B          -22.1652240467      -24.1344677940        9.6411245400  MEMB      48              0.0000000000
      5527        48  CHL1      C16           -23.7282219925      -24.9036798182        8.3092825374  MEMB      48              0.0000000000
      5528        48  CHL1      H16A          -24.4220792413      -24.2068947205        7.7878849013  MEMB      48              0.0000000000
      5529        48  CHL1      H16B          -22.8713860211      -25.1403510166        7.6474163171  MEMB      48              0.0000000000
      5530        48  CHL1      C17           -24.4968590231      -26.2014837369        8.7007806908  MEMB      48              0.0000000000
      5531        48  CHL1      H17           -23.7354601004      -27.0106619087        8.8071655128  MEMB      48              0.0000000000
      5532        48  CHL1      C13           -25.0038538366      -25.9335553425       10.1402582453  MEMB      48              0.0000000000
      5533        48  CHL1      C18           -26.1885105220      -24.9340724643       10.0430971158  MEMB      48              0.0000000000
      5534        48  CHL1      H18A          -25.8676747882      -23.9309989328        9.6989085186  MEMB      48              0.0000000000
      5535        48  CHL1      H18B          -26.9558543146      -25.2914497452        9.3296727557  MEMB      48              0.0000000000
      5536        48  CHL1      H18C          -26.6767059061      -24.7980688380       11.0219369866  MEMB      48              0.0000000000
      5537        48  CHL1      C12           -25.2599871619      -27.1343697672       11.0929377368  MEMB      48              0.0000000000
      5538        48  CHL1      H12A          -26.1802139543      -27.6834290618       10.8157993782  MEMB      48              0.0000000000
      5539        48  CHL1      H12B          -24.3930359773      -27.8291443551       11.0166085190  MEMB      48              0.0000000000
      5540        48  CHL1      C11           -25.3623163800      -26.6977715710       12.5803632219  MEMB      48              0.0000000000
      5541        48  CHL1      H11A          -26.2937046927      -26.1180130032       12.6902062283  MEMB      48              0.0000000000
      5542        48  CHL1      H11B          -25.4449380400      -27.5958480039       13.2256998686  MEMB      48              0.0000000000
      5543        48  CHL1      C9            -24.1571828659      -25.8434368153       13.0742594613  MEMB      48              0.0000000000
      5544        48  CHL1      H9            -23.2885229037      -26.5265210044       13.0245159615  MEMB      48              0.0000000000
      5545        48  CHL1      C10           -24.1784217909      -25.3768622554       14.5611946869  MEMB      48              0.0000000000
      5546        48  CHL1      C19           -25.5607796608      -24.7798781672       14.8888096647  MEMB      48              0.0000000000
      5547        48  CHL1      H19A          -25.5970658378      -24.3114337525       15.8933848880  MEMB      48              0.0000000000
      5548        48  CHL1      H19B          -25.8332765181      -24.0003177877       14.1476270571  MEMB      48              0.0000000000
      5549        48  CHL1      H19C          -26.3348257060      -25.5761134659       14.8891447245  MEMB      48              0.0000000000
      5550        48  CHL1      C1            -23.8631300752      -26.5679961427       15.5161209732  MEMB      48              0.0000000000
      5551        48  CHL1      H1A           -24.6516549888      -27.3418798087       15.4143857650  MEMB      48              0.0000000000
      5552        48  CHL1      H1B           -22.9004819039      -27.0402083566       15.2105075263  MEMB      48              0.0000000000
      5553        48  CHL1      C2            -23.7515260813      -26.1475948749       16.9972801272  MEMB      48              0.0000000000
      5554        48  CHL1      H2A           -23.5295524055      -27.0272132441       17.6387548265  MEMB      48              0.0000000000
      5555        48  CHL1      H2B           -24.7311791376      -25.7438189235       17.3315671691  MEMB      48              0.0000000000
      5556        48  CHL1      C20           -25.4385748080      -26.6482250457        7.5790138584  MEMB      48              0.0000000000
      5557        48  CHL1      H20           -26.2114313867      -25.8704788167        7.3822787757  MEMB      48              0.0000000000
      5558        48  CHL1      C21           -26.1622693655      -27.9513435846        7.9756347568  MEMB      48              0.0000000000
      5559        48  CHL1      H21A          -26.7415378612      -28.3416614945        7.1112054695  MEMB      48              0.0000000000
      5560        48  CHL1      H21B          -26.8785259836      -27.7735790679        8.8015790227  MEMB      48              0.0000000000
      5561        48  CHL1      H21C          -25.4246817734      -28.7237608285        8.2772381676  MEMB      48              0.0000000000
      5562        48  CHL1      C22           -24.6784360283      -26.8974561363        6.2444210377  MEMB      48              0.0000000000
      5563        48  CHL1      H22A          -23.6863761529      -27.3575219336        6.4387426418  MEMB      48              0.0000000000
      5564        48  CHL1      H22B          -25.2828180285      -27.6508112664        5.7059523073  MEMB      48              0.0000000000
      5565        48  CHL1      C23           -24.5351671568      -25.6911128323        5.2963850875  MEMB      48              0.0000000000
      5566        48  CHL1      H23A          -25.4881619926      -25.1237108603        5.2927039402  MEMB      48              0.0000000000
      5567        48  CHL1      H23B          -23.7492758596      -25.0030795452        5.6710956499  MEMB      48              0.0000000000
      5568        48  CHL1      C24           -24.1636401767      -26.0746617538        3.8498036996  MEMB      48              0.0000000000
      5569        48  CHL1      H24A          -23.9563643355      -25.1454450792        3.2749382196  MEMB      48              0.0000000000
      5570        48  CHL1      H24B          -23.2229936823      -26.6691065092        3.8661761522  MEMB      48              0.0000000000
      5571        48  CHL1      C25           -25.2480270617      -26.8747893815        3.0932389917  MEMB      48              0.0000000000
      5572        48  CHL1      H25           -25.4345451847      -27.8062857149        3.6584147544  MEMB      48              0.0000000000
      5573        48  CHL1      C26           -26.6029218667      -26.1603735850        3.0273273136  MEMB      48              0.0000000000
      5574        48  CHL1      H26A          -27.3154991128      -26.7375098966        2.4011711061  MEMB      48              0.0000000000
      5575        48  CHL1      H26B          -27.0419503428      -26.0600464706        4.0422087786  MEMB      48              0.0000000000
      5576        48  CHL1      H26C          -26.4789626073      -25.1534010149        2.5941103749  MEMB      48              0.0000000000
      5577        48  CHL1      C27           -24.7669287728      -27.2882013287        1.6966699285  MEMB      48              0.0000000000
      5578        48  CHL1      H27A          -25.5875914063      -27.7889432740        1.1434134063  MEMB      48              0.0000000000
      5579        48  CHL1      H27B          -24.4371053281      -26.4006727551        1.1254607215  MEMB      48              0.0000000000
      5580        48  CHL1      H27C          -23.9088260269      -27.9892873136        1.7612462342  MEMB      48              0.0000000000
      5581        49  OSM       N               2.0823258997        0.5615981085      -21.9607607677  MEMB      49              0.0000000000
      5582        49  OSM       C15             3.4473280965        1.1105265956      -21.7065621517  MEMB      49              0.0000000000
      5583        49  OSM       H15A            4.0717981162        1.0064245072      -22.5856240479  MEMB      49              0.0000000000
      5584        49  OSM       H15B            3.9705081833        0.6038745818      -20.9052518137  MEMB      49              0.0000000000
      5585        49  OSM       H15C            3.4157756963        2.1472189988      -21.4180261723  MEMB      49              0.0000000000
      5586        49  OSM       C14             1.5319362941        1.0350644127      -23.2775992428  MEMB      49              0.0000000000
      5587        49  OSM       H14A            0.5709600893        0.5452878420      -23.4497680758  MEMB      49              0.0000000000
      5588        49  OSM       H14B            2.1701894225        0.7487320060      -24.1178031658  MEMB      49              0.0000000000
      5589        49  OSM       H14C            1.3770405199        2.1010421483      -23.3627764379  MEMB      49              0.0000000000
      5590        49  OSM       C13             2.1924149344       -0.9335274908      -22.0712849640  MEMB      49              0.0000000000
      5591        49  OSM       H13A            2.8132588439       -1.2562382475      -22.8989850664  MEMB      49              0.0000000000
      5592        49  OSM       H13B            1.1862181812       -1.3609217401      -22.1810655007  MEMB      49              0.0000000000
      5593        49  OSM       H13C            2.5899085974       -1.3742284934      -21.1623371097  MEMB      49              0.0000000000
      5594        49  OSM       C12             1.1361336135        0.8714553478      -20.7961733108  MEMB      49              0.0000000000
      5595        49  OSM       H12A            1.1771120140        1.9148299116      -20.5433085274  MEMB      49              0.0000000000
      5596        49  OSM       H12B            1.4847958408        0.3226886734      -19.9236982357  MEMB      49              0.0000000000
      5597        49  OSM       C11            -0.3527002306        0.4732306607      -20.9284676090  MEMB      49              0.0000000000
      5598        49  OSM       H11A           -0.7927436750        0.8801069344      -21.8642173731  MEMB      49              0.0000000000
      5599        49  OSM       H11B           -0.9140720423        0.9242900564      -20.0758878962  MEMB      49              0.0000000000
      5600        49  OSM       P              -1.4627994377       -1.8053964241      -20.0847437774  MEMB      49              0.0000000000
      5601        49  OSM       O13            -2.8217248312       -1.6061443719      -20.6330835506  MEMB      49              0.0000000000
      5602        49  OSM       O14            -0.9883490965       -3.2072916418      -20.0335209449  MEMB      49              0.0000000000
      5603        49  OSM       O11            -1.4111268831       -1.1508972935      -18.6427316893  MEMB      49              0.0000000000
      5604        49  OSM       O12            -0.4401195522       -0.9366957805      -20.9263262972  MEMB      49              0.0000000000
      5605        49  OSM       C1S            -0.1832817061       -1.0453553957      -17.9208392045  MEMB      49              0.0000000000
      5606        49  OSM       H1S             0.3769159229       -0.1556900698      -18.2667336626  MEMB      49              0.0000000000
      5607        49  OSM       H1T             0.4657160150       -1.9430585957      -18.0579263834  MEMB      49              0.0000000000
      5608        49  OSM       NF              0.7510586623       -0.8307015058      -15.6144966471  MEMB      49              0.0000000000
      5609        49  OSM       HNF             0.8506896899       -1.4857324642      -14.8741758032  MEMB      49              0.0000000000
      5610        49  OSM       C2S            -0.4751313347       -0.8922527123      -16.4018172459  MEMB      49              0.0000000000
      5611        49  OSM       H2S            -1.0408101138        0.0520739975      -16.2370434934  MEMB      49              0.0000000000
      5612        49  OSM       C3S            -1.3799465483       -2.0793113029      -15.9891355582  MEMB      49              0.0000000000
      5613        49  OSM       H3S            -0.9650242942       -3.0241213373      -16.4093795375  MEMB      49              0.0000000000
      5614        49  OSM       O3             -2.7104599989       -1.9292612954      -16.4634932782  MEMB      49              0.0000000000
      5615        49  OSM       HO3            -2.5949639595       -1.4555538275      -17.3022602582  MEMB      49              0.0000000000
      5616        49  OSM       C4S            -1.5200383523       -2.2135216992      -14.5083431871  MEMB      49              0.0000000000
      5617        49  OSM       H4S            -2.2552385525       -1.5469261166      -14.0367653575  MEMB      49              0.0000000000
      5618        49  OSM       C5S            -0.8304830996       -3.1035049047      -13.7803946471  MEMB      49              0.0000000000
      5619        49  OSM       H5S            -0.1009149724       -3.7487486758      -14.2945507575  MEMB      49              0.0000000000
      5620        49  OSM       C6S            -0.9543398379       -3.2864504790      -12.2983242882  MEMB      49              0.0000000000
      5621        49  OSM       H6S            -0.7154028978       -4.3478979171      -12.0561728468  MEMB      49              0.0000000000
      5622        49  OSM       H6T            -2.0076932715       -3.1105218284      -11.9779346588  MEMB      49              0.0000000000
      5623        49  OSM       C7S            -0.0771304122       -2.3851453210      -11.4255467494  MEMB      49              0.0000000000
      5624        49  OSM       H7S            -0.4648181002       -1.3418425285      -11.4718382657  MEMB      49              0.0000000000
      5625        49  OSM       H7T             0.9634482000       -2.3922918173      -11.8045496944  MEMB      49              0.0000000000
      5626        49  OSM       C8S            -0.0572978460       -2.8780402252       -9.9707534979  MEMB      49              0.0000000000
      5627        49  OSM       H8S             0.6836145022       -3.7069523787       -9.8949365320  MEMB      49              0.0000000000
      5628        49  OSM       H8T            -1.0520199735       -3.3047834994       -9.7132799843  MEMB      49              0.0000000000
      5629        49  OSM       C9S             0.2844243164       -1.7812664186       -8.9525649514  MEMB      49              0.0000000000
      5630        49  OSM       H9S             0.9861081695       -1.0496473270       -9.4073617941  MEMB      49              0.0000000000
      5631        49  OSM       H9T             0.8039266217       -2.2504227377       -8.0859174118  MEMB      49              0.0000000000
      5632        49  OSM       C10S           -0.9748416711       -1.0683693807       -8.4334786170  MEMB      49              0.0000000000
      5633        49  OSM       H10S           -1.5602692602       -1.7945771657       -7.8258965677  MEMB      49              0.0000000000
      5634        49  OSM       H10T           -1.6047373879       -0.7780376463       -9.3050403932  MEMB      49              0.0000000000
      5635        49  OSM       C11S           -0.7184508706        0.1898435759       -7.5840973875  MEMB      49              0.0000000000
      5636        49  OSM       H11S           -1.6927107270        0.5417575993       -7.1755953690  MEMB      49              0.0000000000
      5637        49  OSM       H11T           -0.3239664126        0.9929582466       -8.2472779072  MEMB      49              0.0000000000
      5638        49  OSM       C12S            0.2677856424       -0.0144541957       -6.4237236153  MEMB      49              0.0000000000
      5639        49  OSM       H12S            1.2544336966       -0.2709214521       -6.8745895773  MEMB      49              0.0000000000
      5640        49  OSM       H12T           -0.0387063499       -0.8669314662       -5.7816309142  MEMB      49              0.0000000000
      5641        49  OSM       C13S            0.4599363333        1.2499022732       -5.5682966195  MEMB      49              0.0000000000
      5642        49  OSM       H13S            0.4215915942        2.1384030877       -6.2374311239  MEMB      49              0.0000000000
      5643        49  OSM       H13T            1.4768922322        1.2161992328       -5.1217714723  MEMB      49              0.0000000000
      5644        49  OSM       C14S           -0.5413210244        1.4297618415       -4.4122812242  MEMB      49              0.0000000000
      5645        49  OSM       H14S           -1.5112791892        0.9461631101       -4.6541262193  MEMB      49              0.0000000000
      5646        49  OSM       H14T           -0.7310138611        2.5218048403       -4.3068839021  MEMB      49              0.0000000000
      5647        49  OSM       C15S            0.0159249096        0.9103631172       -3.0723839700  MEMB      49              0.0000000000
      5648        49  OSM       H15S            1.0495401423        1.2970934789       -2.9356996392  MEMB      49              0.0000000000
      5649        49  OSM       H15T            0.0958746892       -0.1990851676       -3.1245307324  MEMB      49              0.0000000000
      5650        49  OSM       C16S           -0.7993262161        1.2942756214       -1.8206551333  MEMB      49              0.0000000000
      5651        49  OSM       H16S           -0.2300085471        0.9436567427       -0.9295136938  MEMB      49              0.0000000000
      5652        49  OSM       H16T           -1.7689888135        0.7483397302       -1.8385810056  MEMB      49              0.0000000000
      5653        49  OSM       C17S           -1.0802079896        2.7954999314       -1.6184237133  MEMB      49              0.0000000000
      5654        49  OSM       H17S           -1.6310939400        2.9115237490       -0.6557290563  MEMB      49              0.0000000000
      5655        49  OSM       H17T           -1.7563661139        3.1559190684       -2.4254749200  MEMB      49              0.0000000000
      5656        49  OSM       C18S            0.1649132937        3.6857373092       -1.5703143808  MEMB      49              0.0000000000
      5657        49  OSM       H18S            0.8481242853        3.3470546924       -0.7629142367  MEMB      49              0.0000000000
      5658        49  OSM       H18T           -0.1128502758        4.7411882115       -1.3655801337  MEMB      49              0.0000000000
      5659        49  OSM       H18U            0.7071009252        3.6603568412       -2.5372722732  MEMB      49              0.0000000000
      5660        49  OSM       C1F             1.6244334181        0.1727378545      -15.6881187787  MEMB      49              0.0000000000
      5661        49  OSM       OF              1.5459354274        1.0234415580      -16.5614609592  MEMB      49              0.0000000000
      5662        49  OSM       C2F             2.6920230530        0.1834065897      -14.6441280719  MEMB      49              0.0000000000
      5663        49  OSM       H2F             3.4563278979        0.9511073001      -14.8924325646  MEMB      49              0.0000000000
      5664        49  OSM       H2G             3.1840211683       -0.8137297861      -14.6479030846  MEMB      49              0.0000000000
      5665        49  OSM       C3F             2.0951522245        0.4632103160      -13.2479973894  MEMB      49              0.0000000000
      5666        49  OSM       H3F             1.0109087690        0.2072042344      -13.1936331877  MEMB      49              0.0000000000
      5667        49  OSM       H3G             2.1753262431        1.5529564407      -13.0330187048  MEMB      49              0.0000000000
      5668        49  OSM       C4F             2.7790573708       -0.3371518945      -12.1325957408  MEMB      49              0.0000000000
      5669        49  OSM       H4F             2.6441599606       -1.4236037685      -12.3158429840  MEMB      49              0.0000000000
      5670        49  OSM       H4G             2.2522935450       -0.0763484540      -11.1886934677  MEMB      49              0.0000000000
      5671        49  OSM       C5F             4.2845295423       -0.0966559630      -11.9879507758  MEMB      49              0.0000000000
      5672        49  OSM       H5F             4.4524819258        1.0003084658      -11.9116056273  MEMB      49              0.0000000000
      5673        49  OSM       H5G             4.8093784786       -0.4641630621      -12.8975917364  MEMB      49              0.0000000000
      5674        49  OSM       C6F             4.8753967118       -0.7887329454      -10.7483395210  MEMB      49              0.0000000000
      5675        49  OSM       H6F             5.9781616972       -0.6538057314      -10.7151005886  MEMB      49              0.0000000000
      5676        49  OSM       H6G             4.6798005558       -1.8820487620      -10.7897940638  MEMB      49              0.0000000000
      5677        49  OSM       C7F             4.2911084200       -0.2043151781       -9.4623634677  MEMB      49              0.0000000000
      5678        49  OSM       H7F             3.2042672861       -0.4458004244       -9.4232329751  MEMB      49              0.0000000000
      5679        49  OSM       H7G             4.4039780922        0.9061351943       -9.5058022439  MEMB      49              0.0000000000
      5680        49  OSM       C8F             4.9308592089       -0.7299062182       -8.1758537690  MEMB      49              0.0000000000
      5681        49  OSM       H8F             6.0163538656       -0.4992183748       -8.1591383049  MEMB      49              0.0000000000
      5682        49  OSM       H8G             4.8037417431       -1.8332426294       -8.1201739941  MEMB      49              0.0000000000
      5683        49  OSM       C9F             4.1941111197       -0.0246112417       -7.0739109780  MEMB      49              0.0000000000
      5684        49  OSM       H9F             3.6996866607        0.9108073041       -7.3771087950  MEMB      49              0.0000000000
      5685        49  OSM       C10F            4.1194275241       -0.4040986367       -5.7996105476  MEMB      49              0.0000000000
      5686        49  OSM       H10F            3.4802553967        0.1757657843       -5.1190329826  MEMB      49              0.0000000000
      5687        49  OSM       C11F            4.7707608155       -1.6171176842       -5.2106797397  MEMB      49              0.0000000000
      5688        49  OSM       H11F            5.7154209774       -1.8782740557       -5.7391989897  MEMB      49              0.0000000000
      5689        49  OSM       H11G            4.0897894839       -2.4919259913       -5.2925657550  MEMB      49              0.0000000000
      5690        49  OSM       C12F            5.0720046979       -1.3338095536       -3.7313325821  MEMB      49              0.0000000000
      5691        49  OSM       H12F            5.6897360262       -0.4172705061       -3.6110976398  MEMB      49              0.0000000000
      5692        49  OSM       H12G            5.6832152838       -2.1804739236       -3.3419465208  MEMB      49              0.0000000000
      5693        49  OSM       C13F            3.7868237639       -1.2043233160       -2.8970757247  MEMB      49              0.0000000000
      5694        49  OSM       H13F            3.0173978535       -1.8831127357       -3.3212749489  MEMB      49              0.0000000000
      5695        49  OSM       H13G            3.3381954314       -0.1969496709       -2.9868688753  MEMB      49              0.0000000000
      5696        49  OSM       C14F            4.0267924607       -1.5507666501       -1.4284711916  MEMB      49              0.0000000000
      5697        49  OSM       H14F            4.6890028759       -0.7738255762       -0.9850186501  MEMB      49              0.0000000000
      5698        49  OSM       H14G            4.5657184954       -2.5198184968       -1.3453424169  MEMB      49              0.0000000000
      5699        49  OSM       C15F            2.7318485901       -1.6518622553       -0.6184870292  MEMB      49              0.0000000000
      5700        49  OSM       H15F            2.1930672550       -0.6805822616       -0.6660822940  MEMB      49              0.0000000000
      5701        49  OSM       H15G            3.0350075055       -1.8580883619        0.4328493465  MEMB      49              0.0000000000
      5702        49  OSM       C16F            1.7923412127       -2.7918816289       -1.0210047536  MEMB      49              0.0000000000
      5703        49  OSM       H16F            2.3968828610       -3.7261961425       -1.0019996070  MEMB      49              0.0000000000
      5704        49  OSM       H16G            1.4132191581       -2.6576912074       -2.0562741400  MEMB      49              0.0000000000
      5705        49  OSM       C17F            0.6028816293       -2.9430538027       -0.0592020917  MEMB      49              0.0000000000
      5706        49  OSM       H17F            0.9847973222       -3.0033165078        0.9845940180  MEMB      49              0.0000000000
      5707        49  OSM       H17G            0.0884024222       -3.9038614023       -0.2786736766  MEMB      49              0.0000000000
      5708        49  OSM       C18F           -0.4377676166       -1.8285974710       -0.1480222231  MEMB      49              0.0000000000
      5709        49  OSM       H18F           -1.3197854033       -2.0866327989        0.4741610979  MEMB      49              0.0000000000
      5710        49  OSM       H18G           -0.7757082477       -1.6932553093       -1.1986964606  MEMB      49              0.0000000000
      5711        49  OSM       H18H           -0.0156875103       -0.8728804027        0.2247952579  MEMB      49              0.0000000000
      5712        50  CHL1      C3             -7.3236712900       -0.4536101758      -17.6053601668  MEMB      50              0.0000000000
      5713        50  CHL1      H3             -8.2695024576       -0.9418122752      -17.2693658104  MEMB      50              0.0000000000
      5714        50  CHL1      O3             -7.3925913288       -0.2891434904      -19.0157270655  MEMB      50              0.0000000000
      5715        50  CHL1      H3'            -6.6275310774        0.2469479144      -19.2304920546  MEMB      50              0.0000000000
      5716        50  CHL1      C4             -7.1866413021        0.9205409851      -16.9401086654  MEMB      50              0.0000000000
      5717        50  CHL1      H4A            -6.2465787662        1.3986916162      -17.2890254831  MEMB      50              0.0000000000
      5718        50  CHL1      H4B            -8.0199750856        1.5653004405      -17.3009427114  MEMB      50              0.0000000000
      5719        50  CHL1      C5             -7.1871027809        0.7653149997      -15.4317626936  MEMB      50              0.0000000000
      5720        50  CHL1      C6             -8.1461015872        1.3407760047      -14.6963965074  MEMB      50              0.0000000000
      5721        50  CHL1      H6             -8.8914817742        1.9823213204      -15.1842772793  MEMB      50              0.0000000000
      5722        50  CHL1      C7             -8.2380818830        1.2275655655      -13.2081061125  MEMB      50              0.0000000000
      5723        50  CHL1      H7A            -8.4661932453        2.2210054546      -12.7634613232  MEMB      50              0.0000000000
      5724        50  CHL1      H7B            -9.0642338671        0.5341997360      -12.9397249867  MEMB      50              0.0000000000
      5725        50  CHL1      C8             -6.9234928942        0.7096569465      -12.5740993316  MEMB      50              0.0000000000
      5726        50  CHL1      H8             -6.2020846361        1.5550565185      -12.6190809773  MEMB      50              0.0000000000
      5727        50  CHL1      C14            -7.1652928177        0.3048336408      -11.1328332020  MEMB      50              0.0000000000
      5728        50  CHL1      H14            -7.7856494884       -0.6278613418      -11.1631168895  MEMB      50              0.0000000000
      5729        50  CHL1      C15            -7.9719051366        1.2771102638      -10.2723077813  MEMB      50              0.0000000000
      5730        50  CHL1      H15A           -7.5408791775        2.2882178966      -10.4190142658  MEMB      50              0.0000000000
      5731        50  CHL1      H15B           -9.0495765777        1.3026364872      -10.5299401354  MEMB      50              0.0000000000
      5732        50  CHL1      C16            -7.7313661273        0.7650977482       -8.8535409862  MEMB      50              0.0000000000
      5733        50  CHL1      H16A           -7.6131593783        1.6312351726       -8.1758798718  MEMB      50              0.0000000000
      5734        50  CHL1      H16B           -8.5993564856        0.1635297686       -8.5077258025  MEMB      50              0.0000000000
      5735        50  CHL1      C17            -6.4625208816       -0.1524486809       -8.8934275015  MEMB      50              0.0000000000
      5736        50  CHL1      H17            -6.8236517066       -1.2015093345       -8.7865169558  MEMB      50              0.0000000000
      5737        50  CHL1      C13            -5.9033093097       -0.0486395731      -10.3473533077  MEMB      50              0.0000000000
      5738        50  CHL1      C18            -4.8637963317        1.1021884752      -10.4022947286  MEMB      50              0.0000000000
      5739        50  CHL1      H18A           -3.9623350292        0.8534350131       -9.8082400041  MEMB      50              0.0000000000
      5740        50  CHL1      H18B           -4.5148010718        1.2923696374      -11.4342868047  MEMB      50              0.0000000000
      5741        50  CHL1      H18C           -5.3011257212        2.0393279446      -10.0061700276  MEMB      50              0.0000000000
      5742        50  CHL1      C12            -5.3585666412       -1.3307333484      -11.0211351040  MEMB      50              0.0000000000
      5743        50  CHL1      H12A           -4.4069971021       -1.6428853617      -10.5462859329  MEMB      50              0.0000000000
      5744        50  CHL1      H12B           -6.0974989503       -2.1479900369      -10.8765542765  MEMB      50              0.0000000000
      5745        50  CHL1      C11            -5.1368777894       -1.1360525724      -12.5511437504  MEMB      50              0.0000000000
      5746        50  CHL1      H11A           -4.2351234799       -0.5004237261      -12.6560356972  MEMB      50              0.0000000000
      5747        50  CHL1      H11B           -4.9048436430       -2.1199807739      -13.0106034958  MEMB      50              0.0000000000
      5748        50  CHL1      C9             -6.3402841444       -0.4875673034      -13.3268436878  MEMB      50              0.0000000000
      5749        50  CHL1      H9             -7.1464928320       -1.2607300320      -13.3086855721  MEMB      50              0.0000000000
      5750        50  CHL1      C10            -6.1026615816       -0.1687077975      -14.8386540446  MEMB      50              0.0000000000
      5751        50  CHL1      C19            -4.7470589311        0.5718067010      -14.9720691013  MEMB      50              0.0000000000
      5752        50  CHL1      H19A           -4.5749529718        0.9371691569      -16.0031998695  MEMB      50              0.0000000000
      5753        50  CHL1      H19B           -4.7080732155        1.4464861403      -14.2888873090  MEMB      50              0.0000000000
      5754        50  CHL1      H19C           -3.9059225433       -0.1096125687      -14.7374735725  MEMB      50              0.0000000000
      5755        50  CHL1      C1             -6.0933301347       -1.4989777319      -15.6539901189  MEMB      50              0.0000000000
      5756        50  CHL1      H1A            -5.1891511174       -2.0824333762      -15.3772832638  MEMB      50              0.0000000000
      5757        50  CHL1      H1B            -6.9852924197       -2.0961622474      -15.3593793359  MEMB      50              0.0000000000
      5758        50  CHL1      C2             -6.1340075099       -1.3338084476      -17.1920313282  MEMB      50              0.0000000000
      5759        50  CHL1      H2A            -6.2164267544       -2.3318132638      -17.6729674710  MEMB      50              0.0000000000
      5760        50  CHL1      H2B            -5.1858273889       -0.8681804950      -17.5369321731  MEMB      50              0.0000000000
      5761        50  CHL1      C20            -5.5289813922        0.1356809314       -7.6992315311  MEMB      50              0.0000000000
      5762        50  CHL1      H20            -5.0441712601        1.1286017329       -7.8502008090  MEMB      50              0.0000000000
      5763        50  CHL1      C21            -4.4169454142       -0.9266435447       -7.6151028687  MEMB      50              0.0000000000
      5764        50  CHL1      H21A           -3.8393878402       -0.9705448094       -8.5576486154  MEMB      50              0.0000000000
      5765        50  CHL1      H21B           -4.8400100496       -1.9301049156       -7.4072628646  MEMB      50              0.0000000000
      5766        50  CHL1      H21C           -3.7117439590       -0.6673559697       -6.7958881886  MEMB      50              0.0000000000
      5767        50  CHL1      C22            -6.2533938503        0.2453097851       -6.3251483972  MEMB      50              0.0000000000
      5768        50  CHL1      H22A           -5.4829388920        0.3372579129       -5.5279741558  MEMB      50              0.0000000000
      5769        50  CHL1      H22B           -6.8507914705        1.1816338185       -6.2854382867  MEMB      50              0.0000000000
      5770        50  CHL1      C23            -7.1793323423       -0.9279093963       -5.9794619604  MEMB      50              0.0000000000
      5771        50  CHL1      H23A           -7.9368434492       -1.0670451336       -6.7802788202  MEMB      50              0.0000000000
      5772        50  CHL1      H23B           -6.5735548931       -1.8566303087       -5.9154250169  MEMB      50              0.0000000000
      5773        50  CHL1      C24            -7.9418786197       -0.6927629254       -4.6706834573  MEMB      50              0.0000000000
      5774        50  CHL1      H24A           -7.2166587782       -0.6223005207       -3.8325287272  MEMB      50              0.0000000000
      5775        50  CHL1      H24B           -8.4783945525        0.2767213644       -4.7364226339  MEMB      50              0.0000000000
      5776        50  CHL1      C25            -8.9590743320       -1.8029243986       -4.3617823008  MEMB      50              0.0000000000
      5777        50  CHL1      H25            -9.6316340885       -1.9197217996       -5.2462750995  MEMB      50              0.0000000000
      5778        50  CHL1      C26            -8.2318509561       -3.1374325920       -4.1426409309  MEMB      50              0.0000000000
      5779        50  CHL1      H26A           -7.4947360806       -3.0440859944       -3.3169694605  MEMB      50              0.0000000000
      5780        50  CHL1      H26B           -8.9430224217       -3.9399669471       -3.8845758433  MEMB      50              0.0000000000
      5781        50  CHL1      H26C           -7.7033050150       -3.4604301553       -5.0627981590  MEMB      50              0.0000000000
      5782        50  CHL1      C27            -9.8371512929       -1.4237487832       -3.1561805477  MEMB      50              0.0000000000
      5783        50  CHL1      H27A           -9.3572690361       -0.6246517942       -2.5550033138  MEMB      50              0.0000000000
      5784        50  CHL1      H27B          -10.8286612242       -1.0562347659       -3.4992729981  MEMB      50              0.0000000000
      5785        50  CHL1      H27C           -9.9990381812       -2.3002801299       -2.4970637320  MEMB      50              0.0000000000
      5786        51  OSM       N               2.5053087399        5.3156854728      -22.4122724708  MEMB      51              0.0000000000
      5787        51  OSM       C15             3.0111994044        6.5275419580      -23.1122549247  MEMB      51              0.0000000000
      5788        51  OSM       H15A            2.9143216081        7.4181311607      -22.4863942121  MEMB      51              0.0000000000
      5789        51  OSM       H15B            2.5764309011        6.7155819711      -24.0825970133  MEMB      51              0.0000000000
      5790        51  OSM       H15C            4.0892815020        6.4312575269      -23.2341742994  MEMB      51              0.0000000000
      5791        51  OSM       C14             1.0231455237        5.3073378640      -22.5202371676  MEMB      51              0.0000000000
      5792        51  OSM       H14A            0.6190776741        6.2110570830      -22.0884181848  MEMB      51              0.0000000000
      5793        51  OSM       H14B            0.6096000085        4.4393806631      -22.0355984219  MEMB      51              0.0000000000
      5794        51  OSM       H14C            0.7115845746        5.2670625886      -23.5654780850  MEMB      51              0.0000000000
      5795        51  OSM       C13             3.0675062766        4.1414457798      -23.1540132269  MEMB      51              0.0000000000
      5796        51  OSM       H13A            4.1560583962        4.1593812860      -23.1447940306  MEMB      51              0.0000000000
      5797        51  OSM       H13B            2.7604851126        4.1836827301      -24.2023500092  MEMB      51              0.0000000000
      5798        51  OSM       H13C            2.7378561234        3.1864602452      -22.7716773849  MEMB      51              0.0000000000
      5799        51  OSM       C12             3.0149669750        5.4115664656      -20.9725760303  MEMB      51              0.0000000000
      5800        51  OSM       H12A            4.0844786276        5.1788487979      -20.9556896747  MEMB      51              0.0000000000
      5801        51  OSM       H12B            2.5366786151        4.6807805033      -20.3404296235  MEMB      51              0.0000000000
      5802        51  OSM       C11             2.9206393546        6.8109939101      -20.2942300429  MEMB      51              0.0000000000
      5803        51  OSM       H11A            2.9690557605        6.6856411669      -19.1850434900  MEMB      51              0.0000000000
      5804        51  OSM       H11B            1.9215272249        7.2585194359      -20.4963056617  MEMB      51              0.0000000000
      5805        51  OSM       P               5.4211930245        7.5384948593      -20.2007870834  MEMB      51              0.0000000000
      5806        51  OSM       O13             5.9118461098        6.1764836114      -20.4639386723  MEMB      51              0.0000000000
      5807        51  OSM       O14             6.2905041036        8.6151783159      -20.7408991880  MEMB      51              0.0000000000
      5808        51  OSM       O11             5.2393417985        7.7275025235      -18.6458986001  MEMB      51              0.0000000000
      5809        51  OSM       O12             3.9440137689        7.6970970254      -20.7750139125  MEMB      51              0.0000000000
      5810        51  OSM       C1S             4.9222674769        9.0434003325      -18.1696742472  MEMB      51              0.0000000000
      5811        51  OSM       H1S             4.1081787295        9.5106078757      -18.7733857435  MEMB      51              0.0000000000
      5812        51  OSM       H1T             5.8164390407        9.7077149252      -18.2341977779  MEMB      51              0.0000000000
      5813        51  OSM       NF              5.4959108545        8.5318587634      -15.8141544892  MEMB      51              0.0000000000
      5814        51  OSM       HNF             5.5713063289        7.5500710736      -15.6878855737  MEMB      51              0.0000000000
      5815        51  OSM       C2S             4.4412535889        9.0270386324      -16.6860950138  MEMB      51              0.0000000000
      5816        51  OSM       H2S             4.2029168827       10.0823010220      -16.4111940855  MEMB      51              0.0000000000
      5817        51  OSM       C3S             3.1528973378        8.1829209072      -16.5214868947  MEMB      51              0.0000000000
      5818        51  OSM       H3S             3.3524803303        7.1294172221      -16.8151425417  MEMB      51              0.0000000000
      5819        51  OSM       O3              2.0553578322        8.6279469975      -17.3297350994  MEMB      51              0.0000000000
      5820        51  OSM       HO3             2.4114334487        9.3412379980      -17.8674640834  MEMB      51              0.0000000000
      5821        51  OSM       C4S             2.8377185626        8.1708925490      -15.0275984571  MEMB      51              0.0000000000
      5822        51  OSM       H4S             3.5524595735        7.5522578960      -14.4729118964  MEMB      51              0.0000000000
      5823        51  OSM       C5S             1.8681200558        8.7701134975      -14.3089102333  MEMB      51              0.0000000000
      5824        51  OSM       H5S             1.0980345953        9.3578570106      -14.8351815368  MEMB      51              0.0000000000
      5825        51  OSM       C6S             1.7070598838        8.6688978926      -12.8038493688  MEMB      51              0.0000000000
      5826        51  OSM       H6S             0.8356922254        8.0317659413      -12.5407512083  MEMB      51              0.0000000000
      5827        51  OSM       H6T             1.4563307544        9.6865648719      -12.4407061215  MEMB      51              0.0000000000
      5828        51  OSM       C7S             2.9324663749        8.1975817137      -11.9724999966  MEMB      51              0.0000000000
      5829        51  OSM       H7S             3.8448657811        8.6538684019      -12.4203202989  MEMB      51              0.0000000000
      5830        51  OSM       H7T             3.0399961764        7.0944575245      -12.0454269638  MEMB      51              0.0000000000
      5831        51  OSM       C8S             2.9204383578        8.6304842317      -10.4847787691  MEMB      51              0.0000000000
      5832        51  OSM       H8S             2.4454363657        9.6257764417      -10.3864119032  MEMB      51              0.0000000000
      5833        51  OSM       H8T             3.9796429866        8.7341140765      -10.1544978169  MEMB      51              0.0000000000
      5834        51  OSM       C9S             2.2834495076        7.6136033739       -9.5300145646  MEMB      51              0.0000000000
      5835        51  OSM       H9S             3.0150838787        6.8017838695       -9.4171832346  MEMB      51              0.0000000000
      5836        51  OSM       H9T             1.3991104938        7.1682253018      -10.0339445128  MEMB      51              0.0000000000
      5837        51  OSM       C10S            1.8716522116        8.1441318979       -8.1321652087  MEMB      51              0.0000000000
      5838        51  OSM       H10S            1.0106736060        7.5322865886       -7.7785551063  MEMB      51              0.0000000000
      5839        51  OSM       H10T            1.5137347828        9.1929441488       -8.2189144536  MEMB      51              0.0000000000
      5840        51  OSM       C11S            2.9590727382        8.0699334305       -7.0439369562  MEMB      51              0.0000000000
      5841        51  OSM       H11S            3.7041972043        8.8672765018       -7.2633240775  MEMB      51              0.0000000000
      5842        51  OSM       H11T            3.5054881322        7.1097801236       -7.1083919923  MEMB      51              0.0000000000
      5843        51  OSM       C12S            2.4544281474        8.2454326529       -5.5880661905  MEMB      51              0.0000000000
      5844        51  OSM       H12S            1.8156857065        9.1523798973       -5.5109889422  MEMB      51              0.0000000000
      5845        51  OSM       H12T            3.3649863928        8.3996929682       -4.9632314969  MEMB      51              0.0000000000
      5846        51  OSM       C13S            1.7162530977        7.0601762660       -4.9411923907  MEMB      51              0.0000000000
      5847        51  OSM       H13S            2.1750787421        6.1213952206       -5.3077318105  MEMB      51              0.0000000000
      5848        51  OSM       H13T            0.6493635012        7.0621438169       -5.2506342925  MEMB      51              0.0000000000
      5849        51  OSM       C14S            1.8303479479        7.0132719710       -3.3996268971  MEMB      51              0.0000000000
      5850        51  OSM       H14S            2.9039081378        6.9285556717       -3.1156875285  MEMB      51              0.0000000000
      5851        51  OSM       H14T            1.3260306936        6.0849904497       -3.0481807166  MEMB      51              0.0000000000
      5852        51  OSM       C15S            1.2177921665        8.2102112933       -2.6503460087  MEMB      51              0.0000000000
      5853        51  OSM       H15S            0.2198091451        8.4330740822       -3.0846615645  MEMB      51              0.0000000000
      5854        51  OSM       H15T            1.8700545379        9.0990461667       -2.7928855556  MEMB      51              0.0000000000
      5855        51  OSM       C16S            1.0241951118        7.9218955317       -1.1492006371  MEMB      51              0.0000000000
      5856        51  OSM       H16S            1.9842259707        7.5982514444       -0.7068583053  MEMB      51              0.0000000000
      5857        51  OSM       H16T            0.3261003800        7.0603222101       -1.0663313668  MEMB      51              0.0000000000
      5858        51  OSM       C17S            0.4721422692        9.0874099918       -0.3110890868  MEMB      51              0.0000000000
      5859        51  OSM       H17S           -0.1679616168        8.6795710168        0.4992063053  MEMB      51              0.0000000000
      5860        51  OSM       H17T           -0.1972271156        9.7182418071       -0.9315371579  MEMB      51              0.0000000000
      5861        51  OSM       C18S            1.5536766523        9.9319643543        0.3656446860  MEMB      51              0.0000000000
      5862        51  OSM       H18S            2.2024910182       10.4075895284       -0.3973009237  MEMB      51              0.0000000000
      5863        51  OSM       H18T            2.1936701729        9.2983680196        1.0183286276  MEMB      51              0.0000000000
      5864        51  OSM       H18U            1.0935158282       10.7283171657        0.9904668154  MEMB      51              0.0000000000
      5865        51  OSM       C1F             6.5234559853        9.2951344485      -15.4745016027  MEMB      51              0.0000000000
      5866        51  OSM       OF              6.7290399211       10.3580089814      -16.0313875548  MEMB      51              0.0000000000
      5867        51  OSM       C2F             7.4449120995        8.7508131366      -14.4215546996  MEMB      51              0.0000000000
      5868        51  OSM       H2F             8.1556349613        9.5523988620      -14.1244556391  MEMB      51              0.0000000000
      5869        51  OSM       H2G             8.0345791756        7.9242459321      -14.8715659385  MEMB      51              0.0000000000
      5870        51  OSM       C3F             6.7098942433        8.2199924407      -13.1632058139  MEMB      51              0.0000000000
      5871        51  OSM       H3F             5.7614853324        7.6945561936      -13.4042586308  MEMB      51              0.0000000000
      5872        51  OSM       H3G             6.4538046465        9.0931573448      -12.5256428100  MEMB      51              0.0000000000
      5873        51  OSM       C4F             7.6015266107        7.2705576961      -12.3494634085  MEMB      51              0.0000000000
      5874        51  OSM       H4F             8.6286779054        7.7049189255      -12.3256405948  MEMB      51              0.0000000000
      5875        51  OSM       H4G             7.6746554026        6.2881052178      -12.8674151273  MEMB      51              0.0000000000
      5876        51  OSM       C5F             7.1412710377        7.0531592105      -10.8987691081  MEMB      51              0.0000000000
      5877        51  OSM       H5F             6.9302091869        8.0299393564      -10.4115824115  MEMB      51              0.0000000000
      5878        51  OSM       H5G             7.9839331533        6.5596432111      -10.3623248276  MEMB      51              0.0000000000
      5879        51  OSM       C6F             5.9422845698        6.1128945466      -10.7615283346  MEMB      51              0.0000000000
      5880        51  OSM       H6F             6.2013703856        5.1661020430      -11.2848845060  MEMB      51              0.0000000000
      5881        51  OSM       H6G             5.0556067578        6.5439301686      -11.2689321730  MEMB      51              0.0000000000
      5882        51  OSM       C7F             5.5820608961        5.7703090451       -9.3037928089  MEMB      51              0.0000000000
      5883        51  OSM       H7F             5.0968751779        6.6553866847       -8.8374862630  MEMB      51              0.0000000000
      5884        51  OSM       H7G             6.5149416569        5.5746937947       -8.7279194362  MEMB      51              0.0000000000
      5885        51  OSM       C8F             4.6856334506        4.5094190978       -9.2398575110  MEMB      51              0.0000000000
      5886        51  OSM       H8F             5.3145951502        3.6525921028       -8.9356955804  MEMB      51              0.0000000000
      5887        51  OSM       H8G             4.3887304051        4.2847150033      -10.2885926829  MEMB      51              0.0000000000
      5888        51  OSM       C9F             3.4160118114        4.5769023643       -8.4276189765  MEMB      51              0.0000000000
      5889        51  OSM       H9F             2.5130171713        4.7312916430       -9.0382384959  MEMB      51              0.0000000000
      5890        51  OSM       C10F            3.2409252348        4.4867253876       -7.1012689706  MEMB      51              0.0000000000
      5891        51  OSM       H10F            2.2147521823        4.5698451993       -6.7111676806  MEMB      51              0.0000000000
      5892        51  OSM       C11F            4.2764104213        4.2843440698       -6.0297864153  MEMB      51              0.0000000000
      5893        51  OSM       H11F            4.3742761459        5.1734559606       -5.3684693005  MEMB      51              0.0000000000
      5894        51  OSM       H11G            5.2794705472        4.1254205823       -6.4738583097  MEMB      51              0.0000000000
      5895        51  OSM       C12F            3.8828872493        3.0488332184       -5.2012006468  MEMB      51              0.0000000000
      5896        51  OSM       H12F            4.7875810997        2.4030166024       -5.1283816985  MEMB      51              0.0000000000
      5897        51  OSM       H12G            3.1010359997        2.4428391319       -5.7110758889  MEMB      51              0.0000000000
      5898        51  OSM       C13F            3.3914193283        3.3299818038       -3.7751638616  MEMB      51              0.0000000000
      5899        51  OSM       H13F            2.3753895514        2.8996398899       -3.6423468669  MEMB      51              0.0000000000
      5900        51  OSM       H13G            3.2890820546        4.4184972307       -3.5846271601  MEMB      51              0.0000000000
      5901        51  OSM       C14F            4.3277857559        2.6766063944       -2.7519121962  MEMB      51              0.0000000000
      5902        51  OSM       H14F            5.3785619845        2.9402256778       -2.9959049612  MEMB      51              0.0000000000
      5903        51  OSM       H14G            4.2475083317        1.5795629720       -2.8623453994  MEMB      51              0.0000000000
      5904        51  OSM       C15F            4.0244646670        3.1012112029       -1.3178802649  MEMB      51              0.0000000000
      5905        51  OSM       H15F            4.4352707993        2.3635012859       -0.5934460137  MEMB      51              0.0000000000
      5906        51  OSM       H15G            2.9234239228        3.1454207471       -1.1718466673  MEMB      51              0.0000000000
      5907        51  OSM       C16F            4.6455787136        4.4696239433       -1.0461671670  MEMB      51              0.0000000000
      5908        51  OSM       H16F            4.5493811408        5.1042925519       -1.9580638549  MEMB      51              0.0000000000
      5909        51  OSM       H16G            5.7283866963        4.3391582744       -0.8281470313  MEMB      51              0.0000000000
      5910        51  OSM       C17F            3.9802616501        5.2150120066        0.0971729242  MEMB      51              0.0000000000
      5911        51  OSM       H17F            4.2986523137        4.7444960887        1.0543225361  MEMB      51              0.0000000000
      5912        51  OSM       H17G            2.8776280828        5.1151099649       -0.0149472548  MEMB      51              0.0000000000
      5913        51  OSM       C18F            4.3263644214        6.6956144709        0.1041079008  MEMB      51              0.0000000000
      5914        51  OSM       H18F            5.4179554815        6.8295139006        0.2019984492  MEMB      51              0.0000000000
      5915        51  OSM       H18G            3.8170186258        7.2048208928        0.9512989840  MEMB      51              0.0000000000
      5916        51  OSM       H18H            4.0212876729        7.1811796272       -0.8467177185  MEMB      51              0.0000000000
      5917        52  CHL1      C3             -2.8984878079       -7.0928688112      -17.3935021185  MEMB      52              0.0000000000
      5918        52  CHL1      H3             -1.8117052102       -7.2385195018      -17.1960060196  MEMB      52              0.0000000000
      5919        52  CHL1      O3             -3.1340847955       -7.3265538709      -18.7801597999  MEMB      52              0.0000000000
      5920        52  CHL1      H3'            -3.1051653308       -6.4666277996      -19.2419060185  MEMB      52              0.0000000000
      5921        52  CHL1      C4             -3.7183997620       -8.1234662368      -16.6094113747  MEMB      52              0.0000000000
      5922        52  CHL1      H4A            -4.7808263914       -8.0189566665      -16.9209384730  MEMB      52              0.0000000000
      5923        52  CHL1      H4B            -3.3847885124       -9.1229501713      -16.9644096467  MEMB      52              0.0000000000
      5924        52  CHL1      C5             -3.6154374286       -7.9981435460      -15.1075977215  MEMB      52              0.0000000000
      5925        52  CHL1      C6             -3.2098640126       -9.0354746335      -14.3607463877  MEMB      52              0.0000000000
      5926        52  CHL1      H6             -2.9858165347       -9.9984048916      -14.8424020293  MEMB      52              0.0000000000
      5927        52  CHL1      C7             -3.1092086195       -8.9898665326      -12.8685649684  MEMB      52              0.0000000000
      5928        52  CHL1      H7A            -3.4921918289       -9.9087650498      -12.3915208273  MEMB      52              0.0000000000
      5929        52  CHL1      H7B            -2.0442108048       -8.9465794401      -12.5983101794  MEMB      52              0.0000000000
      5930        52  CHL1      C8             -3.8024268274       -7.7658319883      -12.2304560938  MEMB      52              0.0000000000
      5931        52  CHL1      H8             -4.8999595534       -7.9425134335      -12.2075490315  MEMB      52              0.0000000000
      5932        52  CHL1      C14            -3.2657791466       -7.6076524567      -10.8143084005  MEMB      52              0.0000000000
      5933        52  CHL1      H14            -2.1717975847       -7.4145786513      -10.9491995635  MEMB      52              0.0000000000
      5934        52  CHL1      C15            -3.3286646765       -8.8171931195       -9.8655108082  MEMB      52              0.0000000000
      5935        52  CHL1      H15A           -4.3652087633       -9.2109766736       -9.8521806936  MEMB      52              0.0000000000
      5936        52  CHL1      H15B           -2.6319724472       -9.6273292198      -10.1546617257  MEMB      52              0.0000000000
      5937        52  CHL1      C16            -2.9859919031       -8.2074583522       -8.4994691848  MEMB      52              0.0000000000
      5938        52  CHL1      H16A           -3.7686538618       -8.4935598861       -7.7649643863  MEMB      52              0.0000000000
      5939        52  CHL1      H16B           -2.0001956208       -8.5651386987       -8.1357084500  MEMB      52              0.0000000000
      5940        52  CHL1      C17            -2.9574666773       -6.6575538638       -8.7099506358  MEMB      52              0.0000000000
      5941        52  CHL1      H17            -1.8969191402       -6.4054837632       -8.9554429417  MEMB      52              0.0000000000
      5942        52  CHL1      C13            -3.7719318598       -6.4176644858      -10.0111822035  MEMB      52              0.0000000000
      5943        52  CHL1      C18            -5.2842978845       -6.5467798104       -9.7012646320  MEMB      52              0.0000000000
      5944        52  CHL1      H18A           -5.5007401103       -7.4019170723       -9.0305849532  MEMB      52              0.0000000000
      5945        52  CHL1      H18B           -5.6494357796       -5.6226698632       -9.2068174021  MEMB      52              0.0000000000
      5946        52  CHL1      H18C           -5.8655909106       -6.6857744198      -10.6343564996  MEMB      52              0.0000000000
      5947        52  CHL1      C12            -3.4856512996       -5.1463930205      -10.8327164923  MEMB      52              0.0000000000
      5948        52  CHL1      H12A           -3.9318113550       -4.2530802972      -10.3550496617  MEMB      52              0.0000000000
      5949        52  CHL1      H12B           -2.3843228925       -5.0251213757      -10.8573451603  MEMB      52              0.0000000000
      5950        52  CHL1      C11            -4.0239379121       -5.2382096749      -12.2797885871  MEMB      52              0.0000000000
      5951        52  CHL1      H11A           -5.1319856106       -5.2558542794      -12.2297061218  MEMB      52              0.0000000000
      5952        52  CHL1      H11B           -3.7313157706       -4.3267822082      -12.8396185031  MEMB      52              0.0000000000
      5953        52  CHL1      C9             -3.5122504330       -6.4945106797      -13.0383448731  MEMB      52              0.0000000000
      5954        52  CHL1      H9             -2.3995370229       -6.3944065628      -13.0529940612  MEMB      52              0.0000000000
      5955        52  CHL1      C10            -3.9249704045       -6.5982726713      -14.5397419859  MEMB      52              0.0000000000
      5956        52  CHL1      C19            -5.4532784551       -6.3661126490      -14.6536721191  MEMB      52              0.0000000000
      5957        52  CHL1      H19A           -5.7244600004       -5.3485067276      -14.3070186673  MEMB      52              0.0000000000
      5958        52  CHL1      H19B           -5.7813863170       -6.4353207303      -15.7108321033  MEMB      52              0.0000000000
      5959        52  CHL1      H19C           -6.0195351866       -7.1112695343      -14.0570570937  MEMB      52              0.0000000000
      5960        52  CHL1      C1             -3.1546746854       -5.5375134777      -15.3979843028  MEMB      52              0.0000000000
      5961        52  CHL1      H1A            -3.4862490722       -4.5170735278      -15.1099266529  MEMB      52              0.0000000000
      5962        52  CHL1      H1B            -2.0706262377       -5.6098438093      -15.1613689194  MEMB      52              0.0000000000
      5963        52  CHL1      C2             -3.2957873882       -5.6796020907      -16.9383627683  MEMB      52              0.0000000000
      5964        52  CHL1      H2A            -2.6504035156       -4.9292552385      -17.4463633040  MEMB      52              0.0000000000
      5965        52  CHL1      H2B            -4.3456728773       -5.4843218377      -17.2383457266  MEMB      52              0.0000000000
      5966        52  CHL1      C20            -3.3158370673       -5.8599076051       -7.4543385411  MEMB      52              0.0000000000
      5967        52  CHL1      H20            -4.4122376367       -5.9345615864       -7.2744277374  MEMB      52              0.0000000000
      5968        52  CHL1      C21            -2.9208945291       -4.3831392586       -7.6620406096  MEMB      52              0.0000000000
      5969        52  CHL1      H21A           -1.8599325055       -4.3236452064       -7.9844485510  MEMB      52              0.0000000000
      5970        52  CHL1      H21B           -3.0165913314       -3.8127704837       -6.7160898385  MEMB      52              0.0000000000
      5971        52  CHL1      H21C           -3.5623915433       -3.8882002556       -8.4115984924  MEMB      52              0.0000000000
      5972        52  CHL1      C22            -2.6192403891       -6.3491631517       -6.1577411977  MEMB      52              0.0000000000
      5973        52  CHL1      H22A           -2.5165791895       -7.4524279482       -6.1070798386  MEMB      52              0.0000000000
      5974        52  CHL1      H22B           -1.5919942885       -5.9233230418       -6.1321873533  MEMB      52              0.0000000000
      5975        52  CHL1      C23            -3.4114340550       -5.9029418377       -4.9178643321  MEMB      52              0.0000000000
      5976        52  CHL1      H23A           -3.9345506556       -4.9458174835       -5.1374650912  MEMB      52              0.0000000000
      5977        52  CHL1      H23B           -4.2002018069       -6.6623664108       -4.7192294257  MEMB      52              0.0000000000
      5978        52  CHL1      C24            -2.5506081566       -5.6851175341       -3.6689070452  MEMB      52              0.0000000000
      5979        52  CHL1      H24A           -2.1046775320       -6.6541170460       -3.3538273952  MEMB      52              0.0000000000
      5980        52  CHL1      H24B           -1.7151953372       -4.9929047837       -3.9132834888  MEMB      52              0.0000000000
      5981        52  CHL1      C25            -3.3576130560       -5.0945026467       -2.4939085145  MEMB      52              0.0000000000
      5982        52  CHL1      H25            -3.8042974172       -4.1232495976       -2.8168596325  MEMB      52              0.0000000000
      5983        52  CHL1      C26            -4.5075718306       -6.0274156990       -2.0959170633  MEMB      52              0.0000000000
      5984        52  CHL1      H26A           -4.8612540465       -5.7895915529       -1.0711005155  MEMB      52              0.0000000000
      5985        52  CHL1      H26B           -5.3573282413       -5.9233918492       -2.8021421706  MEMB      52              0.0000000000
      5986        52  CHL1      H26C           -4.1645523199       -7.0811347155       -2.1215796320  MEMB      52              0.0000000000
      5987        52  CHL1      C27            -2.4563918532       -4.8056416560       -1.2863723939  MEMB      52              0.0000000000
      5988        52  CHL1      H27A           -1.7718602613       -3.9637069501       -1.5156441414  MEMB      52              0.0000000000
      5989        52  CHL1      H27B           -3.0679838740       -4.5319346994       -0.3998479891  MEMB      52              0.0000000000
      5990        52  CHL1      H27C           -1.8498142511       -5.7004915624       -1.0360651445  MEMB      52              0.0000000000
      5991        53  CHL1      C3              8.1029717351        0.6946362197      -17.5208705390  MEMB      53              0.0000000000
      5992        53  CHL1      H3              8.1029110503        1.7796715223      -17.7907215469  MEMB      53              0.0000000000
      5993        53  CHL1      O3              8.0715388079       -0.0780696990      -18.7123673214  MEMB      53              0.0000000000
      5994        53  CHL1      H3'             8.7327998351        0.3634999391      -19.2755042299  MEMB      53              0.0000000000
      5995        53  CHL1      C4              9.4000559436        0.3565221508      -16.7657728016  MEMB      53              0.0000000000
      5996        53  CHL1      H4A             9.4664905899       -0.7481745319      -16.6694206446  MEMB      53              0.0000000000
      5997        53  CHL1      H4B            10.2492328172        0.6736783268      -17.4131879618  MEMB      53              0.0000000000
      5998        53  CHL1      C5              9.4939957854        0.9861721113      -15.3905828692  MEMB      53              0.0000000000
      5999        53  CHL1      C6             10.5617241776        1.7098067063      -15.0014574969  MEMB      53              0.0000000000
      6000        53  CHL1      H6             11.4102800179        1.8532569034      -15.6858633329  MEMB      53              0.0000000000
      6001        53  CHL1      C7             10.7383083937        2.2843326550      -13.6184238141  MEMB      53              0.0000000000
      6002        53  CHL1      H7A            11.7644456678        2.0773112624      -13.2470923821  MEMB      53              0.0000000000
      6003        53  CHL1      H7B            10.6151471705        3.3899662377      -13.6577886287  MEMB      53              0.0000000000
      6004        53  CHL1      C8              9.7118696962        1.6977052495      -12.6152794975  MEMB      53              0.0000000000
      6005        53  CHL1      H8             10.0167343238        0.6469415438      -12.4304639254  MEMB      53              0.0000000000
      6006        53  CHL1      C14             9.7144282364        2.4260296445      -11.2715214077  MEMB      53              0.0000000000
      6007        53  CHL1      H14             9.4538148961        3.4935399169      -11.4893517480  MEMB      53              0.0000000000
      6008        53  CHL1      C15            11.0327890822        2.4882039769      -10.4844445877  MEMB      53              0.0000000000
      6009        53  CHL1      H15A           11.5203294129        1.4914300676      -10.5015064846  MEMB      53              0.0000000000
      6010        53  CHL1      H15B           11.7307191792        3.2378612541      -10.9101106851  MEMB      53              0.0000000000
      6011        53  CHL1      C16            10.5898305767        2.8488953953       -9.0559814732  MEMB      53              0.0000000000
      6012        53  CHL1      H16A           11.1371829219        2.2409613957       -8.3093563513  MEMB      53              0.0000000000
      6013        53  CHL1      H16B           10.7995006351        3.9241204635       -8.8831648177  MEMB      53              0.0000000000
      6014        53  CHL1      C17             9.0442146508        2.6323402331       -8.9696687427  MEMB      53              0.0000000000
      6015        53  CHL1      H17             8.5901383176        3.6499789981       -9.0502383288  MEMB      53              0.0000000000
      6016        53  CHL1      C13             8.6611727242        1.9099085024      -10.2861916587  MEMB      53              0.0000000000
      6017        53  CHL1      C18             8.8325592441        0.3835282819      -10.0534345266  MEMB      53              0.0000000000
      6018        53  CHL1      H18A            8.7461566090       -0.1904175889      -10.9947372851  MEMB      53              0.0000000000
      6019        53  CHL1      H18B            9.8245138081        0.1600166488       -9.6098640167  MEMB      53              0.0000000000
      6020        53  CHL1      H18C            8.0474656753        0.0026340375       -9.3713445330  MEMB      53              0.0000000000
      6021        53  CHL1      C12             7.3144416157        2.2871326608      -10.9340557054  MEMB      53              0.0000000000
      6022        53  CHL1      H12A            6.4262570344        2.0251618238      -10.3363992521  MEMB      53              0.0000000000
      6023        53  CHL1      H12B            7.3033518879        3.3865408101      -11.0827735860  MEMB      53              0.0000000000
      6024        53  CHL1      C11             7.1391436252        1.5881454396      -12.2881917377  MEMB      53              0.0000000000
      6025        53  CHL1      H11A            6.9778986708        0.5184162143      -12.0758580434  MEMB      53              0.0000000000
      6026        53  CHL1      H11B            6.2169892897        1.9889945646      -12.7596601962  MEMB      53              0.0000000000
      6027        53  CHL1      C9              8.3246823722        1.7400548807      -13.2701059970  MEMB      53              0.0000000000
      6028        53  CHL1      H9              8.2248487451        2.7894266151      -13.6512330488  MEMB      53              0.0000000000
      6029        53  CHL1      C10             8.2419436870        0.8049096934      -14.5087458142  MEMB      53              0.0000000000
      6030        53  CHL1      C19             8.1879716827       -0.6830871609      -14.0572375748  MEMB      53              0.0000000000
      6031        53  CHL1      H19A            9.0387239443       -0.9365023691      -13.3958974907  MEMB      53              0.0000000000
      6032        53  CHL1      H19B            7.2453725795       -0.8999828559      -13.5170692365  MEMB      53              0.0000000000
      6033        53  CHL1      H19C            8.2206654519       -1.3717110649      -14.9245629730  MEMB      53              0.0000000000
      6034        53  CHL1      C1              6.9585728216        1.1407228269      -15.3238587867  MEMB      53              0.0000000000
      6035        53  CHL1      H1A             6.0565909073        0.9021661012      -14.7217102244  MEMB      53              0.0000000000
      6036        53  CHL1      H1B             6.9504974276        2.2348946910      -15.5324263580  MEMB      53              0.0000000000
      6037        53  CHL1      C2              6.8635556613        0.3988039851      -16.6691405139  MEMB      53              0.0000000000
      6038        53  CHL1      H2A             5.9466037094        0.7120712098      -17.2131123148  MEMB      53              0.0000000000
      6039        53  CHL1      H2B             6.7949056363       -0.6971405196      -16.5030902466  MEMB      53              0.0000000000
      6040        53  CHL1      C20             8.5574394265        2.0427133672       -7.6165876077  MEMB      53              0.0000000000
      6041        53  CHL1      H20             8.8964426146        0.9890758823       -7.5030466592  MEMB      53              0.0000000000
      6042        53  CHL1      C21             7.0300281340        2.0783272948       -7.6022248965  MEMB      53              0.0000000000
      6043        53  CHL1      H21A            6.6182938634        1.5505970260       -6.7219664303  MEMB      53              0.0000000000
      6044        53  CHL1      H21B            6.7195668503        3.1391667371       -7.5745685223  MEMB      53              0.0000000000
      6045        53  CHL1      H21C            6.5823230422        1.5908705697       -8.4768567896  MEMB      53              0.0000000000
      6046        53  CHL1      C22             9.0570503933        2.8429523520       -6.3780760885  MEMB      53              0.0000000000
      6047        53  CHL1      H22A           10.0972983313        2.5436550944       -6.1392191565  MEMB      53              0.0000000000
      6048        53  CHL1      H22B            9.0483436087        3.9016459696       -6.7026998128  MEMB      53              0.0000000000
      6049        53  CHL1      C23             8.1891765736        2.8463350272       -5.0901750368  MEMB      53              0.0000000000
      6050        53  CHL1      H23A            7.3078358597        3.4958865582       -5.2862645636  MEMB      53              0.0000000000
      6051        53  CHL1      H23B            7.8041026131        1.8280239174       -4.8708235430  MEMB      53              0.0000000000
      6052        53  CHL1      C24             8.9426501896        3.3712785655       -3.8440716170  MEMB      53              0.0000000000
      6053        53  CHL1      H24A            9.5106341927        2.5109764176       -3.4216714844  MEMB      53              0.0000000000
      6054        53  CHL1      H24B            9.6819880503        4.1482920867       -4.1253706723  MEMB      53              0.0000000000
      6055        53  CHL1      C25             8.0653214484        3.9551354542       -2.7077527976  MEMB      53              0.0000000000
      6056        53  CHL1      H25             7.3382651491        3.1633218724       -2.4170068374  MEMB      53              0.0000000000
      6057        53  CHL1      C26             8.9203061489        4.2836814373       -1.4732028851  MEMB      53              0.0000000000
      6058        53  CHL1      H26A            9.6965683499        3.5080733063       -1.3061410860  MEMB      53              0.0000000000
      6059        53  CHL1      H26B            9.4186160512        5.2644752401       -1.6155359703  MEMB      53              0.0000000000
      6060        53  CHL1      H26C            8.2876703446        4.3557586197       -0.5636176871  MEMB      53              0.0000000000
      6061        53  CHL1      C27             7.2962062805        5.2274137016       -3.1129411556  MEMB      53              0.0000000000
      6062        53  CHL1      H27A            6.6978338393        5.6141756656       -2.2654002479  MEMB      53              0.0000000000
      6063        53  CHL1      H27B            8.0059762844        6.0320718153       -3.3894873027  MEMB      53              0.0000000000
      6064        53  CHL1      H27C            6.6175708172        5.0445881376       -3.9700254655  MEMB      53              0.0000000000
      6065        54  OSM       N               7.1809916402       -7.0159566396      -21.1265149114  MEMB      54              0.0000000000
      6066        54  OSM       C15             7.9622860715       -8.1676412280      -20.5766221299  MEMB      54              0.0000000000
      6067        54  OSM       H15A            8.8369830428       -8.3675380717      -21.1843362375  MEMB      54              0.0000000000
      6068        54  OSM       H15B            7.3669976222       -9.0750605833      -20.5609988765  MEMB      54              0.0000000000
      6069        54  OSM       H15C            8.2755586090       -7.9757310197      -19.5590972673  MEMB      54              0.0000000000
      6070        54  OSM       C14             8.0708621650       -5.8151046146      -21.2581843649  MEMB      54              0.0000000000
      6071        54  OSM       H14A            8.8113077732       -5.9558457094      -22.0342650209  MEMB      54              0.0000000000
      6072        54  OSM       H14B            8.5622253068       -5.5730553665      -20.3191276850  MEMB      54              0.0000000000
      6073        54  OSM       H14C            7.4560221426       -4.9609332058      -21.5187787374  MEMB      54              0.0000000000
      6074        54  OSM       C13             6.6320358296       -7.3945925879      -22.4637580870  MEMB      54              0.0000000000
      6075        54  OSM       H13A            5.7437702090       -8.0280873209      -22.3467439477  MEMB      54              0.0000000000
      6076        54  OSM       H13B            7.3241065047       -7.9169757682      -23.0973452043  MEMB      54              0.0000000000
      6077        54  OSM       H13C            6.2354937137       -6.5048654132      -22.9481064904  MEMB      54              0.0000000000
      6078        54  OSM       C12             5.9917299071       -6.6955250703      -20.2100208365  MEMB      54              0.0000000000
      6079        54  OSM       H12A            6.3371530926       -6.5605959354      -19.1931296310  MEMB      54              0.0000000000
      6080        54  OSM       H12B            5.3621939643       -7.5873956750      -20.1615480823  MEMB      54              0.0000000000
      6081        54  OSM       C11             5.0591430358       -5.4941698004      -20.5447202691  MEMB      54              0.0000000000
      6082        54  OSM       H11A            5.6594063188       -4.5584782114      -20.5005282538  MEMB      54              0.0000000000
      6083        54  OSM       H11B            4.2842852609       -5.3948182803      -19.7441534945  MEMB      54              0.0000000000
      6084        54  OSM       P               3.2184147870       -6.5178342815      -22.1615858691  MEMB      54              0.0000000000
      6085        54  OSM       O13             2.3854516595       -5.7378756994      -23.0946970125  MEMB      54              0.0000000000
      6086        54  OSM       O14             3.7639536434       -7.7927836746      -22.6546143166  MEMB      54              0.0000000000
      6087        54  OSM       O11             2.5002318164       -6.7574176978      -20.7621331796  MEMB      54              0.0000000000
      6088        54  OSM       O12             4.4632713291       -5.5875445930      -21.8316191024  MEMB      54              0.0000000000
      6089        54  OSM       C1S             2.6245605468       -8.0330883859      -20.1158569913  MEMB      54              0.0000000000
      6090        54  OSM       H1S             3.5627786164       -8.5632818228      -20.3933847807  MEMB      54              0.0000000000
      6091        54  OSM       H1T             1.7807668924       -8.6962930858      -20.4170274100  MEMB      54              0.0000000000
      6092        54  OSM       NF              3.1218937397       -9.0422059579      -17.8932437020  MEMB      54              0.0000000000
      6093        54  OSM       HNF             2.6037391195       -9.4119286269      -17.1357877587  MEMB      54              0.0000000000
      6094        54  OSM       C2S             2.6077063935       -7.8504639049      -18.5722249574  MEMB      54              0.0000000000
      6095        54  OSM       H2S             3.2672541131       -6.9968559088      -18.3049991411  MEMB      54              0.0000000000
      6096        54  OSM       C3S             1.1464654221       -7.5162627588      -18.1590073271  MEMB      54              0.0000000000
      6097        54  OSM       H3S             0.5375296536       -8.4086446291      -18.4106110289  MEMB      54              0.0000000000
      6098        54  OSM       O3              0.5930560943       -6.3664170921      -18.7903795165  MEMB      54              0.0000000000
      6099        54  OSM       HO3             1.1519854863       -6.2186996179      -19.5681773856  MEMB      54              0.0000000000
      6100        54  OSM       C4S             1.0864774960       -7.4003356203      -16.6565548530  MEMB      54              0.0000000000
      6101        54  OSM       H4S             1.0113470462       -8.3785203803      -16.1729516934  MEMB      54              0.0000000000
      6102        54  OSM       C5S             1.0709259637       -6.3067556238      -15.8754915005  MEMB      54              0.0000000000
      6103        54  OSM       H5S             1.0483473012       -5.3161732756      -16.3566075860  MEMB      54              0.0000000000
      6104        54  OSM       C6S             0.9962449678       -6.3362438470      -14.3706464465  MEMB      54              0.0000000000
      6105        54  OSM       H6S             0.1045297440       -5.7507173602      -14.0611233412  MEMB      54              0.0000000000
      6106        54  OSM       H6T             1.8908121310       -5.8577795324      -13.9113175298  MEMB      54              0.0000000000
      6107        54  OSM       C7S             0.7966654235       -7.7308840721      -13.7503111986  MEMB      54              0.0000000000
      6108        54  OSM       H7S             1.7068825046       -8.3584938578      -13.8517640514  MEMB      54              0.0000000000
      6109        54  OSM       H7T            -0.0400646842       -8.2347875571      -14.2941576948  MEMB      54              0.0000000000
      6110        54  OSM       C8S             0.3412089538       -7.6765861552      -12.2930644013  MEMB      54              0.0000000000
      6111        54  OSM       H8S            -0.1486324550       -8.6467376307      -12.0701959653  MEMB      54              0.0000000000
      6112        54  OSM       H8T            -0.4220214772       -6.8801400481      -12.1588481709  MEMB      54              0.0000000000
      6113        54  OSM       C9S             1.4324126392       -7.5337235468      -11.2352642295  MEMB      54              0.0000000000
      6114        54  OSM       H9S             1.6992348928       -6.4600236449      -11.1330449228  MEMB      54              0.0000000000
      6115        54  OSM       H9T             2.3471832375       -8.0906618109      -11.5394584440  MEMB      54              0.0000000000
      6116        54  OSM       C10S            0.9192059257       -8.1137187189       -9.9084245789  MEMB      54              0.0000000000
      6117        54  OSM       H10S            1.2546685879       -9.1693491750       -9.8295769609  MEMB      54              0.0000000000
      6118        54  OSM       H10T           -0.1955732805       -8.1202540401       -9.9140165334  MEMB      54              0.0000000000
      6119        54  OSM       C11S            1.3555962407       -7.3502729619       -8.6627623895  MEMB      54              0.0000000000
      6120        54  OSM       H11S            0.9729420375       -7.9006944403       -7.7725723431  MEMB      54              0.0000000000
      6121        54  OSM       H11T            0.8812380318       -6.3420808700       -8.6634350566  MEMB      54              0.0000000000
      6122        54  OSM       C12S            2.8716482748       -7.1914954010       -8.5610418210  MEMB      54              0.0000000000
      6123        54  OSM       H12S            3.2402102578       -6.5833296473       -9.4190115780  MEMB      54              0.0000000000
      6124        54  OSM       H12T            3.3689510188       -8.1858846308       -8.6193313850  MEMB      54              0.0000000000
      6125        54  OSM       C13S            3.2735709938       -6.4827544460       -7.2695258378  MEMB      54              0.0000000000
      6126        54  OSM       H13S            2.7169710639       -5.5222052031       -7.2039999948  MEMB      54              0.0000000000
      6127        54  OSM       H13T            4.3556509130       -6.2321460614       -7.3233438119  MEMB      54              0.0000000000
      6128        54  OSM       C14S            3.0399885759       -7.3149844298       -6.0027135475  MEMB      54              0.0000000000
      6129        54  OSM       H14S            3.4311537488       -8.3458103857       -6.1660363194  MEMB      54              0.0000000000
      6130        54  OSM       H14T            1.9538185809       -7.4023848562       -5.7792616992  MEMB      54              0.0000000000
      6131        54  OSM       C15S            3.7760882844       -6.6942093604       -4.8143110947  MEMB      54              0.0000000000
      6132        54  OSM       H15S            4.8571359720       -6.6148659367       -5.0682983870  MEMB      54              0.0000000000
      6133        54  OSM       H15T            3.7034666475       -7.3482022984       -3.9289304069  MEMB      54              0.0000000000
      6134        54  OSM       C16S            3.2261472392       -5.3273697754       -4.4105613527  MEMB      54              0.0000000000
      6135        54  OSM       H16S            2.2465414946       -5.4707831284       -3.9006560338  MEMB      54              0.0000000000
      6136        54  OSM       H16T            3.0427893850       -4.6866987231       -5.3000402399  MEMB      54              0.0000000000
      6137        54  OSM       C17S            4.1751579653       -4.5656357978       -3.4861824031  MEMB      54              0.0000000000
      6138        54  OSM       H17S            3.5912150030       -3.7205409766       -3.0888625342  MEMB      54              0.0000000000
      6139        54  OSM       H17T            5.0310943347       -4.1754186261       -4.0820504276  MEMB      54              0.0000000000
      6140        54  OSM       C18S            4.7155517849       -5.3179631018       -2.2857651627  MEMB      54              0.0000000000
      6141        54  OSM       H18S            5.4912189871       -6.0359362587       -2.6172935630  MEMB      54              0.0000000000
      6142        54  OSM       H18T            3.8802163707       -5.8503566279       -1.7808391664  MEMB      54              0.0000000000
      6143        54  OSM       H18U            5.1861979976       -4.6298907180       -1.5532290787  MEMB      54              0.0000000000
      6144        54  OSM       C1F             4.3855789779       -9.4665897748      -18.0142005024  MEMB      54              0.0000000000
      6145        54  OSM       OF              5.1853971172       -8.9513133868      -18.7872864413  MEMB      54              0.0000000000
      6146        54  OSM       C2F             4.7886630240      -10.5773273601      -17.0918310638  MEMB      54              0.0000000000
      6147        54  OSM       H2F             5.8851217998      -10.7413638008      -17.1846140602  MEMB      54              0.0000000000
      6148        54  OSM       H2G             4.2691212020      -11.5070696479      -17.4080423851  MEMB      54              0.0000000000
      6149        54  OSM       C3F             4.4371389221      -10.2753002882      -15.6101493338  MEMB      54              0.0000000000
      6150        54  OSM       H3F             4.8748995763      -11.0959593629      -14.9990462615  MEMB      54              0.0000000000
      6151        54  OSM       H3G             3.3399833926      -10.3033549676      -15.4438725855  MEMB      54              0.0000000000
      6152        54  OSM       C4F             4.9885997631       -8.9363951468      -15.0831710233  MEMB      54              0.0000000000
      6153        54  OSM       H4F             4.4423602558       -8.0943109385      -15.5641968412  MEMB      54              0.0000000000
      6154        54  OSM       H4G             6.0602720719       -8.8619975810      -15.3742714482  MEMB      54              0.0000000000
      6155        54  OSM       C5F             4.8836699892       -8.7661455128      -13.5520439620  MEMB      54              0.0000000000
      6156        54  OSM       H5F             5.6899028362       -9.3562318999      -13.0654930616  MEMB      54              0.0000000000
      6157        54  OSM       H5G             3.9118834950       -9.1930676558      -13.2128030880  MEMB      54              0.0000000000
      6158        54  OSM       C6F             4.9363688902       -7.2967715990      -13.0704055012  MEMB      54              0.0000000000
      6159        54  OSM       H6F             4.8550819472       -7.2575659945      -11.9620868275  MEMB      54              0.0000000000
      6160        54  OSM       H6G             4.0300787879       -6.7947227377      -13.4794708147  MEMB      54              0.0000000000
      6161        54  OSM       C7F             6.1601309794       -6.4785300395      -13.5333190158  MEMB      54              0.0000000000
      6162        54  OSM       H7F             5.8105344908       -5.4827360409      -13.8896592233  MEMB      54              0.0000000000
      6163        54  OSM       H7G             6.6207631730       -6.9855111843      -14.4076491670  MEMB      54              0.0000000000
      6164        54  OSM       C8F             7.2587497529       -6.2704104673      -12.4672928112  MEMB      54              0.0000000000
      6165        54  OSM       H8F             8.2006556901       -6.0325146688      -13.0117631939  MEMB      54              0.0000000000
      6166        54  OSM       H8G             7.4220782729       -7.2464543350      -11.9568097962  MEMB      54              0.0000000000
      6167        54  OSM       C9F             6.9839195523       -5.1381709706      -11.5010738388  MEMB      54              0.0000000000
      6168        54  OSM       H9F             6.5994439744       -4.2130985972      -11.9577773292  MEMB      54              0.0000000000
      6169        54  OSM       C10F            7.1727584348       -5.1690318175      -10.1687249433  MEMB      54              0.0000000000
      6170        54  OSM       H10F            6.9392740726       -4.2774271914       -9.5657211263  MEMB      54              0.0000000000
      6171        54  OSM       C11F            7.6975512454       -6.3550900669       -9.4030768601  MEMB      54              0.0000000000
      6172        54  OSM       H11F            8.3147788156       -6.0300710706       -8.5373775812  MEMB      54              0.0000000000
      6173        54  OSM       H11G            8.3743825308       -6.9606554671      -10.0468917993  MEMB      54              0.0000000000
      6174        54  OSM       C12F            6.5628168988       -7.2719851853       -8.9087720011  MEMB      54              0.0000000000
      6175        54  OSM       H12F            5.6655161102       -7.1711247956       -9.5635521299  MEMB      54              0.0000000000
      6176        54  OSM       H12G            6.2640022061       -6.9765187455       -7.8808516930  MEMB      54              0.0000000000
      6177        54  OSM       C13F            6.9551240117       -8.7526439123       -8.9385716768  MEMB      54              0.0000000000
      6178        54  OSM       H13F            7.2441422910       -8.9932900079       -9.9878525095  MEMB      54              0.0000000000
      6179        54  OSM       H13G            6.0698200167       -9.3768331826       -8.6944041540  MEMB      54              0.0000000000
      6180        54  OSM       C14F            8.1334011894       -9.0993148641       -8.0185934534  MEMB      54              0.0000000000
      6181        54  OSM       H14F            8.9705422284       -8.4037515275       -8.2371227205  MEMB      54              0.0000000000
      6182        54  OSM       H14G            8.4835150645      -10.1267158604       -8.2629449582  MEMB      54              0.0000000000
      6183        54  OSM       C15F            7.8606205819       -9.0287893754       -6.5091610044  MEMB      54              0.0000000000
      6184        54  OSM       H15F            7.8737131535       -7.9693037457       -6.1695145431  MEMB      54              0.0000000000
      6185        54  OSM       H15G            8.6969920670       -9.5495545747       -5.9876738488  MEMB      54              0.0000000000
      6186        54  OSM       C16F            6.5403220826       -9.6639827575       -6.0628052731  MEMB      54              0.0000000000
      6187        54  OSM       H16F            6.3186538462      -10.5742964407       -6.6549492755  MEMB      54              0.0000000000
      6188        54  OSM       H16G            5.7210399680       -8.9333909720       -6.2509695595  MEMB      54              0.0000000000
      6189        54  OSM       C17F            6.5816514496      -10.0452023953       -4.5817089144  MEMB      54              0.0000000000
      6190        54  OSM       H17F            5.5532124108       -9.9509426178       -4.1750025651  MEMB      54              0.0000000000
      6191        54  OSM       H17G            7.2140400696       -9.3083668921       -4.0362473673  MEMB      54              0.0000000000
      6192        54  OSM       C18F            7.1023527982      -11.4639787955       -4.3287624598  MEMB      54              0.0000000000
      6193        54  OSM       H18F            7.5060483501      -11.5526789536       -3.2996892888  MEMB      54              0.0000000000
      6194        54  OSM       H18G            7.9214536905      -11.7141794525       -5.0373088339  MEMB      54              0.0000000000
      6195        54  OSM       H18H            6.2861709396      -12.2088709478       -4.4539530889  MEMB      54              0.0000000000
      6196        55  SAPC      N              -2.5507886108        7.5878713678      -22.0175003226  MEMB      55              0.0000000000
      6197        55  SAPC      C12            -3.2191278460        6.7403195292      -20.9440025953  MEMB      55              0.0000000000
      6198        55  SAPC      H12A           -2.5817086038        5.9147478492      -20.6602148338  MEMB      55              0.0000000000
      6199        55  SAPC      H12B           -4.1180387227        6.2966251040      -21.3709117858  MEMB      55              0.0000000000
      6200        55  SAPC      C13            -3.5082609522        8.6417356209      -22.4673993855  MEMB      55              0.0000000000
      6201        55  SAPC      H13A           -4.4548093759        8.1890031555      -22.7499006119  MEMB      55              0.0000000000
      6202        55  SAPC      H13B           -3.7544408054        9.2895874574      -21.6225465689  MEMB      55              0.0000000000
      6203        55  SAPC      H13C           -3.1385808785        9.2193181395      -23.3012861437  MEMB      55              0.0000000000
      6204        55  SAPC      C14            -1.3355453749        8.2577518867      -21.4609541486  MEMB      55              0.0000000000
      6205        55  SAPC      H14A           -1.6135482955        8.9786827556      -20.6860919608  MEMB      55              0.0000000000
      6206        55  SAPC      H14B           -0.6908417886        7.5519636545      -20.9590494842  MEMB      55              0.0000000000
      6207        55  SAPC      H14C           -0.7882936048        8.7843303944      -22.2279957963  MEMB      55              0.0000000000
      6208        55  SAPC      C15            -2.2475853239        6.7425051421      -23.2034480064  MEMB      55              0.0000000000
      6209        55  SAPC      H15A           -3.1619105510        6.2892915440      -23.5986913397  MEMB      55              0.0000000000
      6210        55  SAPC      H15B           -1.8338470851        7.3432690211      -24.0047378876  MEMB      55              0.0000000000
      6211        55  SAPC      H15C           -1.5810194254        5.9313949134      -22.9657008686  MEMB      55              0.0000000000
      6212        55  SAPC      C11            -3.6950506362        7.4535591216      -19.6680668501  MEMB      55              0.0000000000
      6213        55  SAPC      H11A           -2.8462820306        7.9805954179      -19.1897401225  MEMB      55              0.0000000000
      6214        55  SAPC      H11B           -4.0586891364        6.6625544316      -18.9644148266  MEMB      55              0.0000000000
      6215        55  SAPC      P              -5.5353849565        9.0260031008      -18.7852509008  MEMB      55              0.0000000000
      6216        55  SAPC      O13            -6.8047476508        9.5799843832      -19.2996393107  MEMB      55              0.0000000000
      6217        55  SAPC      O14            -5.6022042798        8.0696746706      -17.6635496074  MEMB      55              0.0000000000
      6218        55  SAPC      O12            -4.7369292114        8.3695823089      -19.9901996018  MEMB      55              0.0000000000
      6219        55  SAPC      O11            -4.5916051126       10.2051016484      -18.3491972010  MEMB      55              0.0000000000
      6220        55  SAPC      C1             -4.1979202637       11.2130122819      -19.2733607742  MEMB      55              0.0000000000
      6221        55  SAPC      HA             -3.6669105396       10.7600312395      -20.1381062441  MEMB      55              0.0000000000
      6222        55  SAPC      HB             -5.0868227141       11.7653807908      -19.6520182913  MEMB      55              0.0000000000
      6223        55  SAPC      C2             -3.2359389547       12.2410331412      -18.6017618754  MEMB      55              0.0000000000
      6224        55  SAPC      HS             -2.5943157195       12.6997457392      -19.3842865880  MEMB      55              0.0000000000
      6225        55  SAPC      O21            -2.3982630569       11.6333271765      -17.5946003165  MEMB      55              0.0000000000
      6226        55  SAPC      C21            -1.6438683851       10.6209601228      -18.0229870683  MEMB      55              0.0000000000
      6227        55  SAPC      O22            -1.3878685695       10.3737406897      -19.1961460671  MEMB      55              0.0000000000
      6228        55  SAPC      C22            -0.9586687273        9.9543755252      -16.8338868525  MEMB      55              0.0000000000
      6229        55  SAPC      H2R             0.1228661819       10.1720670736      -16.9536255244  MEMB      55              0.0000000000
      6230        55  SAPC      H2S            -1.3074724941       10.4250064767      -15.8980584932  MEMB      55              0.0000000000
      6231        55  SAPC      C3             -4.0560019126       13.4124075341      -17.9708904660  MEMB      55              0.0000000000
      6232        55  SAPC      HX             -4.4089960137       14.0485602467      -18.8112673017  MEMB      55              0.0000000000
      6233        55  SAPC      HY             -3.3784769130       14.0486529364      -17.3647004745  MEMB      55              0.0000000000
      6234        55  SAPC      O31            -5.2128890023       12.9483960026      -17.2309548335  MEMB      55              0.0000000000
      6235        55  SAPC      C31            -4.9355568472       12.5542123225      -15.9891381226  MEMB      55              0.0000000000
      6236        55  SAPC      O32            -3.9488264719       12.8717421533      -15.3515528100  MEMB      55              0.0000000000
      6237        55  SAPC      C32            -6.0309433815       11.6682619654      -15.4190960984  MEMB      55              0.0000000000
      6238        55  SAPC      H2X            -5.5167485178       10.7659903211      -15.0195213366  MEMB      55              0.0000000000
      6239        55  SAPC      H2Y            -6.7072449951       11.3471105377      -16.2345952294  MEMB      55              0.0000000000
      6240        55  SAPC      C23            -1.1760046012        8.4235354919      -16.7716525151  MEMB      55              0.0000000000
      6241        55  SAPC      H3R            -0.2163134592        7.9276977959      -16.5022527903  MEMB      55              0.0000000000
      6242        55  SAPC      H3S            -1.4334157580        8.0272248158      -17.7724214582  MEMB      55              0.0000000000
      6243        55  SAPC      C24            -2.2537826166        7.9988523385      -15.7537754753  MEMB      55              0.0000000000
      6244        55  SAPC      H4R            -2.5888412355        6.9691845095      -16.0143316248  MEMB      55              0.0000000000
      6245        55  SAPC      H4S            -3.1472615294        8.6525836559      -15.8753328873  MEMB      55              0.0000000000
      6246        55  SAPC      C25            -1.7174516807        7.9943333334      -14.3424371955  MEMB      55              0.0000000000
      6247        55  SAPC      H5R            -1.0932606319        7.1171341302      -14.1092023762  MEMB      55              0.0000000000
      6248        55  SAPC      C26            -1.8684014563        8.9267443215      -13.3819090343  MEMB      55              0.0000000000
      6249        55  SAPC      H6R            -1.3782847570        8.7382440242      -12.4177924934  MEMB      55              0.0000000000
      6250        55  SAPC      C27            -2.6134811766       10.2390239824      -13.4379910683  MEMB      55              0.0000000000
      6251        55  SAPC      H7R            -3.3716638185       10.2674850645      -12.6283976834  MEMB      55              0.0000000000
      6252        55  SAPC      H7S            -3.1942219143       10.3275759705      -14.3817807207  MEMB      55              0.0000000000
      6253        55  SAPC      C28            -1.6895847167       11.4290995135      -13.3349465790  MEMB      55              0.0000000000
      6254        55  SAPC      H8R            -1.5112007048       11.9244272924      -14.3037808027  MEMB      55              0.0000000000
      6255        55  SAPC      C29            -1.1487423355       11.9763732145      -12.2250191645  MEMB      55              0.0000000000
      6256        55  SAPC      H9R            -0.4576825475       12.8243301845      -12.3504707959  MEMB      55              0.0000000000
      6257        55  SAPC      C210           -1.3383665641       11.5298998783      -10.7974568116  MEMB      55              0.0000000000
      6258        55  SAPC      H10R           -2.4129835032       11.3183608436      -10.6237656309  MEMB      55              0.0000000000
      6259        55  SAPC      H10S           -1.0817535792       12.3654849812      -10.1109555673  MEMB      55              0.0000000000
      6260        55  SAPC      C211           -0.4803634200       10.3392544052      -10.4689710744  MEMB      55              0.0000000000
      6261        55  SAPC      H11R            0.5855865434       10.4689737334      -10.6996573773  MEMB      55              0.0000000000
      6262        55  SAPC      C212           -0.8589344793        9.1949167765       -9.8763536549  MEMB      55              0.0000000000
      6263        55  SAPC      H12R           -0.1101220589        8.4102747439       -9.7533250309  MEMB      55              0.0000000000
      6264        55  SAPC      C213           -2.2202062962        8.7936943499       -9.3787589322  MEMB      55              0.0000000000
      6265        55  SAPC      H13R           -2.6503547254        8.0034061448      -10.0331307080  MEMB      55              0.0000000000
      6266        55  SAPC      H13S           -2.9202243456        9.6506586443       -9.4254740906  MEMB      55              0.0000000000
      6267        55  SAPC      C214           -2.1082213605        8.2957582267       -7.9564550515  MEMB      55              0.0000000000
      6268        55  SAPC      H14R           -2.1641887257        7.2034669799       -7.8290360311  MEMB      55              0.0000000000
      6269        55  SAPC      C215           -1.9620471922        9.0777876765       -6.8665390594  MEMB      55              0.0000000000
      6270        55  SAPC      H15R           -1.8920823888        8.6144291078       -5.8710928878  MEMB      55              0.0000000000
      6271        55  SAPC      C216           -1.8874864558       10.5847778475       -6.8769649087  MEMB      55              0.0000000000
      6272        55  SAPC      H16R           -2.8065563335       10.9862891084       -6.4107530196  MEMB      55              0.0000000000
      6273        55  SAPC      H16S           -1.8836957706       10.9881704339       -7.9143420517  MEMB      55              0.0000000000
      6274        55  SAPC      C217           -0.6618425340       11.1851117573       -6.1637527953  MEMB      55              0.0000000000
      6275        55  SAPC      H17R           -0.6627427655       12.2797894255       -6.3780265757  MEMB      55              0.0000000000
      6276        55  SAPC      H17S            0.2788657953       10.7705035000       -6.5921477654  MEMB      55              0.0000000000
      6277        55  SAPC      C218           -0.6491563117       11.0134942231       -4.6366423353  MEMB      55              0.0000000000
      6278        55  SAPC      H18R           -0.3067724237        9.9886970087       -4.3864941924  MEMB      55              0.0000000000
      6279        55  SAPC      H18S           -1.6716515788       11.1309714758       -4.2197689701  MEMB      55              0.0000000000
      6280        55  SAPC      C219            0.2630470166       12.0614013066       -3.9894250869  MEMB      55              0.0000000000
      6281        55  SAPC      H19R           -0.1532517078       13.0660020662       -4.2233604032  MEMB      55              0.0000000000
      6282        55  SAPC      H19S            1.2635170780       11.9905959767       -4.4715126862  MEMB      55              0.0000000000
      6283        55  SAPC      C220            0.4275590051       11.9401252322       -2.4775977313  MEMB      55              0.0000000000
      6284        55  SAPC      H20R           -0.5608526028       11.8931408506       -1.9754685286  MEMB      55              0.0000000000
      6285        55  SAPC      H20S            0.9900760040       12.8065340579       -2.0726943565  MEMB      55              0.0000000000
      6286        55  SAPC      H20T            0.9971013745       11.0225543057       -2.2311817362  MEMB      55              0.0000000000
      6287        55  SAPC      C33            -6.7988630091       12.3889831200      -14.2876714554  MEMB      55              0.0000000000
      6288        55  SAPC      H3X            -7.5405777496       13.0736298230      -14.7612771369  MEMB      55              0.0000000000
      6289        55  SAPC      H3Y            -6.1157123747       13.0151893794      -13.6702069125  MEMB      55              0.0000000000
      6290        55  SAPC      C34            -7.5307047919       11.4023683674      -13.3683122415  MEMB      55              0.0000000000
      6291        55  SAPC      H4X            -8.0256401943       10.6385520299      -14.0105429237  MEMB      55              0.0000000000
      6292        55  SAPC      H4Y            -8.3176881752       11.9396552959      -12.8039630791  MEMB      55              0.0000000000
      6293        55  SAPC      C35            -6.6488925574       10.7131676798      -12.3214095934  MEMB      55              0.0000000000
      6294        55  SAPC      H5X            -5.7593690738       10.2675395830      -12.8211468379  MEMB      55              0.0000000000
      6295        55  SAPC      H5Y            -7.2477667330        9.8915291469      -11.8697345249  MEMB      55              0.0000000000
      6296        55  SAPC      C36            -6.2329992568       11.6327904600      -11.1641289664  MEMB      55              0.0000000000
      6297        55  SAPC      H6X            -7.1428800766       12.0055138397      -10.6433825431  MEMB      55              0.0000000000
      6298        55  SAPC      H6Y            -5.6934221153       12.5126930486      -11.5840685254  MEMB      55              0.0000000000
      6299        55  SAPC      C37            -5.3041240228       10.9466225567      -10.1535749587  MEMB      55              0.0000000000
      6300        55  SAPC      H7X            -4.9502774437       11.6851970340       -9.4006593234  MEMB      55              0.0000000000
      6301        55  SAPC      H7Y            -4.4118851539       10.6065871523      -10.7272132414  MEMB      55              0.0000000000
      6302        55  SAPC      C38            -5.8573018729        9.7058128596       -9.4279130021  MEMB      55              0.0000000000
      6303        55  SAPC      H8X            -4.9661178867        9.2497211558       -8.9489148954  MEMB      55              0.0000000000
      6304        55  SAPC      H8Y            -6.2409453162        8.9486824162      -10.1391278075  MEMB      55              0.0000000000
      6305        55  SAPC      C39            -6.9033055355        9.9773892278       -8.3352047738  MEMB      55              0.0000000000
      6306        55  SAPC      H9X            -7.9125791333       10.0464030433       -8.8002896642  MEMB      55              0.0000000000
      6307        55  SAPC      H9Y            -6.6886330092       10.9588644264       -7.8589844876  MEMB      55              0.0000000000
      6308        55  SAPC      C310           -6.9318563467        8.8967624799       -7.2287900745  MEMB      55              0.0000000000
      6309        55  SAPC      H10X           -7.3311229312        7.9588658738       -7.6581706967  MEMB      55              0.0000000000
      6310        55  SAPC      H10Y           -7.6612643137        9.2203131370       -6.4651354794  MEMB      55              0.0000000000
      6311        55  SAPC      C311           -5.5583091523        8.6244991578       -6.5814571635  MEMB      55              0.0000000000
      6312        55  SAPC      H11X           -5.0192634237        9.5841850440       -6.4510685423  MEMB      55              0.0000000000
      6313        55  SAPC      H11Y           -4.9470600016        8.0260446125       -7.2938678281  MEMB      55              0.0000000000
      6314        55  SAPC      C312           -5.5101690291        7.8863533481       -5.2298987848  MEMB      55              0.0000000000
      6315        55  SAPC      H12X           -4.4741892352        7.9966652561       -4.8352305764  MEMB      55              0.0000000000
      6316        55  SAPC      H12Y           -5.6587830337        6.7975680400       -5.4102068228  MEMB      55              0.0000000000
      6317        55  SAPC      C313           -6.4976156035        8.3055079349       -4.1234489412  MEMB      55              0.0000000000
      6318        55  SAPC      H13X           -6.1016228207        7.9218652210       -3.1546054746  MEMB      55              0.0000000000
      6319        55  SAPC      H13Y           -7.4388546169        7.7502573335       -4.3229435605  MEMB      55              0.0000000000
      6320        55  SAPC      C314           -6.8475181805        9.8002571496       -3.9359066898  MEMB      55              0.0000000000
      6321        55  SAPC      H14X           -7.4535360056        9.8698850400       -3.0058566341  MEMB      55              0.0000000000
      6322        55  SAPC      H14Y           -7.5184629103       10.1566434279       -4.7408538519  MEMB      55              0.0000000000
      6323        55  SAPC      C315           -5.6687374075       10.7738783444       -3.8385929204  MEMB      55              0.0000000000
      6324        55  SAPC      H15X           -4.7186296162       10.1971850911       -3.8715906430  MEMB      55              0.0000000000
      6325        55  SAPC      H15Y           -5.7119829391       11.3040414999       -2.8609272820  MEMB      55              0.0000000000
      6326        55  SAPC      C316           -5.6536131968       11.8423706354       -4.9414838895  MEMB      55              0.0000000000
      6327        55  SAPC      H16X           -6.5062096943       12.5442937017       -4.8188482544  MEMB      55              0.0000000000
      6328        55  SAPC      H16Y           -5.7804198916       11.3469494095       -5.9232891505  MEMB      55              0.0000000000
      6329        55  SAPC      C317           -4.3332365873       12.6134621638       -4.9469458713  MEMB      55              0.0000000000
      6330        55  SAPC      H17X           -4.1416935694       13.0235810749       -5.9645127076  MEMB      55              0.0000000000
      6331        55  SAPC      H17Y           -3.5182938157       11.8977579681       -4.7139921282  MEMB      55              0.0000000000
      6332        55  SAPC      C318           -4.3080972676       13.7455907194       -3.9317464820  MEMB      55              0.0000000000
      6333        55  SAPC      H18X           -4.9863252950       14.5486583314       -4.2848460225  MEMB      55              0.0000000000
      6334        55  SAPC      H18Y           -3.2872502931       14.1610637215       -3.8109093051  MEMB      55              0.0000000000
      6335        55  SAPC      H18Z           -4.6606811340       13.3878017169       -2.9392817508  MEMB      55              0.0000000000
      6336        56  OSM       N             -11.0417843622       -5.9793111856      -20.9744779371  MEMB      56              0.0000000000
      6337        56  OSM       C15           -12.4176612896       -5.7727328437      -20.4523526101  MEMB      56              0.0000000000
      6338        56  OSM       H15A          -12.4119270290       -5.4652169453      -19.4136301415  MEMB      56              0.0000000000
      6339        56  OSM       H15B          -13.0314376900       -6.6626752908      -20.4828544792  MEMB      56              0.0000000000
      6340        56  OSM       H15C          -12.9242328546       -4.9628657879      -20.9860453306  MEMB      56              0.0000000000
      6341        56  OSM       C14           -11.1471462905       -6.2754555601      -22.4325522147  MEMB      56              0.0000000000
      6342        56  OSM       H14A          -11.8809518981       -5.6518387541      -22.9160867862  MEMB      56              0.0000000000
      6343        56  OSM       H14B          -11.3942291750       -7.3274895092      -22.5678466732  MEMB      56              0.0000000000
      6344        56  OSM       H14C          -10.1646729126       -6.1302620880      -22.8806334115  MEMB      56              0.0000000000
      6345        56  OSM       C13           -10.3322077053       -4.6783535894      -20.7959854264  MEMB      56              0.0000000000
      6346        56  OSM       H13A          -10.9115308123       -3.8729519167      -21.2317207457  MEMB      56              0.0000000000
      6347        56  OSM       H13B           -9.3645703915       -4.7014787842      -21.2872219291  MEMB      56              0.0000000000
      6348        56  OSM       H13C          -10.1702131624       -4.4662741389      -19.7517188137  MEMB      56              0.0000000000
      6349        56  OSM       C12           -10.3004385890       -7.1120477678      -20.2756223914  MEMB      56              0.0000000000
      6350        56  OSM       H12A          -10.8879244706       -8.0252462317      -20.3541124868  MEMB      56              0.0000000000
      6351        56  OSM       H12B          -10.2122392217       -6.8732175906      -19.2254338520  MEMB      56              0.0000000000
      6352        56  OSM       C11            -8.9004751065       -7.5114324644      -20.8240943973  MEMB      56              0.0000000000
      6353        56  OSM       H11A           -8.3581014426       -8.1302958977      -20.0677405812  MEMB      56              0.0000000000
      6354        56  OSM       H11B           -8.2686215254       -6.6120706712      -20.9858688502  MEMB      56              0.0000000000
      6355        56  OSM       P              -9.5787125093       -9.6983822515      -22.1267041466  MEMB      56              0.0000000000
      6356        56  OSM       O13           -11.0155612409       -9.5954315926      -22.4969368223  MEMB      56              0.0000000000
      6357        56  OSM       O14            -8.6730933305      -10.5575788271      -22.9257253604  MEMB      56              0.0000000000
      6358        56  OSM       O11            -9.5211616042      -10.1316384793      -20.6093477845  MEMB      56              0.0000000000
      6359        56  OSM       O12            -9.0070101491       -8.2198979787      -22.0576730069  MEMB      56              0.0000000000
      6360        56  OSM       C1S           -10.6346306340      -10.8151430458      -20.0304832123  MEMB      56              0.0000000000
      6361        56  OSM       H1S           -10.6025818753      -11.8893382419      -20.3277293350  MEMB      56              0.0000000000
      6362        56  OSM       H1T           -11.6210116870      -10.4031361567      -20.3450138368  MEMB      56              0.0000000000
      6363        56  OSM       NF            -11.3662041331       -9.7402758187      -17.8689830880  MEMB      56              0.0000000000
      6364        56  OSM       HNF           -10.8372794788       -9.1392325747      -17.2857800750  MEMB      56              0.0000000000
      6365        56  OSM       C2S           -10.5602986417      -10.7870218689      -18.4829538393  MEMB      56              0.0000000000
      6366        56  OSM       H2S           -10.9714472153      -11.7621825851      -18.1296044232  MEMB      56              0.0000000000
      6367        56  OSM       C3S            -9.0942910745      -10.6448263717      -17.9796450203  MEMB      56              0.0000000000
      6368        56  OSM       H3S            -8.6918807273       -9.6454263979      -18.2383356566  MEMB      56              0.0000000000
      6369        56  OSM       O3             -8.2102276252      -11.6224583040      -18.5095344378  MEMB      56              0.0000000000
      6370        56  OSM       HO3            -8.2712737005      -11.5017930888      -19.4663354609  MEMB      56              0.0000000000
      6371        56  OSM       C4S            -9.2043832063      -10.7734671120      -16.4780277252  MEMB      56              0.0000000000
      6372        56  OSM       H4S            -9.2497943421      -11.8122041937      -16.1379191393  MEMB      56              0.0000000000
      6373        56  OSM       C5S            -9.2353977741       -9.7767642353      -15.5648300563  MEMB      56              0.0000000000
      6374        56  OSM       H5S            -9.1062212295       -8.7341298961      -15.8981859513  MEMB      56              0.0000000000
      6375        56  OSM       C6S            -9.3733321912       -9.9545098529      -14.0703299818  MEMB      56              0.0000000000
      6376        56  OSM       H6S            -9.8740284028       -9.0603690136      -13.6366911459  MEMB      56              0.0000000000
      6377        56  OSM       H6T            -8.3665473378       -9.9765995047      -13.6187837344  MEMB      56              0.0000000000
      6378        56  OSM       C7S           -10.1789414204      -11.1945273937      -13.5909599697  MEMB      56              0.0000000000
      6379        56  OSM       H7S            -9.7861666589      -12.0839816279      -14.1069527984  MEMB      56              0.0000000000
      6380        56  OSM       H7T           -11.2262948852      -11.1096281418      -13.9262837164  MEMB      56              0.0000000000
      6381        56  OSM       C8S           -10.1109993612      -11.4315659193      -12.0613630693  MEMB      56              0.0000000000
      6382        56  OSM       H8S           -10.1935448944      -10.4513920629      -11.5462672138  MEMB      56              0.0000000000
      6383        56  OSM       H8T            -9.1185647489      -11.8624102404      -11.8149477177  MEMB      56              0.0000000000
      6384        56  OSM       C9S           -11.1539103009      -12.3977899780      -11.4662338715  MEMB      56              0.0000000000
      6385        56  OSM       H9S           -11.1730244627      -13.3280743529      -12.0737936273  MEMB      56              0.0000000000
      6386        56  OSM       H9T           -12.1603873606      -11.9436337091      -11.5405606454  MEMB      56              0.0000000000
      6387        56  OSM       C10S          -10.9117567868      -12.7772113818       -9.9838927547  MEMB      56              0.0000000000
      6388        56  OSM       H10S          -10.0150188156      -13.4319200579       -9.9161358504  MEMB      56              0.0000000000
      6389        56  OSM       H10T          -11.7827867938      -13.3816027417       -9.6435466209  MEMB      56              0.0000000000
      6390        56  OSM       C11S          -10.7310663623      -11.5801927954       -9.0263863978  MEMB      56              0.0000000000
      6391        56  OSM       H11S          -11.5646299987      -10.8662657306       -9.1833952678  MEMB      56              0.0000000000
      6392        56  OSM       H11T           -9.7918649881      -11.0419011996       -9.2712129273  MEMB      56              0.0000000000
      6393        56  OSM       C12S          -10.7319607314      -11.9506872431       -7.5293454348  MEMB      56              0.0000000000
      6394        56  OSM       H12S          -10.0202328118      -12.7821042937       -7.3347227700  MEMB      56              0.0000000000
      6395        56  OSM       H12T          -11.7522101424      -12.3212882870       -7.2801953505  MEMB      56              0.0000000000
      6396        56  OSM       C13S          -10.4063269434      -10.7590031290       -6.5984792714  MEMB      56              0.0000000000
      6397        56  OSM       H13S          -11.1032639138      -10.7772914360       -5.7312715184  MEMB      56              0.0000000000
      6398        56  OSM       H13T          -10.5773195064       -9.8105943614       -7.1520400857  MEMB      56              0.0000000000
      6399        56  OSM       C14S           -8.9728693069      -10.7886363230       -6.0400383015  MEMB      56              0.0000000000
      6400        56  OSM       H14S           -8.2817330358      -10.9380416229       -6.8941794091  MEMB      56              0.0000000000
      6401        56  OSM       H14T           -8.8645439172      -11.6661884913       -5.3660118942  MEMB      56              0.0000000000
      6402        56  OSM       C15S           -8.4940148084       -9.5147132601       -5.3124716783  MEMB      56              0.0000000000
      6403        56  OSM       H15S           -8.4358099725       -8.7029876042       -6.0712035559  MEMB      56              0.0000000000
      6404        56  OSM       H15T           -7.4570993589       -9.6767814250       -4.9414476611  MEMB      56              0.0000000000
      6405        56  OSM       C16S           -9.3581958057       -9.0233531284       -4.1360767467  MEMB      56              0.0000000000
      6406        56  OSM       H16S          -10.4284875112       -9.0003780740       -4.4214370040  MEMB      56              0.0000000000
      6407        56  OSM       H16T           -9.0470010728       -7.9716979557       -3.9284486368  MEMB      56              0.0000000000
      6408        56  OSM       C17S           -9.1829375056       -9.8072874077       -2.8247945288  MEMB      56              0.0000000000
      6409        56  OSM       H17S           -9.2080136361       -9.0813801450       -1.9774649334  MEMB      56              0.0000000000
      6410        56  OSM       H17T           -8.1796110400      -10.2867684995       -2.8134885778  MEMB      56              0.0000000000
      6411        56  OSM       C18S          -10.2704682680      -10.8557818419       -2.5719484852  MEMB      56              0.0000000000
      6412        56  OSM       H18S          -10.2946919392      -11.5949571573       -3.4004982954  MEMB      56              0.0000000000
      6413        56  OSM       H18T          -11.2671732414      -10.3683484969       -2.5022619019  MEMB      56              0.0000000000
      6414        56  OSM       H18U          -10.0760611083      -11.3983028612       -1.6211019587  MEMB      56              0.0000000000
      6415        56  OSM       C1F           -12.6820782577       -9.6921460539      -17.8107910183  MEMB      56              0.0000000000
      6416        56  OSM       OF            -13.3980548578      -10.1089520195      -18.7020428114  MEMB      56              0.0000000000
      6417        56  OSM       C2F           -13.2397813749       -9.1170971168      -16.5563839387  MEMB      56              0.0000000000
      6418        56  OSM       H2F           -14.1019378083       -8.4674999886      -16.8168085992  MEMB      56              0.0000000000
      6419        56  OSM       H2G           -12.4616425201       -8.5005341987      -16.0553481728  MEMB      56              0.0000000000
      6420        56  OSM       C3F           -13.7167286109      -10.2310487965      -15.5975634608  MEMB      56              0.0000000000
      6421        56  OSM       H3F           -12.9232983931      -10.9944532696      -15.4289175074  MEMB      56              0.0000000000
      6422        56  OSM       H3G           -14.5840564803      -10.7483688003      -16.0689677105  MEMB      56              0.0000000000
      6423        56  OSM       C4F           -14.1657135831       -9.6382882620      -14.2555528993  MEMB      56              0.0000000000
      6424        56  OSM       H4F           -14.9676775737      -10.2699799659      -13.8114902418  MEMB      56              0.0000000000
      6425        56  OSM       H4G           -14.5545881138       -8.6193058759      -14.4440784872  MEMB      56              0.0000000000
      6426        56  OSM       C5F           -13.0434582417       -9.4787622046      -13.2385132613  MEMB      56              0.0000000000
      6427        56  OSM       H5F           -12.1188816605       -9.1371308908      -13.7501137164  MEMB      56              0.0000000000
      6428        56  OSM       H5G           -12.8667050276      -10.4816192278      -12.7974022352  MEMB      56              0.0000000000
      6429        56  OSM       C6F           -13.3340959006       -8.4985837875      -12.1039359787  MEMB      56              0.0000000000
      6430        56  OSM       H6F           -14.3432592522       -8.7138964630      -11.6857325823  MEMB      56              0.0000000000
      6431        56  OSM       H6G           -13.3222422625       -7.4494080967      -12.4719539103  MEMB      56              0.0000000000
      6432        56  OSM       C7F           -12.3030868246       -8.6705107306      -10.9878054123  MEMB      56              0.0000000000
      6433        56  OSM       H7F           -11.2753977349       -8.5068932353      -11.3786807392  MEMB      56              0.0000000000
      6434        56  OSM       H7G           -12.3552129973       -9.7324198803      -10.6722619611  MEMB      56              0.0000000000
      6435        56  OSM       C8F           -12.5722361754       -7.8075235887       -9.7505753648  MEMB      56              0.0000000000
      6436        56  OSM       H8F           -12.0617023425       -8.3044431242       -8.9003928775  MEMB      56              0.0000000000
      6437        56  OSM       H8G           -13.6604980447       -7.8359969051       -9.5216422139  MEMB      56              0.0000000000
      6438        56  OSM       C9F           -12.0903774561       -6.3941599556       -9.9494719108  MEMB      56              0.0000000000
      6439        56  OSM       H9F           -12.6421561803       -5.8275118175      -10.7167602410  MEMB      56              0.0000000000
      6440        56  OSM       C10F          -11.0630180216       -5.7934600535       -9.3224470538  MEMB      56              0.0000000000
      6441        56  OSM       H10F          -10.8006582239       -4.7675206237       -9.6269213755  MEMB      56              0.0000000000
      6442        56  OSM       C11F          -10.1564887135       -6.3993980944       -8.2773550552  MEMB      56              0.0000000000
      6443        56  OSM       H11F           -9.3360220255       -5.6849094554       -8.0456555363  MEMB      56              0.0000000000
      6444        56  OSM       H11G           -9.6699083005       -7.3027450911       -8.7174753922  MEMB      56              0.0000000000
      6445        56  OSM       C12F          -10.7746315078       -6.8431458836       -6.9281271555  MEMB      56              0.0000000000
      6446        56  OSM       H12F           -9.9500523663       -7.2498705618       -6.3038420396  MEMB      56              0.0000000000
      6447        56  OSM       H12G          -11.4882073401       -7.6763206255       -7.0898823498  MEMB      56              0.0000000000
      6448        56  OSM       C13F          -11.4780262687       -5.7745690883       -6.0704477388  MEMB      56              0.0000000000
      6449        56  OSM       H13F          -12.1594436454       -5.1742750401       -6.7051188965  MEMB      56              0.0000000000
      6450        56  OSM       H13G          -10.7113111221       -5.0784633000       -5.6710811493  MEMB      56              0.0000000000
      6451        56  OSM       C14F          -12.2711061062       -6.4611621715       -4.9315520696  MEMB      56              0.0000000000
      6452        56  OSM       H14F          -11.7056152615       -7.3727367197       -4.6425255877  MEMB      56              0.0000000000
      6453        56  OSM       H14G          -13.2513548776       -6.8114956787       -5.3221713537  MEMB      56              0.0000000000
      6454        56  OSM       C15F          -12.4918080540       -5.6753602777       -3.6272118924  MEMB      56              0.0000000000
      6455        56  OSM       H15F          -12.9989201944       -6.3480810746       -2.8985376977  MEMB      56              0.0000000000
      6456        56  OSM       H15G          -13.1585693682       -4.8021816410       -3.7749707734  MEMB      56              0.0000000000
      6457        56  OSM       C16F          -11.1954996192       -5.1679191088       -3.0004220741  MEMB      56              0.0000000000
      6458        56  OSM       H16F          -10.8820202053       -4.2741803467       -3.5820245933  MEMB      56              0.0000000000
      6459        56  OSM       H16G          -10.4023323311       -5.9463425536       -3.0834126612  MEMB      56              0.0000000000
      6460        56  OSM       C17F          -11.3447700904       -4.7642111601       -1.5313197962  MEMB      56              0.0000000000
      6461        56  OSM       H17F          -10.3866441649       -4.2988981713       -1.2180130329  MEMB      56              0.0000000000
      6462        56  OSM       H17G          -11.4988400934       -5.6773555493       -0.9129290686  MEMB      56              0.0000000000
      6463        56  OSM       C18F          -12.4639979357       -3.7665714424       -1.2559364211  MEMB      56              0.0000000000
      6464        56  OSM       H18F          -12.5162404249       -3.5437490165       -0.1684394567  MEMB      56              0.0000000000
      6465        56  OSM       H18G          -13.4461942400       -4.1668904994       -1.5848782541  MEMB      56              0.0000000000
      6466        56  OSM       H18H          -12.2738484522       -2.8189140807       -1.8029808859  MEMB      56              0.0000000000
      6467        57  SLPC      N              10.0674685751        8.1627498045      -18.9177454864  MEMB      57              0.0000000000
      6468        57  SLPC      C13             9.2396590844        8.3552012584      -17.6784458536  MEMB      57              0.0000000000
      6469        57  SLPC      H13A            9.7047682691        7.8142314244      -16.8427586028  MEMB      57              0.0000000000
      6470        57  SLPC      H13B            9.1651043359        9.3867127377      -17.3605011766  MEMB      57              0.0000000000
      6471        57  SLPC      H13C            8.2468458054        7.9389689336      -17.7950356704  MEMB      57              0.0000000000
      6472        57  SLPC      C14            11.4134629662        8.7699193348      -18.7058542426  MEMB      57              0.0000000000
      6473        57  SLPC      H14A           11.3245761514        9.8245486989      -18.4874870693  MEMB      57              0.0000000000
      6474        57  SLPC      H14B           11.9093322667        8.3076934482      -17.8450075913  MEMB      57              0.0000000000
      6475        57  SLPC      H14C           12.0707269781        8.6256840785      -19.5515456012  MEMB      57              0.0000000000
      6476        57  SLPC      C15             9.3607671273        8.7867324899      -20.0677210626  MEMB      57              0.0000000000
      6477        57  SLPC      H15A            9.9886179244        8.8277230584      -20.9453213638  MEMB      57              0.0000000000
      6478        57  SLPC      H15B            8.4761957564        8.1957536330      -20.3353566399  MEMB      57              0.0000000000
      6479        57  SLPC      H15C            9.0016821364        9.7721052224      -19.8020085345  MEMB      57              0.0000000000
      6480        57  SLPC      C12            10.2033218228        6.6665960291      -19.1732726207  MEMB      57              0.0000000000
      6481        57  SLPC      H12A           10.5226879006        6.5084330489      -20.1950225276  MEMB      57              0.0000000000
      6482        57  SLPC      H12B            9.2169584898        6.2158552203      -19.1013798674  MEMB      57              0.0000000000
      6483        57  SLPC      C11            11.1374296783        5.8568220632      -18.2497732605  MEMB      57              0.0000000000
      6484        57  SLPC      H11A           12.1915961341        6.1803549314      -18.4298380635  MEMB      57              0.0000000000
      6485        57  SLPC      H11B           11.0928860314        4.7896775708      -18.5586018374  MEMB      57              0.0000000000
      6486        57  SLPC      P              11.6686076039        6.4776345544      -15.7545903981  MEMB      57              0.0000000000
      6487        57  SLPC      O13            11.7915288830        5.4223012415      -14.7354527838  MEMB      57              0.0000000000
      6488        57  SLPC      O14            12.8789924823        7.0298461759      -16.4090643403  MEMB      57              0.0000000000
      6489        57  SLPC      O12            10.7121017418        5.9521248369      -16.8888383771  MEMB      57              0.0000000000
      6490        57  SLPC      O11            10.7954444283        7.6745813357      -15.1974605407  MEMB      57              0.0000000000
      6491        57  SLPC      C1             11.4164080834        8.9237090721      -14.8859012239  MEMB      57              0.0000000000
      6492        57  SLPC      HA             11.7490494970        9.4393843140      -15.8124822234  MEMB      57              0.0000000000
      6493        57  SLPC      HB             10.6505482794        9.5732603411      -14.4086676615  MEMB      57              0.0000000000
      6494        57  SLPC      C2             12.6350388899        8.8351795410      -13.9128437379  MEMB      57              0.0000000000
      6495        57  SLPC      HS             13.5035336597        8.4574137173      -14.5070026414  MEMB      57              0.0000000000
      6496        57  SLPC      O21            12.3438004025        7.9501797226      -12.8254058593  MEMB      57              0.0000000000
      6497        57  SLPC      C21            13.3996537266        7.6817913076      -12.1094719886  MEMB      57              0.0000000000
      6498        57  SLPC      O22            14.5663805942        7.8474035705      -12.4155303312  MEMB      57              0.0000000000
      6499        57  SLPC      C22            12.9693703605        7.2222107101      -10.7410391913  MEMB      57              0.0000000000
      6500        57  SLPC      H2R            11.9250755849        7.5463312481      -10.5462796233  MEMB      57              0.0000000000
      6501        57  SLPC      H2S            13.0120245425        6.1112392342      -10.7510966191  MEMB      57              0.0000000000
      6502        57  SLPC      C3             12.9870981102       10.2355954548      -13.3617233873  MEMB      57              0.0000000000
      6503        57  SLPC      HX             13.1942233833       10.8316636041      -14.2586163682  MEMB      57              0.0000000000
      6504        57  SLPC      HY             13.8966577910       10.2217372284      -12.7233946040  MEMB      57              0.0000000000
      6505        57  SLPC      O31            11.8703288275       10.7613768252      -12.6365605192  MEMB      57              0.0000000000
      6506        57  SLPC      C31            11.7936848548       12.0715228819      -12.5495742711  MEMB      57              0.0000000000
      6507        57  SLPC      O32            12.5693228106       12.8938479959      -12.9953415843  MEMB      57              0.0000000000
      6508        57  SLPC      C32            10.5999412301       12.3870984120      -11.6647236026  MEMB      57              0.0000000000
      6509        57  SLPC      H2X             9.9452140763       11.4955061902      -11.5789752729  MEMB      57              0.0000000000
      6510        57  SLPC      H2Y            10.0309136879       13.2128068610      -12.1429145213  MEMB      57              0.0000000000
      6511        57  SLPC      C23            13.9292111791        7.8059001208       -9.6816672650  MEMB      57              0.0000000000
      6512        57  SLPC      H3R            13.6048082425        8.8298055862       -9.3869721699  MEMB      57              0.0000000000
      6513        57  SLPC      H3S            14.9781713678        7.8771723186      -10.0573440186  MEMB      57              0.0000000000
      6514        57  SLPC      C24            13.9839511896        6.8944122135       -8.4708507930  MEMB      57              0.0000000000
      6515        57  SLPC      H4R            14.6692023352        7.3155603563       -7.7010397796  MEMB      57              0.0000000000
      6516        57  SLPC      H4S            14.3888407226        5.9089370252       -8.7843689659  MEMB      57              0.0000000000
      6517        57  SLPC      C25            12.6106393866        6.6562317040       -7.8715181831  MEMB      57              0.0000000000
      6518        57  SLPC      H5R            11.8618763871        6.3465271245       -8.6320350923  MEMB      57              0.0000000000
      6519        57  SLPC      H5S            12.2752603311        7.6273103172       -7.4505060799  MEMB      57              0.0000000000
      6520        57  SLPC      C26            12.6933239551        5.5655366362       -6.8121141900  MEMB      57              0.0000000000
      6521        57  SLPC      H6R            13.4226781071        5.8874388005       -6.0467525231  MEMB      57              0.0000000000
      6522        57  SLPC      H6S            13.1136611130        4.6422444281       -7.2743880086  MEMB      57              0.0000000000
      6523        57  SLPC      C27            11.3249405861        5.2191832567       -6.2185948772  MEMB      57              0.0000000000
      6524        57  SLPC      H7R            11.4379573059        4.4119476032       -5.4616753991  MEMB      57              0.0000000000
      6525        57  SLPC      H7S            10.7550679374        4.8165464131       -7.0751093848  MEMB      57              0.0000000000
      6526        57  SLPC      C28            10.5165784087        6.3999888179       -5.6393507656  MEMB      57              0.0000000000
      6527        57  SLPC      H8R            10.9486186315        7.3362169792       -6.0227483766  MEMB      57              0.0000000000
      6528        57  SLPC      H8S            10.7007125795        6.4389820288       -4.5444255371  MEMB      57              0.0000000000
      6529        57  SLPC      C29             9.0356638198        6.4148892961       -5.9412071824  MEMB      57              0.0000000000
      6530        57  SLPC      H9R             8.4422253998        5.6904265765       -5.3691435547  MEMB      57              0.0000000000
      6531        57  SLPC      C210            8.4189053215        7.0914727924       -6.9297091850  MEMB      57              0.0000000000
      6532        57  SLPC      H10R            7.3214989339        7.0252241476       -7.0078466561  MEMB      57              0.0000000000
      6533        57  SLPC      C211            9.0853042886        7.9795633446       -7.9541503541  MEMB      57              0.0000000000
      6534        57  SLPC      H11R            9.0380045989        7.4691111695       -8.9315802886  MEMB      57              0.0000000000
      6535        57  SLPC      H11S           10.1746026665        8.0490335693       -7.7708369628  MEMB      57              0.0000000000
      6536        57  SLPC      C212            8.5158433782        9.3672825880       -8.1151878020  MEMB      57              0.0000000000
      6537        57  SLPC      H12R            7.7175002952        9.4742414523       -8.8668415543  MEMB      57              0.0000000000
      6538        57  SLPC      C213            8.9312365200       10.4579526230       -7.4460902993  MEMB      57              0.0000000000
      6539        57  SLPC      H13R            8.4480116379       11.4312429862       -7.6225124881  MEMB      57              0.0000000000
      6540        57  SLPC      C214           10.0345035578       10.4546604553       -6.4271881310  MEMB      57              0.0000000000
      6541        57  SLPC      H14R           10.5908895081       11.4081087640       -6.4525473949  MEMB      57              0.0000000000
      6542        57  SLPC      H14S           10.7889291254        9.6696045961       -6.6583732143  MEMB      57              0.0000000000
      6543        57  SLPC      C215            9.5314192177       10.2243814130       -4.9977285286  MEMB      57              0.0000000000
      6544        57  SLPC      H15R            8.7083838128        9.4743631686       -4.9912105162  MEMB      57              0.0000000000
      6545        57  SLPC      H15S            9.1333123324       11.1733395258       -4.5762862196  MEMB      57              0.0000000000
      6546        57  SLPC      C216           10.6637583020        9.6769982098       -4.1303474753  MEMB      57              0.0000000000
      6547        57  SLPC      H16R           11.5370035536       10.3506231174       -4.1625422853  MEMB      57              0.0000000000
      6548        57  SLPC      H16S           11.0008919942        8.7210607224       -4.5638412726  MEMB      57              0.0000000000
      6549        57  SLPC      C217           10.2906258207        9.4512782525       -2.6741141877  MEMB      57              0.0000000000
      6550        57  SLPC      H17R            9.8478301239       10.3885836933       -2.2957692404  MEMB      57              0.0000000000
      6551        57  SLPC      H17S           11.2145916582        9.3020033817       -2.0873231162  MEMB      57              0.0000000000
      6552        57  SLPC      C218            9.3791430504        8.2435352964       -2.4609887167  MEMB      57              0.0000000000
      6553        57  SLPC      H18R            9.8557355991        7.3240750754       -2.8548974671  MEMB      57              0.0000000000
      6554        57  SLPC      H18S            8.4136245229        8.3837782970       -2.9878286384  MEMB      57              0.0000000000
      6555        57  SLPC      H18T            9.1823896036        8.0803164606       -1.3822346544  MEMB      57              0.0000000000
      6556        57  SLPC      C33            11.1208693891       12.8160590337      -10.2879588413  MEMB      57              0.0000000000
      6557        57  SLPC      H3X            10.2515093613       13.0411878288       -9.6263221072  MEMB      57              0.0000000000
      6558        57  SLPC      H3Y            11.7117226295       13.7513616087      -10.4262373179  MEMB      57              0.0000000000
      6559        57  SLPC      C34            12.0342915914       11.7933876336       -9.5898453441  MEMB      57              0.0000000000
      6560        57  SLPC      H4X            12.8891010742       11.4988889154      -10.2382695459  MEMB      57              0.0000000000
      6561        57  SLPC      H4Y            11.4448924233       10.8770389548       -9.3603016019  MEMB      57              0.0000000000
      6562        57  SLPC      C35            12.6022011818       12.3899435910       -8.2968459612  MEMB      57              0.0000000000
      6563        57  SLPC      H5X            11.7283902950       12.8354328511       -7.7759232818  MEMB      57              0.0000000000
      6564        57  SLPC      H5Y            13.3121220203       13.2134604622       -8.5029861484  MEMB      57              0.0000000000
      6565        57  SLPC      C36            13.1927912613       11.3778464405       -7.3162399859  MEMB      57              0.0000000000
      6566        57  SLPC      H6X            12.7507062151       10.3796154735       -7.5319104839  MEMB      57              0.0000000000
      6567        57  SLPC      H6Y            12.8438888270       11.6992919740       -6.3062094021  MEMB      57              0.0000000000
      6568        57  SLPC      C37            14.7250471536       11.2771272991       -7.2487301201  MEMB      57              0.0000000000
      6569        57  SLPC      H7X            15.1623894327       12.3003979103       -7.2515509226  MEMB      57              0.0000000000
      6570        57  SLPC      H7Y            15.0926174180       10.7490389284       -8.1573931174  MEMB      57              0.0000000000
      6571        57  SLPC      C38            15.1941082149       10.5316422888       -5.9762079233  MEMB      57              0.0000000000
      6572        57  SLPC      H8X            15.3097313013       11.2603802508       -5.1417110661  MEMB      57              0.0000000000
      6573        57  SLPC      H8Y            16.1840124314       10.0635305554       -6.1637940823  MEMB      57              0.0000000000
      6574        57  SLPC      C39            14.1851480893        9.4658394494       -5.5267607317  MEMB      57              0.0000000000
      6575        57  SLPC      H9X            13.9135509837        8.8446498859       -6.4052793354  MEMB      57              0.0000000000
      6576        57  SLPC      H9Y            13.2622186263        9.9745381056       -5.1780691606  MEMB      57              0.0000000000
      6577        57  SLPC      C310           14.5996382702        8.5098769500       -4.4035053835  MEMB      57              0.0000000000
      6578        57  SLPC      H10X           14.9634878681        9.0787804521       -3.5266489106  MEMB      57              0.0000000000
      6579        57  SLPC      H10Y           15.4130792390        7.8602769330       -4.7853704739  MEMB      57              0.0000000000
      6580        57  SLPC      C311           13.3775742339        7.6670746532       -3.9990975122  MEMB      57              0.0000000000
      6581        57  SLPC      H11X           12.7919504786        7.5818149651       -4.9396601866  MEMB      57              0.0000000000
      6582        57  SLPC      H11Y           12.7342013373        8.2287361718       -3.3076045285  MEMB      57              0.0000000000
      6583        57  SLPC      C312           13.6175190282        6.2232208553       -3.5276536499  MEMB      57              0.0000000000
      6584        57  SLPC      H12X           14.5738366767        5.8841824610       -3.9657281295  MEMB      57              0.0000000000
      6585        57  SLPC      H12Y           12.8222282559        5.5799212233       -3.9661451597  MEMB      57              0.0000000000
      6586        57  SLPC      C313           13.5515764737        5.9461974965       -2.0182480173  MEMB      57              0.0000000000
      6587        57  SLPC      H13X           14.3191638197        6.5459847828       -1.5041347051  MEMB      57              0.0000000000
      6588        57  SLPC      H13Y           13.8104713133        4.8758307537       -1.8572194307  MEMB      57              0.0000000000
      6589        57  SLPC      C314           12.1737014776        6.2207426553       -1.4019137417  MEMB      57              0.0000000000
      6590        57  SLPC      H14X           11.4693457732        5.4286414063       -1.7270965136  MEMB      57              0.0000000000
      6591        57  SLPC      H14Y           11.8036503040        7.1787419251       -1.8134155866  MEMB      57              0.0000000000
      6592        57  SLPC      C315           12.1785730605        6.3683443671        0.1273395800  MEMB      57              0.0000000000
      6593        57  SLPC      H15X           13.2065206952        6.6396008672        0.4482704579  MEMB      57              0.0000000000
      6594        57  SLPC      H15Y           11.9334218149        5.3896764384        0.5961471143  MEMB      57              0.0000000000
      6595        57  SLPC      C316           11.2082085033        7.4617064988        0.6207298062  MEMB      57              0.0000000000
      6596        57  SLPC      H16X           10.1724947822        7.0917737847        0.4636680422  MEMB      57              0.0000000000
      6597        57  SLPC      H16Y           11.3260588767        8.3794955387        0.0020801808  MEMB      57              0.0000000000
      6598        57  SLPC      C317           11.4023265070        7.8887380658        2.0865537685  MEMB      57              0.0000000000
      6599        57  SLPC      H17X           10.4290990391        8.2465512781        2.4945636629  MEMB      57              0.0000000000
      6600        57  SLPC      H17Y           12.0953793976        8.7559765233        2.1216241377  MEMB      57              0.0000000000
      6601        57  SLPC      C318           11.9582740475        6.7891829220        2.9844617721  MEMB      57              0.0000000000
      6602        57  SLPC      H18X           11.9270536228        7.0815156430        4.0541437693  MEMB      57              0.0000000000
      6603        57  SLPC      H18Y           13.0134575544        6.5612349630        2.7173910380  MEMB      57              0.0000000000
      6604        57  SLPC      H18Z           11.3556104139        5.8721413594        2.8414375316  MEMB      57              0.0000000000
      6605        58  SAPE      N             -13.9109459403        7.2847275018      -18.3852779839  MEMB      58              0.0000000000
      6606        58  SAPE      HN1           -14.8006585805        7.6574604785      -18.7790384963  MEMB      58              0.0000000000
      6607        58  SAPE      HN2           -13.5205436324        6.6042712844      -19.0857781028  MEMB      58              0.0000000000
      6608        58  SAPE      HN3           -14.0398681588        6.8580191972      -17.4508877326  MEMB      58              0.0000000000
      6609        58  SAPE      C12           -12.8679318260        8.3607519844      -18.4143398684  MEMB      58              0.0000000000
      6610        58  SAPE      H12A          -11.9565355115        7.9763897581      -17.9076333996  MEMB      58              0.0000000000
      6611        58  SAPE      H12B          -13.2441709556        9.2645654456      -17.8963250902  MEMB      58              0.0000000000
      6612        58  SAPE      C11           -12.5725197070        8.6034639942      -19.8907338237  MEMB      58              0.0000000000
      6613        58  SAPE      H11A          -11.6901464820        9.2805056960      -20.0076913134  MEMB      58              0.0000000000
      6614        58  SAPE      H11B          -13.4370204285        9.1293173259      -20.3584776865  MEMB      58              0.0000000000
      6615        58  SAPE      P             -10.9789225500        6.8115239750      -20.9853501476  MEMB      58              0.0000000000
      6616        58  SAPE      O13           -11.0257127717        5.3519083650      -20.7739311560  MEMB      58              0.0000000000
      6617        58  SAPE      O14           -10.6753706858        7.3137881241      -22.3465308301  MEMB      58              0.0000000000
      6618        58  SAPE      O12           -12.4095715622        7.3429605994      -20.5430205427  MEMB      58              0.0000000000
      6619        58  SAPE      O11           -10.0363924000        7.4964761293      -19.9147658934  MEMB      58              0.0000000000
      6620        58  SAPE      C1             -8.8129113502        6.8626964036      -19.5269605050  MEMB      58              0.0000000000
      6621        58  SAPE      HA             -8.5467313564        5.9885914002      -20.1682683956  MEMB      58              0.0000000000
      6622        58  SAPE      HB             -7.9880744310        7.5886513902      -19.6514373191  MEMB      58              0.0000000000
      6623        58  SAPE      C2             -8.8454386796        6.3641964780      -18.0528376053  MEMB      58              0.0000000000
      6624        58  SAPE      HS             -7.9039451966        5.7881282564      -17.8726649889  MEMB      58              0.0000000000
      6625        58  SAPE      O21           -10.0341943329        5.5799359343      -17.8252129934  MEMB      58              0.0000000000
      6626        58  SAPE      C21            -9.8726008699        4.3026025864      -18.0805974845  MEMB      58              0.0000000000
      6627        58  SAPE      O22            -8.8308678519        3.7262816841      -18.3329091119  MEMB      58              0.0000000000
      6628        58  SAPE      C22           -11.2256601717        3.5898228321      -18.0342650983  MEMB      58              0.0000000000
      6629        58  SAPE      H2R           -12.0427163054        4.3320938023      -17.9781886556  MEMB      58              0.0000000000
      6630        58  SAPE      H2S           -11.3065537166        3.0599899635      -19.0078144314  MEMB      58              0.0000000000
      6631        58  SAPE      C3             -8.8283003409        7.5241745756      -17.0187934720  MEMB      58              0.0000000000
      6632        58  SAPE      HX             -9.4868243252        8.3285974360      -17.4119013749  MEMB      58              0.0000000000
      6633        58  SAPE      HY             -7.8075360370        7.9503371701      -16.9676820253  MEMB      58              0.0000000000
      6634        58  SAPE      O31            -9.2843928912        7.1493635124      -15.6946527203  MEMB      58              0.0000000000
      6635        58  SAPE      C31            -8.4711267122        6.3274430360      -15.0287631395  MEMB      58              0.0000000000
      6636        58  SAPE      O32            -7.5325172831        5.7074240887      -15.4822263001  MEMB      58              0.0000000000
      6637        58  SAPE      C32            -8.7996110569        6.3848038154      -13.5458904548  MEMB      58              0.0000000000
      6638        58  SAPE      H2X            -8.5343374714        5.4072050769      -13.1002957249  MEMB      58              0.0000000000
      6639        58  SAPE      H2Y            -9.8878378735        6.5537933437      -13.4395559250  MEMB      58              0.0000000000
      6640        58  SAPE      C23           -11.2655486432        2.5804366836      -16.8694762335  MEMB      58              0.0000000000
      6641        58  SAPE      H3R           -10.3097087686        2.0101676082      -16.8320492802  MEMB      58              0.0000000000
      6642        58  SAPE      H3S           -12.0568738862        1.8295919647      -17.0632929649  MEMB      58              0.0000000000
      6643        58  SAPE      C24           -11.5252626048        3.2854769557      -15.5252732129  MEMB      58              0.0000000000
      6644        58  SAPE      H4R           -12.4164702315        3.9390825599      -15.6446999857  MEMB      58              0.0000000000
      6645        58  SAPE      H4S           -10.6594718825        3.9561056575      -15.3143420577  MEMB      58              0.0000000000
      6646        58  SAPE      C25           -11.7498122447        2.3193805138      -14.3908486844  MEMB      58              0.0000000000
      6647        58  SAPE      H5R           -12.0523892568        1.3028932973      -14.6866435949  MEMB      58              0.0000000000
      6648        58  SAPE      C26           -11.5775738077        2.5841560664      -13.0825370104  MEMB      58              0.0000000000
      6649        58  SAPE      H6R           -11.7535649935        1.7658062231      -12.3654771230  MEMB      58              0.0000000000
      6650        58  SAPE      C27           -11.1275678693        3.8985863262      -12.4792628430  MEMB      58              0.0000000000
      6651        58  SAPE      H7R           -11.5620712277        4.7605689949      -13.0345149380  MEMB      58              0.0000000000
      6652        58  SAPE      H7S           -10.0269274491        3.9675131060      -12.6105327520  MEMB      58              0.0000000000
      6653        58  SAPE      C28           -11.4292432898        4.0095025846      -10.9999609534  MEMB      58              0.0000000000
      6654        58  SAPE      H8R           -11.5225557538        3.0444068636      -10.4760509795  MEMB      58              0.0000000000
      6655        58  SAPE      C29           -11.5337795425        5.1270827088      -10.2484868384  MEMB      58              0.0000000000
      6656        58  SAPE      H9R           -11.7414793492        5.0034562524       -9.1744110057  MEMB      58              0.0000000000
      6657        58  SAPE      C210          -11.3774137660        6.5716922768      -10.6652166144  MEMB      58              0.0000000000
      6658        58  SAPE      H10R          -10.9422583087        6.6435374471      -11.6806216920  MEMB      58              0.0000000000
      6659        58  SAPE      H10S          -10.6183052487        7.0357557131       -9.9935295042  MEMB      58              0.0000000000
      6660        58  SAPE      C211          -12.6429722408        7.3981930094      -10.6251489704  MEMB      58              0.0000000000
      6661        58  SAPE      H11R          -13.1929458579        7.4557026827      -11.5783405637  MEMB      58              0.0000000000
      6662        58  SAPE      C212          -13.1534105036        8.0456093086       -9.5578575215  MEMB      58              0.0000000000
      6663        58  SAPE      H12R          -14.0895330007        8.6102337377       -9.6840291321  MEMB      58              0.0000000000
      6664        58  SAPE      C213          -12.5823005735        8.0890572241       -8.1624072318  MEMB      58              0.0000000000
      6665        58  SAPE      H13R          -12.2445579326        7.0645802123       -7.8881496553  MEMB      58              0.0000000000
      6666        58  SAPE      H13S          -13.3971447822        8.3248314058       -7.4435485616  MEMB      58              0.0000000000
      6667        58  SAPE      C214          -11.4865694008        9.1059004530       -7.9500712405  MEMB      58              0.0000000000
      6668        58  SAPE      H14R          -11.5628713129       10.0271676616       -8.5510962385  MEMB      58              0.0000000000
      6669        58  SAPE      C215          -10.4932716562        8.9853690226       -7.0494964518  MEMB      58              0.0000000000
      6670        58  SAPE      H15R           -9.7523016885        9.7945944783       -6.9526062521  MEMB      58              0.0000000000
      6671        58  SAPE      C216          -10.3050229230        7.8235029023       -6.1040106628  MEMB      58              0.0000000000
      6672        58  SAPE      H16R           -9.4263428306        7.2333594027       -6.4405826318  MEMB      58              0.0000000000
      6673        58  SAPE      H16S          -11.1764010680        7.1324587404       -6.1152890882  MEMB      58              0.0000000000
      6674        58  SAPE      C217          -10.0970157983        8.2247949399       -4.6276039169  MEMB      58              0.0000000000
      6675        58  SAPE      H17R          -10.9543873615        8.8262801069       -4.2696102351  MEMB      58              0.0000000000
      6676        58  SAPE      H17S           -9.1919958477        8.8511773781       -4.5422218997  MEMB      58              0.0000000000
      6677        58  SAPE      C218          -10.0303855576        7.0030206359       -3.7036286652  MEMB      58              0.0000000000
      6678        58  SAPE      H18R           -9.4098895467        6.2172881560       -4.1791950675  MEMB      58              0.0000000000
      6679        58  SAPE      H18S          -11.0626364380        6.5992321160       -3.6500102988  MEMB      58              0.0000000000
      6680        58  SAPE      C219           -9.4899129607        7.2036914773       -2.2725817476  MEMB      58              0.0000000000
      6681        58  SAPE      H19R           -8.3798087724        7.2757155131       -2.2924404146  MEMB      58              0.0000000000
      6682        58  SAPE      H19S           -9.7368241414        6.2584509592       -1.7396827212  MEMB      58              0.0000000000
      6683        58  SAPE      C220          -10.0526991220        8.3643439832       -1.4454736026  MEMB      58              0.0000000000
      6684        58  SAPE      H20R           -9.4803339020        9.2975571337       -1.6262859375  MEMB      58              0.0000000000
      6685        58  SAPE      H20S           -9.9720245839        8.1310775065       -0.3617170516  MEMB      58              0.0000000000
      6686        58  SAPE      H20T          -11.1227799187        8.5422894588       -1.6838016431  MEMB      58              0.0000000000
      6687        58  SAPE      C33            -8.0014089034        7.5184088960      -12.8670740772  MEMB      58              0.0000000000
      6688        58  SAPE      H3X            -8.4186678942        7.6948102140      -11.8506947046  MEMB      58              0.0000000000
      6689        58  SAPE      H3Y            -8.1564834109        8.4605466931      -13.4401308567  MEMB      58              0.0000000000
      6690        58  SAPE      C34            -6.4850906694        7.2545612058      -12.7484858247  MEMB      58              0.0000000000
      6691        58  SAPE      H4X            -6.0159039866        8.0946395289      -12.1914755992  MEMB      58              0.0000000000
      6692        58  SAPE      H4Y            -6.0176702787        7.2468363654      -13.7610328161  MEMB      58              0.0000000000
      6693        58  SAPE      C35            -6.0753286997        5.9659302862      -12.0207719182  MEMB      58              0.0000000000
      6694        58  SAPE      H5X            -4.9848467207        6.0448286000      -11.8001504509  MEMB      58              0.0000000000
      6695        58  SAPE      H5Y            -6.2088862101        5.0931455283      -12.6990323064  MEMB      58              0.0000000000
      6696        58  SAPE      C36            -6.8235737754        5.7184847891      -10.7022721190  MEMB      58              0.0000000000
      6697        58  SAPE      H6X            -7.7210635907        5.0939822589      -10.9149139210  MEMB      58              0.0000000000
      6698        58  SAPE      H6Y            -7.1768078140        6.6817808952      -10.2718349277  MEMB      58              0.0000000000
      6699        58  SAPE      C37            -5.9338388027        5.0212262095       -9.6665673882  MEMB      58              0.0000000000
      6700        58  SAPE      H7X            -5.2218204012        5.7598346332       -9.2333204287  MEMB      58              0.0000000000
      6701        58  SAPE      H7Y            -5.3347132370        4.2472382385      -10.1975900730  MEMB      58              0.0000000000
      6702        58  SAPE      C38            -6.7253501917        4.3407834786       -8.5415727927  MEMB      58              0.0000000000
      6703        58  SAPE      H8X            -6.0422092132        3.6594060100       -7.9853473419  MEMB      58              0.0000000000
      6704        58  SAPE      H8Y            -7.5381241758        3.7296600314       -8.9805570704  MEMB      58              0.0000000000
      6705        58  SAPE      C39            -7.3536436726        5.3284654717       -7.5605767518  MEMB      58              0.0000000000
      6706        58  SAPE      H9X            -8.0709962943        5.9868552108       -8.1003245774  MEMB      58              0.0000000000
      6707        58  SAPE      H9Y            -6.5283879527        5.9659934427       -7.1747243662  MEMB      58              0.0000000000
      6708        58  SAPE      C310           -8.0612607942        4.6602821177       -6.3695514046  MEMB      58              0.0000000000
      6709        58  SAPE      H10X           -8.1488352452        5.4261029914       -5.5700987876  MEMB      58              0.0000000000
      6710        58  SAPE      H10Y           -7.4208106901        3.8433328226       -5.9710082245  MEMB      58              0.0000000000
      6711        58  SAPE      C311           -9.4716340982        4.1327720932       -6.7045978764  MEMB      58              0.0000000000
      6712        58  SAPE      H11X           -9.3617317408        3.2090683396       -7.3137779014  MEMB      58              0.0000000000
      6713        58  SAPE      H11Y           -9.9866147595        4.8984412651       -7.3305582295  MEMB      58              0.0000000000
      6714        58  SAPE      C312          -10.3886182839        3.8509865532       -5.4929702992  MEMB      58              0.0000000000
      6715        58  SAPE      H12X          -11.2526894806        3.2310022439       -5.8209956230  MEMB      58              0.0000000000
      6716        58  SAPE      H12Y          -10.8117281994        4.8162065485       -5.1404119958  MEMB      58              0.0000000000
      6717        58  SAPE      C313           -9.6980288506        3.1649695050       -4.3063065524  MEMB      58              0.0000000000
      6718        58  SAPE      H13X           -8.7545388079        3.7015670775       -4.0629331554  MEMB      58              0.0000000000
      6719        58  SAPE      H13Y           -9.4327612538        2.1245469525       -4.5875921343  MEMB      58              0.0000000000
      6720        58  SAPE      C314          -10.5332486685        3.1579059602       -3.0145717846  MEMB      58              0.0000000000
      6721        58  SAPE      H14X          -11.4478394547        2.5417778310       -3.1570020794  MEMB      58              0.0000000000
      6722        58  SAPE      H14Y          -10.8527634868        4.1973515107       -2.7808099603  MEMB      58              0.0000000000
      6723        58  SAPE      C315           -9.7134709092        2.6054226576       -1.8378561337  MEMB      58              0.0000000000
      6724        58  SAPE      H15X           -8.7393668257        3.1353119725       -1.7843054057  MEMB      58              0.0000000000
      6725        58  SAPE      H15Y           -9.4797695129        1.5422922630       -2.0731005245  MEMB      58              0.0000000000
      6726        58  SAPE      C316          -10.4221882694        2.6473326337       -0.4702203261  MEMB      58              0.0000000000
      6727        58  SAPE      H16X           -9.9654283113        1.8546560567        0.1607619257  MEMB      58              0.0000000000
      6728        58  SAPE      H16Y          -11.4920591309        2.3710738024       -0.6001972042  MEMB      58              0.0000000000
      6729        58  SAPE      C317          -10.3313207686        3.9737809596        0.3164050588  MEMB      58              0.0000000000
      6730        58  SAPE      H17X          -10.6956999115        3.7785308487        1.3523306717  MEMB      58              0.0000000000
      6731        58  SAPE      H17Y          -11.0330659044        4.6990038987       -0.1385230963  MEMB      58              0.0000000000
      6732        58  SAPE      C318           -8.9541585725        4.6428035786        0.4138430384  MEMB      58              0.0000000000
      6733        58  SAPE      H18X           -8.5675099390        4.9248690563       -0.5868323603  MEMB      58              0.0000000000
      6734        58  SAPE      H18Y           -8.2288574604        3.9606451633        0.8889582666  MEMB      58              0.0000000000
      6735        58  SAPE      H18Z           -9.0094971803        5.5619141879        1.0349125063  MEMB      58              0.0000000000
      6736        59  SAPE      N               0.8190877545      -12.1153527257      -19.0018892837  MEMB      59              0.0000000000
      6737        59  SAPE      HN1             1.8063964333      -12.3727273242      -19.2253373577  MEMB      59              0.0000000000
      6738        59  SAPE      HN2             0.7584851533      -11.1901642378      -18.5350686837  MEMB      59              0.0000000000
      6739        59  SAPE      HN3             0.4643026490      -12.8957841714      -18.4134060130  MEMB      59              0.0000000000
      6740        59  SAPE      C12             0.1075577604      -12.1302030627      -20.3207493010  MEMB      59              0.0000000000
      6741        59  SAPE      H12A            0.4909139013      -11.2918814946      -20.9401798430  MEMB      59              0.0000000000
      6742        59  SAPE      H12B           -0.9711021991      -11.9785934591      -20.1362364838  MEMB      59              0.0000000000
      6743        59  SAPE      C11             0.4291285519      -13.4614841632      -21.0008197848  MEMB      59              0.0000000000
      6744        59  SAPE      H11A           -0.0188762732      -13.4614753183      -22.0216433028  MEMB      59              0.0000000000
      6745        59  SAPE      H11B           -0.0744860612      -14.2904594327      -20.4483074918  MEMB      59              0.0000000000
      6746        59  SAPE      P               2.6451833570      -14.7514102298      -20.3389889760  MEMB      59              0.0000000000
      6747        59  SAPE      O13             1.7901651102      -15.9238213777      -20.0861201862  MEMB      59              0.0000000000
      6748        59  SAPE      O14             3.9296185178      -14.9473477356      -21.0557227008  MEMB      59              0.0000000000
      6749        59  SAPE      O12             1.8496304814      -13.6139640503      -21.0909041490  MEMB      59              0.0000000000
      6750        59  SAPE      O11             2.9755289131      -14.0331182864      -18.9406588981  MEMB      59              0.0000000000
      6751        59  SAPE      C1              4.3541703075      -14.1928132512      -18.4936833062  MEMB      59              0.0000000000
      6752        59  SAPE      HA              4.9287649543      -15.0185501794      -18.9958101503  MEMB      59              0.0000000000
      6753        59  SAPE      HB              4.8911758230      -13.2398666329      -18.6873543945  MEMB      59              0.0000000000
      6754        59  SAPE      C2              4.5174501595      -14.5444776413      -16.9882643316  MEMB      59              0.0000000000
      6755        59  SAPE      HS              4.2166521875      -15.6122458944      -16.8480720106  MEMB      59              0.0000000000
      6756        59  SAPE      O21             3.7453014964      -13.6219848636      -16.2147030064  MEMB      59              0.0000000000
      6757        59  SAPE      C21             2.6626635157      -14.1256750057      -15.6901536791  MEMB      59              0.0000000000
      6758        59  SAPE      O22             2.2967983033      -15.2859512478      -15.7259370287  MEMB      59              0.0000000000
      6759        59  SAPE      C22             1.9070486419      -12.9730494173      -15.0697834645  MEMB      59              0.0000000000
      6760        59  SAPE      H2R             2.5499024399      -12.5248500752      -14.2868579155  MEMB      59              0.0000000000
      6761        59  SAPE      H2S             1.7339601070      -12.2148679378      -15.8584464786  MEMB      59              0.0000000000
      6762        59  SAPE      C3              5.9958864798      -14.4328303911      -16.5251804001  MEMB      59              0.0000000000
      6763        59  SAPE      HX              6.4175585405      -13.5425065819      -17.0513815384  MEMB      59              0.0000000000
      6764        59  SAPE      HY              6.5576697742      -15.3226034760      -16.8789724630  MEMB      59              0.0000000000
      6765        59  SAPE      O31             6.0692676508      -14.3489563261      -15.0786578505  MEMB      59              0.0000000000
      6766        59  SAPE      C31             6.6721267491      -13.2684518231      -14.6088946083  MEMB      59              0.0000000000
      6767        59  SAPE      O32             7.2966479013      -12.4576707368      -15.2633145006  MEMB      59              0.0000000000
      6768        59  SAPE      C32             6.3651341971      -13.1160195600      -13.1268346371  MEMB      59              0.0000000000
      6769        59  SAPE      H2X             6.3159859358      -14.1159388370      -12.6517444657  MEMB      59              0.0000000000
      6770        59  SAPE      H2Y             5.3645478261      -12.6389661028      -13.0564168271  MEMB      59              0.0000000000
      6771        59  SAPE      C23             0.5574171824      -13.4308094878      -14.4950429221  MEMB      59              0.0000000000
      6772        59  SAPE      H3R             0.6975004938      -14.0243343727      -13.5639813444  MEMB      59              0.0000000000
      6773        59  SAPE      H3S             0.0532228692      -14.1149568287      -15.2196015314  MEMB      59              0.0000000000
      6774        59  SAPE      C24            -0.3802568520      -12.2378541926      -14.2630365744  MEMB      59              0.0000000000
      6775        59  SAPE      H4R            -1.4066868947      -12.6494639295      -14.1331639286  MEMB      59              0.0000000000
      6776        59  SAPE      H4S            -0.4148542880      -11.6648520351      -15.2164428660  MEMB      59              0.0000000000
      6777        59  SAPE      C25            -0.0909527895      -11.2886117657      -13.1232545463  MEMB      59              0.0000000000
      6778        59  SAPE      H5R            -0.6644404957      -10.3587701427      -13.2236390208  MEMB      59              0.0000000000
      6779        59  SAPE      C26             0.6927174333      -11.3756484600      -12.0245466219  MEMB      59              0.0000000000
      6780        59  SAPE      H6R             0.6383217061      -10.5268785016      -11.3285404398  MEMB      59              0.0000000000
      6781        59  SAPE      C27             1.5935222446      -12.4799634151      -11.5132428353  MEMB      59              0.0000000000
      6782        59  SAPE      H7R             2.1104331093      -12.9993803626      -12.3394992661  MEMB      59              0.0000000000
      6783        59  SAPE      H7S             0.9776731446      -13.2663193414      -11.0279999949  MEMB      59              0.0000000000
      6784        59  SAPE      C28             2.6511189820      -12.0059203932      -10.5414461211  MEMB      59              0.0000000000
      6785        59  SAPE      H8R             3.6715486220      -11.9774348705      -10.9554121195  MEMB      59              0.0000000000
      6786        59  SAPE      C29             2.4636115139      -11.6347898955       -9.2552634926  MEMB      59              0.0000000000
      6787        59  SAPE      H9R             3.3315874260      -11.3277262550       -8.6515216059  MEMB      59              0.0000000000
      6788        59  SAPE      C210            1.1630451661      -11.6063901963       -8.4942582036  MEMB      59              0.0000000000
      6789        59  SAPE      H10R            0.2965763443      -11.7023913107       -9.1836418930  MEMB      59              0.0000000000
      6790        59  SAPE      H10S            1.0606216146      -10.6135252657       -8.0049897517  MEMB      59              0.0000000000
      6791        59  SAPE      C211            1.0898966990      -12.7098387581       -7.4708322323  MEMB      59              0.0000000000
      6792        59  SAPE      H11R            1.6581658117      -13.6245639135       -7.7109356783  MEMB      59              0.0000000000
      6793        59  SAPE      C212            0.3599195695      -12.6927982712       -6.3419505134  MEMB      59              0.0000000000
      6794        59  SAPE      H12R            0.4469480642      -13.5527147387       -5.6639023886  MEMB      59              0.0000000000
      6795        59  SAPE      C213           -0.5350822430      -11.5779605990       -5.8472871137  MEMB      59              0.0000000000
      6796        59  SAPE      H13R           -1.5821886796      -11.8504648442       -6.1044877331  MEMB      59              0.0000000000
      6797        59  SAPE      H13S           -0.3363544933      -10.6308181881       -6.3945700752  MEMB      59              0.0000000000
      6798        59  SAPE      C214           -0.4780296111      -11.2939363787       -4.3618825531  MEMB      59              0.0000000000
      6799        59  SAPE      H14R           -1.4514473517      -11.3255482868       -3.8478628583  MEMB      59              0.0000000000
      6800        59  SAPE      C215            0.6259319639      -11.0394378382       -3.6329795242  MEMB      59              0.0000000000
      6801        59  SAPE      H15R            0.5300232323      -10.8437476870       -2.5528394818  MEMB      59              0.0000000000
      6802        59  SAPE      C216            2.0305120003      -10.9939152396       -4.1775498877  MEMB      59              0.0000000000
      6803        59  SAPE      H16R            2.1943026410      -10.0737802496       -4.7833905367  MEMB      59              0.0000000000
      6804        59  SAPE      H16S            2.2363740200      -11.8591259566       -4.8444689887  MEMB      59              0.0000000000
      6805        59  SAPE      C217            3.0868589733      -11.0712097315       -3.0726284600  MEMB      59              0.0000000000
      6806        59  SAPE      H17R            4.0610651389      -11.2738123348       -3.5709414997  MEMB      59              0.0000000000
      6807        59  SAPE      H17S            2.8993379073      -11.9296094390       -2.3947839742  MEMB      59              0.0000000000
      6808        59  SAPE      C218            3.2076646814       -9.7605359164       -2.2923619028  MEMB      59              0.0000000000
      6809        59  SAPE      H18R            2.3435308405       -9.6181139667       -1.6080391015  MEMB      59              0.0000000000
      6810        59  SAPE      H18S            3.1643531984       -8.9486746841       -3.0356225866  MEMB      59              0.0000000000
      6811        59  SAPE      C219            4.5151420673       -9.6740490820       -1.5079356537  MEMB      59              0.0000000000
      6812        59  SAPE      H19R            5.1853142091      -10.4951796428       -1.8395382740  MEMB      59              0.0000000000
      6813        59  SAPE      H19S            4.2258644996       -9.8197401282       -0.4480053272  MEMB      59              0.0000000000
      6814        59  SAPE      C220            5.3269065489       -8.3901101337       -1.5965356358  MEMB      59              0.0000000000
      6815        59  SAPE      H20R            5.5145586364       -8.1118536378       -2.6536921529  MEMB      59              0.0000000000
      6816        59  SAPE      H20S            6.3142685218       -8.4866755105       -1.0949766390  MEMB      59              0.0000000000
      6817        59  SAPE      H20T            4.7686154462       -7.5891950238       -1.0774361073  MEMB      59              0.0000000000
      6818        59  SAPE      C33             7.4095696464      -12.2247799784      -12.4224256955  MEMB      59              0.0000000000
      6819        59  SAPE      H3X             7.6765342829      -11.3427855880      -13.0524511870  MEMB      59              0.0000000000
      6820        59  SAPE      H3Y             8.3293613767      -12.8228183145      -12.2432604438  MEMB      59              0.0000000000
      6821        59  SAPE      C34             6.9272534979      -11.7032427657      -11.0743495925  MEMB      59              0.0000000000
      6822        59  SAPE      H4X             6.0333670907      -11.0546404691      -11.2133920366  MEMB      59              0.0000000000
      6823        59  SAPE      H4Y             7.7329990045      -11.0784642076      -10.6253045711  MEMB      59              0.0000000000
      6824        59  SAPE      C35             6.5939171901      -12.8412059103      -10.1137582774  MEMB      59              0.0000000000
      6825        59  SAPE      H5X             7.4885348451      -13.4919925803       -9.9910035133  MEMB      59              0.0000000000
      6826        59  SAPE      H5Y             5.7698159298      -13.4572352196      -10.5343974433  MEMB      59              0.0000000000
      6827        59  SAPE      C36             6.1854406608      -12.2860375637       -8.7562036085  MEMB      59              0.0000000000
      6828        59  SAPE      H6X             5.3237776300      -11.6022302804       -8.8979195666  MEMB      59              0.0000000000
      6829        59  SAPE      H6Y             7.0328485661      -11.6829829764       -8.3636402747  MEMB      59              0.0000000000
      6830        59  SAPE      C37             5.8427067338      -13.3454880972       -7.7053966437  MEMB      59              0.0000000000
      6831        59  SAPE      H7X             5.4948891966      -12.7990226621       -6.7988593360  MEMB      59              0.0000000000
      6832        59  SAPE      H7Y             6.7717598178      -13.8950118532       -7.4363311208  MEMB      59              0.0000000000
      6833        59  SAPE      C38             4.7654846363      -14.3509613167       -8.1428453494  MEMB      59              0.0000000000
      6834        59  SAPE      H8X             5.0763601392      -14.8608421377       -9.0817927381  MEMB      59              0.0000000000
      6835        59  SAPE      H8Y             3.8265658704      -13.8004753858       -8.3551301051  MEMB      59              0.0000000000
      6836        59  SAPE      C39             4.4826371016      -15.4576878271       -7.1194402661  MEMB      59              0.0000000000
      6837        59  SAPE      H9X             5.3199283283      -16.1860390798       -7.1509230802  MEMB      59              0.0000000000
      6838        59  SAPE      H9Y             3.5570271203      -16.0048277597       -7.4085864792  MEMB      59              0.0000000000
      6839        59  SAPE      C310            4.3825293157      -14.9855127450       -5.6720445153  MEMB      59              0.0000000000
      6840        59  SAPE      H10X            3.4699921571      -14.3654056720       -5.5280203686  MEMB      59              0.0000000000
      6841        59  SAPE      H10Y            5.2633209134      -14.3618692091       -5.3993116229  MEMB      59              0.0000000000
      6842        59  SAPE      C311            4.3841781160      -16.1717147935       -4.7165315074  MEMB      59              0.0000000000
      6843        59  SAPE      H11X            5.2984395456      -16.7916290085       -4.8752367396  MEMB      59              0.0000000000
      6844        59  SAPE      H11Y            3.4992747729      -16.8167777177       -4.9148016439  MEMB      59              0.0000000000
      6845        59  SAPE      C312            4.3673857335      -15.6865977197       -3.2757302335  MEMB      59              0.0000000000
      6846        59  SAPE      H12X            3.5734802478      -14.9141610073       -3.1651775506  MEMB      59              0.0000000000
      6847        59  SAPE      H12Y            5.3457448914      -15.2100242095       -3.0333238139  MEMB      59              0.0000000000
      6848        59  SAPE      C313            4.1307262641      -16.8493474933       -2.3234949062  MEMB      59              0.0000000000
      6849        59  SAPE      H13X            4.9579992677      -17.5742826921       -2.4813329232  MEMB      59              0.0000000000
      6850        59  SAPE      H13Y            3.1748102839      -17.3640615618       -2.5677125816  MEMB      59              0.0000000000
      6851        59  SAPE      C314            4.1415443095      -16.4122478471       -0.8645071337  MEMB      59              0.0000000000
      6852        59  SAPE      H14X            5.1015344151      -15.8886444830       -0.6621689949  MEMB      59              0.0000000000
      6853        59  SAPE      H14Y            4.1157403526      -17.3186892553       -0.2205933544  MEMB      59              0.0000000000
      6854        59  SAPE      C315            2.9569859677      -15.5135740182       -0.4960176895  MEMB      59              0.0000000000
      6855        59  SAPE      H15X            2.8487749042      -14.6529597892       -1.1885580667  MEMB      59              0.0000000000
      6856        59  SAPE      H15Y            3.1385322244      -15.0827740594        0.5049797754  MEMB      59              0.0000000000
      6857        59  SAPE      C316            1.6615523859      -16.3089502223       -0.4027715570  MEMB      59              0.0000000000
      6858        59  SAPE      H16X            1.8438212475      -17.1523624240        0.3051426501  MEMB      59              0.0000000000
      6859        59  SAPE      H16Y            1.3914984133      -16.7439277258       -1.3886875514  MEMB      59              0.0000000000
      6860        59  SAPE      C317            0.4985742871      -15.4749642107        0.1247640977  MEMB      59              0.0000000000
      6861        59  SAPE      H17X            0.0001730354      -14.9555845036       -0.7242718470  MEMB      59              0.0000000000
      6862        59  SAPE      H17Y            0.8796973283      -14.6838204855        0.8021665703  MEMB      59              0.0000000000
      6863        59  SAPE      C318           -0.4861054025      -16.3464148577        0.8920645538  MEMB      59              0.0000000000
      6864        59  SAPE      H18X           -0.0089942295      -16.7649092518        1.8043403767  MEMB      59              0.0000000000
      6865        59  SAPE      H18Y           -0.8001820720      -17.1907630001        0.2447749419  MEMB      59              0.0000000000
      6866        59  SAPE      H18Z           -1.3845138856      -15.7695726505        1.1908330328  MEMB      59              0.0000000000
      6867        60  SOPE      N              11.7310147744       -3.3940339296      -23.1832851219  MEMB      60              0.0000000000
      6868        60  SOPE      HN1            12.3212670404       -3.3057476549      -24.0395218270  MEMB      60              0.0000000000
      6869        60  SOPE      HN2            10.7670513495       -3.0383723124      -23.3849471177  MEMB      60              0.0000000000
      6870        60  SOPE      HN3            12.2003411188       -2.8662181277      -22.4186117658  MEMB      60              0.0000000000
      6871        60  SOPE      C12            11.7602823706       -4.8274834656      -22.7345061072  MEMB      60              0.0000000000
      6872        60  SOPE      H12A           11.0805733288       -5.4134089718      -23.3843934304  MEMB      60              0.0000000000
      6873        60  SOPE      H12B           11.3975894601       -4.8680073892      -21.6845809538  MEMB      60              0.0000000000
      6874        60  SOPE      C11            13.2068682230       -5.3424630834      -22.8389865603  MEMB      60              0.0000000000
      6875        60  SOPE      H11A           13.4931963299       -5.3798670665      -23.9155814094  MEMB      60              0.0000000000
      6876        60  SOPE      H11B           13.2637536418       -6.3936351025      -22.4678552365  MEMB      60              0.0000000000
      6877        60  SOPE      P              14.4698877348       -4.6362881774      -20.6339542115  MEMB      60              0.0000000000
      6878        60  SOPE      O13            15.7532433049       -3.9468254854      -20.4218378555  MEMB      60              0.0000000000
      6879        60  SOPE      O14            14.3724264240       -6.0714365848      -20.2988717174  MEMB      60              0.0000000000
      6880        60  SOPE      O12            14.1319287703       -4.4738164976      -22.1755019792  MEMB      60              0.0000000000
      6881        60  SOPE      O11            13.2707892843       -3.8445205386      -19.9526667155  MEMB      60              0.0000000000
      6882        60  SOPE      C1             13.1929460315       -2.4177051489      -20.0155955701  MEMB      60              0.0000000000
      6883        60  SOPE      HA             12.1375739306       -2.1223598752      -20.1988983293  MEMB      60              0.0000000000
      6884        60  SOPE      HB             13.8105746515       -2.0178730511      -20.8549084913  MEMB      60              0.0000000000
      6885        60  SOPE      C2             13.6559194859       -1.6492632648      -18.7296776178  MEMB      60              0.0000000000
      6886        60  SOPE      HS             13.9380346532       -0.6278314350      -19.0889824851  MEMB      60              0.0000000000
      6887        60  SOPE      O21            14.7676017914       -2.3215525325      -18.0876598707  MEMB      60              0.0000000000
      6888        60  SOPE      C21            15.4963831016       -1.4827157625      -17.3555556275  MEMB      60              0.0000000000
      6889        60  SOPE      O22            15.2233462431       -0.3033405378      -17.1967169685  MEMB      60              0.0000000000
      6890        60  SOPE      C22            16.7522889013       -2.1588413731      -16.8003185893  MEMB      60              0.0000000000
      6891        60  SOPE      H2R            17.6234968772       -1.6064170585      -17.2118158138  MEMB      60              0.0000000000
      6892        60  SOPE      H2S            16.7938044647       -3.2068435319      -17.1606407575  MEMB      60              0.0000000000
      6893        60  SOPE      C3             12.4800700243       -1.4588021607      -17.7069514972  MEMB      60              0.0000000000
      6894        60  SOPE      HX             11.6784550590       -0.9237145165      -18.2627610357  MEMB      60              0.0000000000
      6895        60  SOPE      HY             12.7960813059       -0.7603763099      -16.8977683225  MEMB      60              0.0000000000
      6896        60  SOPE      O31            11.9193174669       -2.6886062799      -17.1898960722  MEMB      60              0.0000000000
      6897        60  SOPE      C31            12.5352387585       -3.1511840997      -16.0989272904  MEMB      60              0.0000000000
      6898        60  SOPE      O32            13.4333290000       -2.5877213174      -15.5033409416  MEMB      60              0.0000000000
      6899        60  SOPE      C32            11.8351595925       -4.4142092874      -15.6012187875  MEMB      60              0.0000000000
      6900        60  SOPE      H2X            10.8362286128       -4.4868573798      -16.0756060117  MEMB      60              0.0000000000
      6901        60  SOPE      H2Y            11.6868217350       -4.2891640193      -14.5087776201  MEMB      60              0.0000000000
      6902        60  SOPE      C23            16.8189813623       -2.1175501779      -15.2542132148  MEMB      60              0.0000000000
      6903        60  SOPE      H3R            15.9824248552       -2.7404685279      -14.8644904782  MEMB      60              0.0000000000
      6904        60  SOPE      H3S            16.6751403340       -1.0755201071      -14.8884533708  MEMB      60              0.0000000000
      6905        60  SOPE      C24            18.1650758607       -2.6421729535      -14.7294601950  MEMB      60              0.0000000000
      6906        60  SOPE      H4R            18.3739855431       -3.6245798236      -15.2113052534  MEMB      60              0.0000000000
      6907        60  SOPE      H4S            18.9680347098       -1.9412121274      -15.0482750741  MEMB      60              0.0000000000
      6908        60  SOPE      C25            18.2132656173       -2.8243022080      -13.1990307830  MEMB      60              0.0000000000
      6909        60  SOPE      H5R            19.2383639217       -3.1653393446      -12.9257351131  MEMB      60              0.0000000000
      6910        60  SOPE      H5S            18.0319238576       -1.8502693893      -12.6946728842  MEMB      60              0.0000000000
      6911        60  SOPE      C26            17.2064096464       -3.8698390803      -12.7016585390  MEMB      60              0.0000000000
      6912        60  SOPE      H6R            16.1686303791       -3.5499096486      -12.9293595809  MEMB      60              0.0000000000
      6913        60  SOPE      H6S            17.4071580769       -4.8126086609      -13.2636738495  MEMB      60              0.0000000000
      6914        60  SOPE      C27            17.2965278828       -4.1949334304      -11.2035444451  MEMB      60              0.0000000000
      6915        60  SOPE      H7R            17.0165674116       -5.2695756495      -11.0971316030  MEMB      60              0.0000000000
      6916        60  SOPE      H7S            18.3536450336       -4.0967865851      -10.8749688616  MEMB      60              0.0000000000
      6917        60  SOPE      C28            16.3432368632       -3.3683808933      -10.3126491286  MEMB      60              0.0000000000
      6918        60  SOPE      H8R            16.6098953886       -2.2912828631      -10.3817731954  MEMB      60              0.0000000000
      6919        60  SOPE      H8S            15.3018540984       -3.4805542993      -10.6898502814  MEMB      60              0.0000000000
      6920        60  SOPE      C29            16.4646173737       -3.8795640278       -8.8992891393  MEMB      60              0.0000000000
      6921        60  SOPE      H91            17.2507911266       -4.6419938092       -8.7852832475  MEMB      60              0.0000000000
      6922        60  SOPE      C210           15.7856798636       -3.5169254409       -7.7929727758  MEMB      60              0.0000000000
      6923        60  SOPE      H101           16.0582605944       -4.0177292648       -6.8537583007  MEMB      60              0.0000000000
      6924        60  SOPE      C211           14.6962794154       -2.4842103009       -7.6342450542  MEMB      60              0.0000000000
      6925        60  SOPE      H11R           14.4985038033       -1.9799233199       -8.6063184419  MEMB      60              0.0000000000
      6926        60  SOPE      H11S           15.0310622316       -1.6993240817       -6.9201362923  MEMB      60              0.0000000000
      6927        60  SOPE      C212           13.3568751365       -3.0689807283       -7.1168298641  MEMB      60              0.0000000000
      6928        60  SOPE      H12R           13.0495690429       -3.8626862104       -7.8243453124  MEMB      60              0.0000000000
      6929        60  SOPE      H12S           12.5737929655       -2.2816952954       -7.1575210699  MEMB      60              0.0000000000
      6930        60  SOPE      C213           13.3808196994       -3.6530680126       -5.6864315336  MEMB      60              0.0000000000
      6931        60  SOPE      H13R           13.4194351360       -2.8275190625       -4.9451146688  MEMB      60              0.0000000000
      6932        60  SOPE      H13S           14.3051086321       -4.2472726291       -5.5593568025  MEMB      60              0.0000000000
      6933        60  SOPE      C214           12.1963976497       -4.5888566771       -5.3604530057  MEMB      60              0.0000000000
      6934        60  SOPE      H14R           11.9525806293       -5.1852684556       -6.2693349025  MEMB      60              0.0000000000
      6935        60  SOPE      H14S           11.3110109779       -3.9609196310       -5.1235919847  MEMB      60              0.0000000000
      6936        60  SOPE      C215           12.4516990956       -5.5954998438       -4.2120926523  MEMB      60              0.0000000000
      6937        60  SOPE      H15R           13.1429647261       -6.3895390477       -4.5763303213  MEMB      60              0.0000000000
      6938        60  SOPE      H15S           11.4927798579       -6.0864798889       -3.9368773808  MEMB      60              0.0000000000
      6939        60  SOPE      C216           13.0785978230       -4.9899705219       -2.9493881790  MEMB      60              0.0000000000
      6940        60  SOPE      H16R           12.4905409975       -4.1063186675       -2.6268996746  MEMB      60              0.0000000000
      6941        60  SOPE      H16S           14.0894565440       -4.6419314637       -3.2154912451  MEMB      60              0.0000000000
      6942        60  SOPE      C217           13.2535183296       -5.9838031731       -1.7900636112  MEMB      60              0.0000000000
      6943        60  SOPE      H17R           13.8748864231       -6.8384835210       -2.1481610628  MEMB      60              0.0000000000
      6944        60  SOPE      H17S           12.2564403751       -6.3915695552       -1.5152112856  MEMB      60              0.0000000000
      6945        60  SOPE      C218           13.9091611819       -5.3615577474       -0.5492571322  MEMB      60              0.0000000000
      6946        60  SOPE      H18R           13.2582576954       -5.4865139295        0.3428392259  MEMB      60              0.0000000000
      6947        60  SOPE      H18S           14.0814523519       -4.2733268922       -0.6992129636  MEMB      60              0.0000000000
      6948        60  SOPE      H18T           14.8930429744       -5.8293897968       -0.3409002220  MEMB      60              0.0000000000
      6949        60  SOPE      C33            12.6426617405       -5.7049821769      -15.8758313824  MEMB      60              0.0000000000
      6950        60  SOPE      H3X            12.7465544907       -5.8489739000      -16.9770664507  MEMB      60              0.0000000000
      6951        60  SOPE      H3Y            12.0596796744       -6.5690542110      -15.4872828409  MEMB      60              0.0000000000
      6952        60  SOPE      C34            14.0477735998       -5.7440776125      -15.2500196411  MEMB      60              0.0000000000
      6953        60  SOPE      H4X            14.7053360071       -5.0419109055      -15.8152982219  MEMB      60              0.0000000000
      6954        60  SOPE      H4Y            14.4645352225       -6.7676075947      -15.3877846295  MEMB      60              0.0000000000
      6955        60  SOPE      C35            14.1272663090       -5.3704746576      -13.7600300041  MEMB      60              0.0000000000
      6956        60  SOPE      H5X            13.8464837717       -4.3042220815      -13.6210459497  MEMB      60              0.0000000000
      6957        60  SOPE      H5Y            15.1885411236       -5.4759617319      -13.4434301414  MEMB      60              0.0000000000
      6958        60  SOPE      C36            13.2793828753       -6.2476292165      -12.8358505179  MEMB      60              0.0000000000
      6959        60  SOPE      H6X            13.6813022032       -7.2842682940      -12.9002345917  MEMB      60              0.0000000000
      6960        60  SOPE      H6Y            12.2222667210       -6.2697792494      -13.1785917434  MEMB      60              0.0000000000
      6961        60  SOPE      C37            13.3227082066       -5.7849824994      -11.3711203352  MEMB      60              0.0000000000
      6962        60  SOPE      H7X            12.7295955367       -4.8526515218      -11.2437437274  MEMB      60              0.0000000000
      6963        60  SOPE      H7Y            14.3754157110       -5.5538101761      -11.0972524159  MEMB      60              0.0000000000
      6964        60  SOPE      C38            12.7873878908       -6.8851037541      -10.4504278838  MEMB      60              0.0000000000
      6965        60  SOPE      H8X            13.3362714075       -7.8176029256      -10.7117605876  MEMB      60              0.0000000000
      6966        60  SOPE      H8Y            11.7047092362       -7.0235194175      -10.6647279865  MEMB      60              0.0000000000
      6967        60  SOPE      C39            12.9891074529       -6.6690425313       -8.9491160705  MEMB      60              0.0000000000
      6968        60  SOPE      H9X            12.2924151872       -7.3258290626       -8.3807356817  MEMB      60              0.0000000000
      6969        60  SOPE      H9Y            12.7378856217       -5.6217247807       -8.7003308456  MEMB      60              0.0000000000
      6970        60  SOPE      C310           14.4242407277       -7.0173493943       -8.5458690549  MEMB      60              0.0000000000
      6971        60  SOPE      H10X           15.1106627234       -6.3758369637       -9.1424978023  MEMB      60              0.0000000000
      6972        60  SOPE      H10Y           14.6353755293       -8.0782721251       -8.7994893493  MEMB      60              0.0000000000
      6973        60  SOPE      C311           14.7374705640       -6.8199152292       -7.0672765548  MEMB      60              0.0000000000
      6974        60  SOPE      H11X           14.1922355336       -7.5649957639       -6.4486757677  MEMB      60              0.0000000000
      6975        60  SOPE      H11Y           14.3822915127       -5.8153356269       -6.7821208127  MEMB      60              0.0000000000
      6976        60  SOPE      C312           16.2420334951       -6.9053416712       -6.8046371041  MEMB      60              0.0000000000
      6977        60  SOPE      H12X           16.7710426215       -6.1508148348       -7.4195989307  MEMB      60              0.0000000000
      6978        60  SOPE      H12Y           16.5918828061       -7.8977367751       -7.1501345384  MEMB      60              0.0000000000
      6979        60  SOPE      C313           16.6180512999       -6.6807999529       -5.3410933573  MEMB      60              0.0000000000
      6980        60  SOPE      H13X           16.6913626650       -7.6670285690       -4.8432597581  MEMB      60              0.0000000000
      6981        60  SOPE      H13Y           15.8276588270       -6.1007447261       -4.8169384771  MEMB      60              0.0000000000
      6982        60  SOPE      C314           17.9603871564       -5.9763313767       -5.1445000288  MEMB      60              0.0000000000
      6983        60  SOPE      H14X           17.9255249707       -4.9436094991       -5.5544241615  MEMB      60              0.0000000000
      6984        60  SOPE      H14Y           18.7400823622       -6.5156702877       -5.7216904709  MEMB      60              0.0000000000
      6985        60  SOPE      C315           18.3318517965       -5.9590283642       -3.6561907689  MEMB      60              0.0000000000
      6986        60  SOPE      H15X           19.3848426592       -6.3071903718       -3.5514677354  MEMB      60              0.0000000000
      6987        60  SOPE      H15Y           17.6847238830       -6.6685072969       -3.0933617844  MEMB      60              0.0000000000
      6988        60  SOPE      C316           18.2157151332       -4.5639131606       -3.0387367151  MEMB      60              0.0000000000
      6989        60  SOPE      H16X           18.6689329263       -3.8598195496       -3.7590393361  MEMB      60              0.0000000000
      6990        60  SOPE      H16Y           18.8142282047       -4.5476447981       -2.1009961397  MEMB      60              0.0000000000
      6991        60  SOPE      C317           16.7828883058       -4.1139799024       -2.7151011212  MEMB      60              0.0000000000
      6992        60  SOPE      H17X           16.7688994284       -3.5638922901       -1.7482224091  MEMB      60              0.0000000000
      6993        60  SOPE      H17Y           16.1602072053       -5.0221045007       -2.5617402056  MEMB      60              0.0000000000
      6994        60  SOPE      C318           16.1390306923       -3.2250720436       -3.7839021716  MEMB      60              0.0000000000
      6995        60  SOPE      H18X           15.1059207034       -2.9453584518       -3.4953798332  MEMB      60              0.0000000000
      6996        60  SOPE      H18Y           16.6578906802       -2.2763190580       -3.9570236217  MEMB      60              0.0000000000
      6997        60  SOPE      H18Z           16.1240571522       -3.7593389479       -4.7519173463  MEMB      60              0.0000000000
      6998        61  SAPE      N               7.5729990557       10.2648491699      -22.3204061173  MEMB      61              0.0000000000
      6999        61  SAPE      HN1             8.3073803029        9.8534111651      -22.9319744271  MEMB      61              0.0000000000
      7000        61  SAPE      HN2             7.1629015525        9.5647956620      -21.6386111771  MEMB      61              0.0000000000
      7001        61  SAPE      HN3             6.7577565225       10.4886976907      -22.9402895304  MEMB      61              0.0000000000
      7002        61  SAPE      C12             7.8540004135       11.5661119149      -21.6407882107  MEMB      61              0.0000000000
      7003        61  SAPE      H12A            7.8994308718       12.3623455879      -22.4183327163  MEMB      61              0.0000000000
      7004        61  SAPE      H12B            8.8340440812       11.5074672094      -21.1342377014  MEMB      61              0.0000000000
      7005        61  SAPE      C11             6.7232091712       11.8738602700      -20.6531550832  MEMB      61              0.0000000000
      7006        61  SAPE      H11A            6.8421200665       11.2449313576      -19.7358933018  MEMB      61              0.0000000000
      7007        61  SAPE      H11B            5.7219905296       11.6575997976      -21.0973931233  MEMB      61              0.0000000000
      7008        61  SAPE      P               5.8010363778       13.9103709043      -19.3155614968  MEMB      61              0.0000000000
      7009        61  SAPE      O13             5.8909668812       13.1636869362      -18.0422459045  MEMB      61              0.0000000000
      7010        61  SAPE      O14             6.0656622246       15.3567291879      -19.2881504474  MEMB      61              0.0000000000
      7011        61  SAPE      O12             6.8100287051       13.2500782193      -20.3489294363  MEMB      61              0.0000000000
      7012        61  SAPE      O11             4.4116332119       13.6286098909      -20.0234341219  MEMB      61              0.0000000000
      7013        61  SAPE      C1              3.3124794100       12.9985291098      -19.3624672281  MEMB      61              0.0000000000
      7014        61  SAPE      HA              2.7412985851       12.4269886428      -20.1275059314  MEMB      61              0.0000000000
      7015        61  SAPE      HB              3.6477423359       12.2745447135      -18.5837565282  MEMB      61              0.0000000000
      7016        61  SAPE      C2              2.3336950700       14.0294275246      -18.7241297986  MEMB      61              0.0000000000
      7017        61  SAPE      HS              2.1103379032       14.7899709213      -19.5059264437  MEMB      61              0.0000000000
      7018        61  SAPE      O21             2.9571706518       14.6028088697      -17.5760281958  MEMB      61              0.0000000000
      7019        61  SAPE      C21             2.9229359731       15.9023146269      -17.4121929244  MEMB      61              0.0000000000
      7020        61  SAPE      O22             2.4274373189       16.7216608585      -18.1691812151  MEMB      61              0.0000000000
      7021        61  SAPE      C22             3.4577685165       16.1567251002      -16.0201873134  MEMB      61              0.0000000000
      7022        61  SAPE      H2R             2.7580166388       15.6385506341      -15.3342425614  MEMB      61              0.0000000000
      7023        61  SAPE      H2S             4.4564736536       15.6682144996      -15.9665043270  MEMB      61              0.0000000000
      7024        61  SAPE      C3              0.9985656362       13.3590987869      -18.2711725481  MEMB      61              0.0000000000
      7025        61  SAPE      HX              0.6116536677       12.7110639513      -19.0831787918  MEMB      61              0.0000000000
      7026        61  SAPE      HY              0.2269713088       14.1460428136      -18.1146327278  MEMB      61              0.0000000000
      7027        61  SAPE      O31             1.2087362418       12.5208650008      -17.1167180915  MEMB      61              0.0000000000
      7028        61  SAPE      C31             0.9955564057       13.1325093318      -15.9568952958  MEMB      61              0.0000000000
      7029        61  SAPE      O32             0.4248082044       14.1938954370      -15.7932481226  MEMB      61              0.0000000000
      7030        61  SAPE      C32             1.6437013665       12.3189623239      -14.8489840728  MEMB      61              0.0000000000
      7031        61  SAPE      H2X             2.4145154297       11.6500772134      -15.2874753903  MEMB      61              0.0000000000
      7032        61  SAPE      H2Y             0.8641536945       11.6897420239      -14.3788707433  MEMB      61              0.0000000000
      7033        61  SAPE      C23             3.5431449048       17.6294804186      -15.5709655536  MEMB      61              0.0000000000
      7034        61  SAPE      H3R             2.6378638326       18.1964004607      -15.8457876174  MEMB      61              0.0000000000
      7035        61  SAPE      H3S             4.3830121960       18.1402428548      -16.0898864303  MEMB      61              0.0000000000
      7036        61  SAPE      C24             3.7015832312       17.6919107710      -14.0447372667  MEMB      61              0.0000000000
      7037        61  SAPE      H4R             2.8147928895       17.2226258681      -13.5644203665  MEMB      61              0.0000000000
      7038        61  SAPE      H4S             3.7340114063       18.7493159880      -13.7277864541  MEMB      61              0.0000000000
      7039        61  SAPE      C25             4.9824794672       16.9717759062      -13.7234620966  MEMB      61              0.0000000000
      7040        61  SAPE      H5R             5.7576820984       17.1326516172      -14.4812928118  MEMB      61              0.0000000000
      7041        61  SAPE      C26             5.2556278700       16.1200150875      -12.7250534701  MEMB      61              0.0000000000
      7042        61  SAPE      H6R             6.2221062078       15.5969548014      -12.7391858598  MEMB      61              0.0000000000
      7043        61  SAPE      C27             4.3348325813       15.6622700399      -11.6420997617  MEMB      61              0.0000000000
      7044        61  SAPE      H7R             4.3474637439       14.5639867265      -11.6349160069  MEMB      61              0.0000000000
      7045        61  SAPE      H7S             3.2944911105       15.9498349218      -11.8863982135  MEMB      61              0.0000000000
      7046        61  SAPE      C28             4.7689545616       16.1093184057      -10.2719976505  MEMB      61              0.0000000000
      7047        61  SAPE      H8R             5.8419607447       16.2406654062      -10.1074488844  MEMB      61              0.0000000000
      7048        61  SAPE      C29             3.9402851165       16.3634198834       -9.2567931966  MEMB      61              0.0000000000
      7049        61  SAPE      H9R             4.3516584027       16.7031491778       -8.2925946309  MEMB      61              0.0000000000
      7050        61  SAPE      C210            2.4459347089       16.2402973882       -9.3462529382  MEMB      61              0.0000000000
      7051        61  SAPE      H10R            2.1154670829       16.3930764931      -10.3889737610  MEMB      61              0.0000000000
      7052        61  SAPE      H10S            1.9761674119       17.0778502385       -8.7849853534  MEMB      61              0.0000000000
      7053        61  SAPE      C211            1.9185009740       14.9120574344       -8.8763868746  MEMB      61              0.0000000000
      7054        61  SAPE      H11R            1.6803754568       14.1705613315       -9.6549188398  MEMB      61              0.0000000000
      7055        61  SAPE      C212            1.7391964835       14.6172135238       -7.5825342524  MEMB      61              0.0000000000
      7056        61  SAPE      H12R            1.3425932249       13.6312115087       -7.2903835485  MEMB      61              0.0000000000
      7057        61  SAPE      C213            2.0597407125       15.6080667910       -6.4950314314  MEMB      61              0.0000000000
      7058        61  SAPE      H13R            1.4515150210       16.5297151577       -6.6233311023  MEMB      61              0.0000000000
      7059        61  SAPE      H13S            3.1161081745       15.9439288466       -6.5916028235  MEMB      61              0.0000000000
      7060        61  SAPE      C214            1.8067262048       15.0635805362       -5.1226462412  MEMB      61              0.0000000000
      7061        61  SAPE      H14R            0.7476131733       14.9676535840       -4.8565767544  MEMB      61              0.0000000000
      7062        61  SAPE      C215            2.7408616790       14.6641414514       -4.2499072691  MEMB      61              0.0000000000
      7063        61  SAPE      H15R            2.4377400326       14.3173501319       -3.2505100182  MEMB      61              0.0000000000
      7064        61  SAPE      C216            4.2193248131       14.6913811687       -4.5135531165  MEMB      61              0.0000000000
      7065        61  SAPE      H16R            4.4434481861       14.4180936629       -5.5692653724  MEMB      61              0.0000000000
      7066        61  SAPE      H16S            4.7192004522       13.9414625311       -3.8645807387  MEMB      61              0.0000000000
      7067        61  SAPE      C217            4.8648516426       16.0473198139       -4.2521156000  MEMB      61              0.0000000000
      7068        61  SAPE      H17R            4.6190800032       16.3613103098       -3.2205377597  MEMB      61              0.0000000000
      7069        61  SAPE      H17S            4.4477738853       16.8102306103       -4.9470676345  MEMB      61              0.0000000000
      7070        61  SAPE      C218            6.3865674764       15.9914901808       -4.4073643268  MEMB      61              0.0000000000
      7071        61  SAPE      H18R            6.7455614884       17.0431242145       -4.4549454637  MEMB      61              0.0000000000
      7072        61  SAPE      H18S            6.6537841245       15.4907349227       -5.3634050396  MEMB      61              0.0000000000
      7073        61  SAPE      C219            7.0848795339       15.3130308214       -3.2242534362  MEMB      61              0.0000000000
      7074        61  SAPE      H19R            7.5683819008       14.3643845276       -3.5495005298  MEMB      61              0.0000000000
      7075        61  SAPE      H19S            6.3236617695       15.0471916625       -2.4607288455  MEMB      61              0.0000000000
      7076        61  SAPE      C220            8.1105441750       16.2218299932       -2.5617991694  MEMB      61              0.0000000000
      7077        61  SAPE      H20R            7.6555922725       17.2055855596       -2.3119300223  MEMB      61              0.0000000000
      7078        61  SAPE      H20S            8.9557992986       16.4010574412       -3.2602245464  MEMB      61              0.0000000000
      7079        61  SAPE      H20T            8.5009127357       15.7686701516       -1.6248882452  MEMB      61              0.0000000000
      7080        61  SAPE      C33             2.2955639191       13.2636156257      -13.8206267230  MEMB      61              0.0000000000
      7081        61  SAPE      H3X             1.5150129000       13.9405591406      -13.3991761927  MEMB      61              0.0000000000
      7082        61  SAPE      H3Y             3.0667506036       13.8982099994      -14.3174059481  MEMB      61              0.0000000000
      7083        61  SAPE      C34             2.9808512846       12.4995337145      -12.6874063959  MEMB      61              0.0000000000
      7084        61  SAPE      H4X             2.4831399480       11.5175441804      -12.5573622429  MEMB      61              0.0000000000
      7085        61  SAPE      H4Y             2.8453180657       13.0629245659      -11.7390430304  MEMB      61              0.0000000000
      7086        61  SAPE      C35             4.4818326438       12.2776614623      -12.9446391452  MEMB      61              0.0000000000
      7087        61  SAPE      H5X             5.0121828807       13.2385183463      -13.1129048839  MEMB      61              0.0000000000
      7088        61  SAPE      H5Y             4.5807025075       11.7021127060      -13.8950380582  MEMB      61              0.0000000000
      7089        61  SAPE      C36             5.1670300851       11.4670475444      -11.8361886969  MEMB      61              0.0000000000
      7090        61  SAPE      H6X             6.1635367770       11.1283435440      -12.1932059537  MEMB      61              0.0000000000
      7091        61  SAPE      H6Y             4.5325561040       10.5654334268      -11.6952659244  MEMB      61              0.0000000000
      7092        61  SAPE      C37             5.3491263028       12.1297195178      -10.4576543276  MEMB      61              0.0000000000
      7093        61  SAPE      H7X             4.6435457473       12.9724433387      -10.3087139513  MEMB      61              0.0000000000
      7094        61  SAPE      H7Y             6.3853570572       12.5263708202      -10.3705991097  MEMB      61              0.0000000000
      7095        61  SAPE      C38             5.0975840584       11.0973092083       -9.3510573727  MEMB      61              0.0000000000
      7096        61  SAPE      H8X             5.5949501293       10.1496238969       -9.6680691837  MEMB      61              0.0000000000
      7097        61  SAPE      H8Y             4.0065992322       10.8945097723       -9.2830597962  MEMB      61              0.0000000000
      7098        61  SAPE      C39             5.6549928492       11.4481600561       -7.9709200415  MEMB      61              0.0000000000
      7099        61  SAPE      H9X             6.4341707979       12.2363809894       -8.0229402105  MEMB      61              0.0000000000
      7100        61  SAPE      H9Y             6.1304769082       10.5123200614       -7.5926263684  MEMB      61              0.0000000000
      7101        61  SAPE      C310            4.6013561330       11.8142537856       -6.9243892728  MEMB      61              0.0000000000
      7102        61  SAPE      H10X            3.7295181761       11.1315112650       -7.0494501441  MEMB      61              0.0000000000
      7103        61  SAPE      H10Y            4.2237542111       12.8467432222       -7.0817387472  MEMB      61              0.0000000000
      7104        61  SAPE      C311            5.1715862799       11.6169147744       -5.5089500093  MEMB      61              0.0000000000
      7105        61  SAPE      H11X            5.7019241341       12.5304479075       -5.1706425663  MEMB      61              0.0000000000
      7106        61  SAPE      H11Y            5.9300350260       10.8047244805       -5.5423643558  MEMB      61              0.0000000000
      7107        61  SAPE      C312            4.0893284989       11.2133165347       -4.5086927682  MEMB      61              0.0000000000
      7108        61  SAPE      H12X            3.4252025228       10.4668966814       -4.9781425857  MEMB      61              0.0000000000
      7109        61  SAPE      H12Y            3.4299346961       12.0850907750       -4.3257750470  MEMB      61              0.0000000000
      7110        61  SAPE      C313            4.5704418277       10.6626925656       -3.1518901015  MEMB      61              0.0000000000
      7111        61  SAPE      H13X            4.1139278862        9.6656664003       -2.9700249844  MEMB      61              0.0000000000
      7112        61  SAPE      H13Y            4.1227039037       11.3560758933       -2.4179484486  MEMB      61              0.0000000000
      7113        61  SAPE      C314            6.0877553335       10.6018960224       -2.8840163767  MEMB      61              0.0000000000
      7114        61  SAPE      H14X            6.5068034877       11.6289375564       -2.9725240049  MEMB      61              0.0000000000
      7115        61  SAPE      H14Y            6.5893862111        9.9779832862       -3.6580237489  MEMB      61              0.0000000000
      7116        61  SAPE      C315            6.4408124595       10.0012476427       -1.5026239178  MEMB      61              0.0000000000
      7117        61  SAPE      H15X            6.6144838176        8.9125610854       -1.6628966982  MEMB      61              0.0000000000
      7118        61  SAPE      H15Y            5.5936461813       10.0376450412       -0.7938195413  MEMB      61              0.0000000000
      7119        61  SAPE      C316            7.6902053386       10.6185861743       -0.8399851279  MEMB      61              0.0000000000
      7120        61  SAPE      H16X            8.2292068640       11.2463720754       -1.5816000859  MEMB      61              0.0000000000
      7121        61  SAPE      H16Y            8.3481043603        9.7811985461       -0.5183092357  MEMB      61              0.0000000000
      7122        61  SAPE      C317            7.4705980699       11.4765833575        0.4113439927  MEMB      61              0.0000000000
      7123        61  SAPE      H17X            6.7471657332       10.9697068780        1.0826176520  MEMB      61              0.0000000000
      7124        61  SAPE      H17Y            7.0278399215       12.4472798822        0.1119201974  MEMB      61              0.0000000000
      7125        61  SAPE      C318            8.7616895692       11.7660161358        1.1854837298  MEMB      61              0.0000000000
      7126        61  SAPE      H18X            8.5278117684       12.2814875028        2.1428032242  MEMB      61              0.0000000000
      7127        61  SAPE      H18Y            9.4340509076       12.4200980453        0.5892065692  MEMB      61              0.0000000000
      7128        61  SAPE      H18Z            9.3106226433       10.8271330330        1.4141477388  MEMB      61              0.0000000000
      7129        62  SAPC      N             -14.6305488418        1.0364157155      -18.5404336629  MEMB      62              0.0000000000
      7130        62  SAPC      C12           -15.7134433180        1.0632121537      -19.6168645481  MEMB      62              0.0000000000
      7131        62  SAPC      H12A          -15.3840912280        1.7282234003      -20.4243319543  MEMB      62              0.0000000000
      7132        62  SAPC      H12B          -16.6129004493        1.5056546280      -19.2160072418  MEMB      62              0.0000000000
      7133        62  SAPC      C13           -14.8474963217       -0.1266064905      -17.6177862329  MEMB      62              0.0000000000
      7134        62  SAPC      H13A          -14.8363623032       -1.0467403788      -18.2072650569  MEMB      62              0.0000000000
      7135        62  SAPC      H13B          -14.0688762218       -0.2005971036      -16.8721278932  MEMB      62              0.0000000000
      7136        62  SAPC      H13C          -15.8071503752       -0.0830542614      -17.1303007873  MEMB      62              0.0000000000
      7137        62  SAPC      C14           -13.3366970392        0.8186892997      -19.2745164573  MEMB      62              0.0000000000
      7138        62  SAPC      H14A          -12.4730282222        0.7761765879      -18.6314503337  MEMB      62              0.0000000000
      7139        62  SAPC      H14B          -13.4154214011       -0.1236081403      -19.8311276584  MEMB      62              0.0000000000
      7140        62  SAPC      H14C          -13.1811081236        1.5775542683      -20.0305450891  MEMB      62              0.0000000000
      7141        62  SAPC      C15           -14.5923577700        2.3083071808      -17.7756892701  MEMB      62              0.0000000000
      7142        62  SAPC      H15A          -13.9187134635        2.2222231562      -16.9299202326  MEMB      62              0.0000000000
      7143        62  SAPC      H15B          -14.1988887082        3.0930286866      -18.4074086447  MEMB      62              0.0000000000
      7144        62  SAPC      H15C          -15.5740319147        2.5918770488      -17.4131948541  MEMB      62              0.0000000000
      7145        62  SAPC      C11           -16.0887725404       -0.3127552824      -20.2404451488  MEMB      62              0.0000000000
      7146        62  SAPC      H11A          -16.7335171489       -0.1308468289      -21.1331862053  MEMB      62              0.0000000000
      7147        62  SAPC      H11B          -16.6969274856       -0.8765109104      -19.4939238430  MEMB      62              0.0000000000
      7148        62  SAPC      P             -15.0355678619       -2.5647349033      -21.0425058851  MEMB      62              0.0000000000
      7149        62  SAPC      O13           -15.8832079678       -2.6759464932      -22.2559801296  MEMB      62              0.0000000000
      7150        62  SAPC      O14           -13.7011232895       -3.1906958855      -21.1101622654  MEMB      62              0.0000000000
      7151        62  SAPC      O12           -14.9215444092       -1.0488763102      -20.6186127167  MEMB      62              0.0000000000
      7152        62  SAPC      O11           -15.7766623364       -3.2152598826      -19.7939606944  MEMB      62              0.0000000000
      7153        62  SAPC      C1            -16.4158806792       -4.5005765875      -19.8453624457  MEMB      62              0.0000000000
      7154        62  SAPC      HA            -17.1981453610       -4.4740720515      -20.6417355200  MEMB      62              0.0000000000
      7155        62  SAPC      HB            -15.6942870134       -5.3075951132      -20.0851528230  MEMB      62              0.0000000000
      7156        62  SAPC      C2            -17.1873000292       -4.9134125250      -18.5298412839  MEMB      62              0.0000000000
      7157        62  SAPC      HS            -18.1519302574       -5.3832752231      -18.8480189524  MEMB      62              0.0000000000
      7158        62  SAPC      O21           -17.4293681893       -3.7902220501      -17.6825690302  MEMB      62              0.0000000000
      7159        62  SAPC      C21           -18.3310833612       -2.9959831353      -18.1816790494  MEMB      62              0.0000000000
      7160        62  SAPC      O22           -18.9326733340       -3.1541772505      -19.2319343822  MEMB      62              0.0000000000
      7161        62  SAPC      C22           -18.5585762858       -1.7889138223      -17.2622391674  MEMB      62              0.0000000000
      7162        62  SAPC      H2R           -18.0273844805       -0.9327227271      -17.7210617719  MEMB      62              0.0000000000
      7163        62  SAPC      H2S           -19.6471007697       -1.5741483480      -17.2638100714  MEMB      62              0.0000000000
      7164        62  SAPC      C3            -16.5101281310       -5.9636486481      -17.6164296977  MEMB      62              0.0000000000
      7165        62  SAPC      HX            -16.2931921675       -6.8933304329      -18.1870947088  MEMB      62              0.0000000000
      7166        62  SAPC      HY            -17.2786311356       -6.2385436666      -16.8580118186  MEMB      62              0.0000000000
      7167        62  SAPC      O31           -15.3734466969       -5.3873793683      -16.9281326937  MEMB      62              0.0000000000
      7168        62  SAPC      C31           -14.2225707321       -5.5993349368      -17.5147328483  MEMB      62              0.0000000000
      7169        62  SAPC      O32           -13.9943151345       -6.4883241243      -18.3185144136  MEMB      62              0.0000000000
      7170        62  SAPC      C32           -13.1635758375       -4.5471527425      -17.1428852540  MEMB      62              0.0000000000
      7171        62  SAPC      H2X           -12.9353570974       -4.0074829206      -18.0892534318  MEMB      62              0.0000000000
      7172        62  SAPC      H2Y           -12.2539623950       -5.1105466155      -16.8470523904  MEMB      62              0.0000000000
      7173        62  SAPC      C23           -18.0603491263       -1.9927571102      -15.8103203217  MEMB      62              0.0000000000
      7174        62  SAPC      H3R           -18.1353709969       -1.0297196277      -15.2538608297  MEMB      62              0.0000000000
      7175        62  SAPC      H3S           -16.9838828586       -2.2806540999      -15.8238915527  MEMB      62              0.0000000000
      7176        62  SAPC      C24           -18.8794529675       -3.0590022482      -15.0689012971  MEMB      62              0.0000000000
      7177        62  SAPC      H4R           -18.9655730088       -3.9799644193      -15.6854896141  MEMB      62              0.0000000000
      7178        62  SAPC      H4S           -19.9185940033       -2.6904135943      -14.9391939773  MEMB      62              0.0000000000
      7179        62  SAPC      C25           -18.2346353802       -3.4094613545      -13.7607687696  MEMB      62              0.0000000000
      7180        62  SAPC      H5R           -17.1935263121       -3.7479874658      -13.8355251908  MEMB      62              0.0000000000
      7181        62  SAPC      C26           -18.7868802783       -3.2664599522      -12.5442305631  MEMB      62              0.0000000000
      7182        62  SAPC      H6R           -18.1781499524       -3.4684592987      -11.6501336269  MEMB      62              0.0000000000
      7183        62  SAPC      C27           -20.1543142602       -2.7223340523      -12.2505064178  MEMB      62              0.0000000000
      7184        62  SAPC      H7R           -20.4143939271       -2.8617242981      -11.1827342292  MEMB      62              0.0000000000
      7185        62  SAPC      H7S           -20.9220306258       -3.2956132559      -12.8193711950  MEMB      62              0.0000000000
      7186        62  SAPC      C28           -20.1441495145       -1.2507360346      -12.5824712363  MEMB      62              0.0000000000
      7187        62  SAPC      H8R           -20.6713080014       -0.9921207900      -13.5103163274  MEMB      62              0.0000000000
      7188        62  SAPC      C29           -19.4199578745       -0.2880218874      -11.9735285169  MEMB      62              0.0000000000
      7189        62  SAPC      H9R           -19.5305785707        0.7426754004      -12.3430575762  MEMB      62              0.0000000000
      7190        62  SAPC      C210          -18.4587586907       -0.4567548211      -10.8190252994  MEMB      62              0.0000000000
      7191        62  SAPC      H10R          -17.8286573716        0.4569585499      -10.7802468027  MEMB      62              0.0000000000
      7192        62  SAPC      H10S          -17.7434195711       -1.2918906094      -10.9954500238  MEMB      62              0.0000000000
      7193        62  SAPC      C211          -19.1683769385       -0.6162177166       -9.5003692989  MEMB      62              0.0000000000
      7194        62  SAPC      H11R          -19.7442249909        0.2761294325       -9.2067081203  MEMB      62              0.0000000000
      7195        62  SAPC      C212          -19.1572643836       -1.6580859988       -8.6440669877  MEMB      62              0.0000000000
      7196        62  SAPC      H12R          -19.6951227561       -1.5021363813       -7.7012625986  MEMB      62              0.0000000000
      7197        62  SAPC      C213          -18.4478161427       -2.9942132621       -8.6997639522  MEMB      62              0.0000000000
      7198        62  SAPC      H13R          -17.9936265332       -3.0918591864       -7.7000174725  MEMB      62              0.0000000000
      7199        62  SAPC      H13S          -17.5967121196       -2.9092159384       -9.4084263348  MEMB      62              0.0000000000
      7200        62  SAPC      C214          -19.1589078484       -4.3015945984       -9.0392962322  MEMB      62              0.0000000000
      7201        62  SAPC      H14R          -19.5724915955       -4.3086273061      -10.0541621610  MEMB      62              0.0000000000
      7202        62  SAPC      C215          -19.3496473861       -5.4471915651       -8.3294723091  MEMB      62              0.0000000000
      7203        62  SAPC      H15R          -19.8746132068       -6.2615470826       -8.8536255165  MEMB      62              0.0000000000
      7204        62  SAPC      C216          -18.9200659451       -5.8329970693       -6.9242866328  MEMB      62              0.0000000000
      7205        62  SAPC      H16R          -19.7948512396       -5.6620014611       -6.2561575768  MEMB      62              0.0000000000
      7206        62  SAPC      H16S          -18.0980019182       -5.1879446954       -6.5485356227  MEMB      62              0.0000000000
      7207        62  SAPC      C217          -18.4788106488       -7.3106861648       -6.7036918151  MEMB      62              0.0000000000
      7208        62  SAPC      H17R          -17.5785834086       -7.5681891484       -7.2982685375  MEMB      62              0.0000000000
      7209        62  SAPC      H17S          -19.2948329412       -7.9838226362       -7.0552340357  MEMB      62              0.0000000000
      7210        62  SAPC      C218          -18.1811001207       -7.6287586359       -5.2177137942  MEMB      62              0.0000000000
      7211        62  SAPC      H18R          -18.4547567885       -8.6885223288       -5.0113593357  MEMB      62              0.0000000000
      7212        62  SAPC      H18S          -18.8426466437       -6.9771999964       -4.6049175069  MEMB      62              0.0000000000
      7213        62  SAPC      C219          -16.7050765285       -7.4294953996       -4.8014491873  MEMB      62              0.0000000000
      7214        62  SAPC      H19R          -16.3858834338       -6.4222666774       -5.1461922837  MEMB      62              0.0000000000
      7215        62  SAPC      H19S          -16.0688677266       -8.1713031207       -5.3369812547  MEMB      62              0.0000000000
      7216        62  SAPC      C220          -16.4393770404       -7.5194690760       -3.2880628193  MEMB      62              0.0000000000
      7217        62  SAPC      H20R          -16.0779550802       -8.5230912412       -2.9835153856  MEMB      62              0.0000000000
      7218        62  SAPC      H20S          -17.3708959472       -7.3059057171       -2.7278383846  MEMB      62              0.0000000000
      7219        62  SAPC      H20T          -15.6740738393       -6.7800999010       -2.9690737395  MEMB      62              0.0000000000
      7220        62  SAPC      C33           -13.5073327945       -3.4841378141      -16.0636836113  MEMB      62              0.0000000000
      7221        62  SAPC      H3X           -14.5630097541       -3.5516031695      -15.7235011088  MEMB      62              0.0000000000
      7222        62  SAPC      H3Y           -13.3834269082       -2.4807470087      -16.5304320597  MEMB      62              0.0000000000
      7223        62  SAPC      C34           -12.5593969542       -3.5371094153      -14.8516755259  MEMB      62              0.0000000000
      7224        62  SAPC      H4X           -11.5151284268       -3.6765351858      -15.2144147569  MEMB      62              0.0000000000
      7225        62  SAPC      H4Y           -12.8210402959       -4.4206917922      -14.2272650765  MEMB      62              0.0000000000
      7226        62  SAPC      C35           -12.5778451196       -2.2681561930      -13.9783910659  MEMB      62              0.0000000000
      7227        62  SAPC      H5X           -12.1503196574       -1.4186574142      -14.5578227269  MEMB      62              0.0000000000
      7228        62  SAPC      H5Y           -11.9120819381       -2.4366235014      -13.1028089640  MEMB      62              0.0000000000
      7229        62  SAPC      C36           -13.9747217754       -1.8662278866      -13.4794813728  MEMB      62              0.0000000000
      7230        62  SAPC      H6X           -14.4780174373       -2.7330060328      -12.9976371699  MEMB      62              0.0000000000
      7231        62  SAPC      H6Y           -14.5872267866       -1.5849274921      -14.3662699993  MEMB      62              0.0000000000
      7232        62  SAPC      C37           -13.9679921352       -0.6661242741      -12.5123020167  MEMB      62              0.0000000000
      7233        62  SAPC      H7X           -14.8241820111       -0.0075301147      -12.7912613110  MEMB      62              0.0000000000
      7234        62  SAPC      H7Y           -13.0378882734       -0.0728556445      -12.6382558818  MEMB      62              0.0000000000
      7235        62  SAPC      C38           -14.1580597509       -1.0388594220      -11.0301025432  MEMB      62              0.0000000000
      7236        62  SAPC      H8X           -15.0267152096       -1.7313935579      -10.9495969364  MEMB      62              0.0000000000
      7237        62  SAPC      H8Y           -14.4151691497       -0.1209797295      -10.4542938679  MEMB      62              0.0000000000
      7238        62  SAPC      C39           -12.9285746226       -1.6871429179      -10.3710260744  MEMB      62              0.0000000000
      7239        62  SAPC      H9X           -12.0901652068       -0.9591730788      -10.3212992083  MEMB      62              0.0000000000
      7240        62  SAPC      H9Y           -12.6012299754       -2.5311131612      -11.0204161949  MEMB      62              0.0000000000
      7241        62  SAPC      C310          -13.2326584152       -2.2702006677       -8.9777421782  MEMB      62              0.0000000000
      7242        62  SAPC      H10X          -12.8258004348       -3.3075645087       -8.9404072435  MEMB      62              0.0000000000
      7243        62  SAPC      H10Y          -14.3350216914       -2.3519835197       -8.8452447055  MEMB      62              0.0000000000
      7244        62  SAPC      C311          -12.6458673928       -1.5177010455       -7.7693473017  MEMB      62              0.0000000000
      7245        62  SAPC      H11X          -11.5369642782       -1.4858465470       -7.8432307667  MEMB      62              0.0000000000
      7246        62  SAPC      H11Y          -12.8965649496       -2.1193210835       -6.8650489750  MEMB      62              0.0000000000
      7247        62  SAPC      C312          -13.2057673881       -0.1023353358       -7.5727805325  MEMB      62              0.0000000000
      7248        62  SAPC      H12X          -14.3044834555       -0.1155083711       -7.7536953884  MEMB      62              0.0000000000
      7249        62  SAPC      H12Y          -12.7491357393        0.5658225881       -8.3377245937  MEMB      62              0.0000000000
      7250        62  SAPC      C313          -12.9485761047        0.4780887773       -6.1658401569  MEMB      62              0.0000000000
      7251        62  SAPC      H13X          -13.1519365606        1.5717635077       -6.2180960044  MEMB      62              0.0000000000
      7252        62  SAPC      H13Y          -11.8807198359        0.3472852421       -5.8851506206  MEMB      62              0.0000000000
      7253        62  SAPC      C314          -13.8597114572       -0.1048884531       -5.0653214052  MEMB      62              0.0000000000
      7254        62  SAPC      H14X          -13.5610629741       -1.1514050587       -4.8383761925  MEMB      62              0.0000000000
      7255        62  SAPC      H14Y          -14.9002353195       -0.1254815466       -5.4640175150  MEMB      62              0.0000000000
      7256        62  SAPC      C315          -13.8702820734        0.7289143739       -3.7690390759  MEMB      62              0.0000000000
      7257        62  SAPC      H15X          -14.0253906697        1.7930029055       -4.0634934152  MEMB      62              0.0000000000
      7258        62  SAPC      H15Y          -12.8886067072        0.6620079873       -3.2542113247  MEMB      62              0.0000000000
      7259        62  SAPC      C316          -15.0065925185        0.3601078100       -2.7959217457  MEMB      62              0.0000000000
      7260        62  SAPC      H16X          -15.9294559458        0.1798870272       -3.3938825279  MEMB      62              0.0000000000
      7261        62  SAPC      H16Y          -15.2180831633        1.2210802979       -2.1225741550  MEMB      62              0.0000000000
      7262        62  SAPC      C317          -14.7276946997       -0.8637423782       -1.9104317354  MEMB      62              0.0000000000
      7263        62  SAPC      H17X          -14.3151982945       -1.6885081500       -2.5328630630  MEMB      62              0.0000000000
      7264        62  SAPC      H17Y          -15.7102737492       -1.2051498704       -1.5094043040  MEMB      62              0.0000000000
      7265        62  SAPC      C318          -13.7947743254       -0.6124564102       -0.7215253275  MEMB      62              0.0000000000
      7266        62  SAPC      H18X          -13.7714219059       -1.5127139872       -0.0683489471  MEMB      62              0.0000000000
      7267        62  SAPC      H18Y          -14.1544904148        0.2431715190       -0.1136776853  MEMB      62              0.0000000000
      7268        62  SAPC      H18Z          -12.7613660829       -0.4037765476       -1.0706652383  MEMB      62              0.0000000000
      7269        63  OSM       N              -6.3946926564      -16.3495983637      -20.9727345760  MEMB      63              0.0000000000
      7270        63  OSM       C15            -5.9576408408      -16.6787091610      -19.5770474291  MEMB      63              0.0000000000
      7271        63  OSM       H15A           -6.8094823195      -16.8691395455      -18.9286645268  MEMB      63              0.0000000000
      7272        63  OSM       H15B           -5.4006877735      -15.8229332394      -19.1930200212  MEMB      63              0.0000000000
      7273        63  OSM       H15C           -5.3240423126      -17.5521358805      -19.5881729514  MEMB      63              0.0000000000
      7274        63  OSM       C14            -5.2367816439      -16.3925212979      -21.9217359343  MEMB      63              0.0000000000
      7275        63  OSM       H14A           -4.5115125728      -15.6321346262      -21.6204091607  MEMB      63              0.0000000000
      7276        63  OSM       H14B           -5.5648252208      -16.1369170397      -22.9240220246  MEMB      63              0.0000000000
      7277        63  OSM       H14C           -4.7432265149      -17.3478705627      -21.9687081257  MEMB      63              0.0000000000
      7278        63  OSM       C13            -7.4678807430      -17.2925352377      -21.4321855649  MEMB      63              0.0000000000
      7279        63  OSM       H13A           -8.3309284420      -17.2814311566      -20.7688291655  MEMB      63              0.0000000000
      7280        63  OSM       H13B           -7.0851785447      -18.3020579953      -21.4813122031  MEMB      63              0.0000000000
      7281        63  OSM       H13C           -7.8489917284      -17.0063008712      -22.4115139259  MEMB      63              0.0000000000
      7282        63  OSM       C12            -6.9276308594      -14.9300345078      -21.0170873898  MEMB      63              0.0000000000
      7283        63  OSM       H12A           -7.9407229737      -14.8890626107      -20.6384492124  MEMB      63              0.0000000000
      7284        63  OSM       H12B           -7.0558012877      -14.6483077340      -22.0615251686  MEMB      63              0.0000000000
      7285        63  OSM       C11            -6.1408595931      -13.7787450508      -20.3425652222  MEMB      63              0.0000000000
      7286        63  OSM       H11A           -6.1353589523      -13.9195898158      -19.2403312237  MEMB      63              0.0000000000
      7287        63  OSM       H11B           -6.7151252808      -12.8379805664      -20.5348869613  MEMB      63              0.0000000000
      7288        63  OSM       P              -4.0882402454      -12.2898517229      -21.0229466346  MEMB      63              0.0000000000
      7289        63  OSM       O13            -2.7698807587      -12.6075280021      -21.6079957862  MEMB      63              0.0000000000
      7290        63  OSM       O14            -4.9224094388      -11.3169362495      -21.7625888664  MEMB      63              0.0000000000
      7291        63  OSM       O11            -3.8115111935      -11.8331433590      -19.5252784875  MEMB      63              0.0000000000
      7292        63  OSM       O12            -4.8121697688      -13.7022730643      -20.8465657604  MEMB      63              0.0000000000
      7293        63  OSM       C1S            -3.4688598039      -12.8319707245      -18.5537636080  MEMB      63              0.0000000000
      7294        63  OSM       H1S            -2.3837333920      -13.0634754720      -18.5966998029  MEMB      63              0.0000000000
      7295        63  OSM       H1T            -4.0175744534      -13.7918032785      -18.6935578305  MEMB      63              0.0000000000
      7296        63  OSM       NF             -3.7890561447      -13.4176180812      -16.1325840357  MEMB      63              0.0000000000
      7297        63  OSM       HNF            -4.4333028705      -13.2623300822      -15.3873014990  MEMB      63              0.0000000000
      7298        63  OSM       C2S            -3.8391194278      -12.3460112172      -17.1350494319  MEMB      63              0.0000000000
      7299        63  OSM       H2S            -3.1003100485      -11.5728907155      -16.8288012890  MEMB      63              0.0000000000
      7300        63  OSM       C3S            -5.2670091310      -11.6894791383      -17.1225951360  MEMB      63              0.0000000000
      7301        63  OSM       H3S            -5.9752206571      -12.4194867584      -17.5702070734  MEMB      63              0.0000000000
      7302        63  OSM       O3             -5.4083464345      -10.4504603609      -17.8013816614  MEMB      63              0.0000000000
      7303        63  OSM       HO3            -4.7684500835      -10.4744518170      -18.5222226309  MEMB      63              0.0000000000
      7304        63  OSM       C4S            -5.6268179471      -11.4598287929      -15.6930971412  MEMB      63              0.0000000000
      7305        63  OSM       H4S            -5.3009193571      -10.4904919754      -15.2971543960  MEMB      63              0.0000000000
      7306        63  OSM       C5S            -6.3260308779      -12.3372714569      -14.9448775632  MEMB      63              0.0000000000
      7307        63  OSM       H5S            -6.6770760522      -13.2667276243      -15.4240364549  MEMB      63              0.0000000000
      7308        63  OSM       C6S            -6.6984399805      -12.1720004117      -13.5006522706  MEMB      63              0.0000000000
      7309        63  OSM       H6S            -6.3966279531      -13.0815752769      -12.9345702833  MEMB      63              0.0000000000
      7310        63  OSM       H6T            -7.7918510907      -12.1050008244      -13.4192796928  MEMB      63              0.0000000000
      7311        63  OSM       C7S            -6.0393015920      -10.9543371059      -12.8300454947  MEMB      63              0.0000000000
      7312        63  OSM       H7S            -6.2107508707      -10.0381221268      -13.4420241646  MEMB      63              0.0000000000
      7313        63  OSM       H7T            -4.9507529633      -11.1578804639      -12.7993120224  MEMB      63              0.0000000000
      7314        63  OSM       C8S            -6.5354494764      -10.6225583554      -11.4153212875  MEMB      63              0.0000000000
      7315        63  OSM       H8S            -7.6372966875      -10.5164292787      -11.4176715425  MEMB      63              0.0000000000
      7316        63  OSM       H8T            -6.1400086266       -9.6221778845      -11.1249249256  MEMB      63              0.0000000000
      7317        63  OSM       C9S            -6.1037420155      -11.6272464960      -10.3419903924  MEMB      63              0.0000000000
      7318        63  OSM       H9S            -5.2237441659      -11.1936527141       -9.8212445138  MEMB      63              0.0000000000
      7319        63  OSM       H9T            -5.8117406582      -12.5946144991      -10.8069864773  MEMB      63              0.0000000000
      7320        63  OSM       C10S           -7.1828406063      -11.8935629165       -9.2926847791  MEMB      63              0.0000000000
      7321        63  OSM       H10S           -8.0197380541      -12.4277790906       -9.7917243188  MEMB      63              0.0000000000
      7322        63  OSM       H10T           -7.5639463533      -10.9106072889       -8.9343986479  MEMB      63              0.0000000000
      7323        63  OSM       C11S           -6.7069422097      -12.7192317632       -8.0820499171  MEMB      63              0.0000000000
      7324        63  OSM       H11S           -6.3306114333      -13.7103811667       -8.4167274030  MEMB      63              0.0000000000
      7325        63  OSM       H11T           -7.5981187146      -12.9038281837       -7.4402464229  MEMB      63              0.0000000000
      7326        63  OSM       C12S           -5.6243506850      -12.0135854798       -7.2456780516  MEMB      63              0.0000000000
      7327        63  OSM       H12S           -5.7570954898      -10.9117286870       -7.3599348569  MEMB      63              0.0000000000
      7328        63  OSM       H12T           -4.6258108349      -12.2699606770       -7.6613028812  MEMB      63              0.0000000000
      7329        63  OSM       C13S           -5.6569806469      -12.3171052898       -5.7335168311  MEMB      63              0.0000000000
      7330        63  OSM       H13S           -6.4767703336      -11.7200611699       -5.2789064267  MEMB      63              0.0000000000
      7331        63  OSM       H13T           -4.7054890085      -11.9571875571       -5.2796846293  MEMB      63              0.0000000000
      7332        63  OSM       C14S           -5.8645690834      -13.7920299670       -5.3466447202  MEMB      63              0.0000000000
      7333        63  OSM       H14S           -4.9874324679      -14.3766765031       -5.7030433697  MEMB      63              0.0000000000
      7334        63  OSM       H14T           -6.7710157810      -14.2037191957       -5.8412492082  MEMB      63              0.0000000000
      7335        63  OSM       C15S           -6.0333890264      -13.9897883037       -3.8275926461  MEMB      63              0.0000000000
      7336        63  OSM       H15S           -5.2258650916      -13.4382537235       -3.2993415432  MEMB      63              0.0000000000
      7337        63  OSM       H15T           -5.9147400867      -15.0709172916       -3.5902105996  MEMB      63              0.0000000000
      7338        63  OSM       C16S           -7.4131171272      -13.5514864540       -3.3021923341  MEMB      63              0.0000000000
      7339        63  OSM       H16S           -8.1899450346      -14.1854727056       -3.7866562588  MEMB      63              0.0000000000
      7340        63  OSM       H16T           -7.6103519529      -12.4964021369       -3.5923753701  MEMB      63              0.0000000000
      7341        63  OSM       C17S           -7.5696369199      -13.6624771498       -1.7774547294  MEMB      63              0.0000000000
      7342        63  OSM       H17S           -7.3050221693      -14.6937580273       -1.4509671661  MEMB      63              0.0000000000
      7343        63  OSM       H17T           -8.6427148746      -13.4962150529       -1.5242417847  MEMB      63              0.0000000000
      7344        63  OSM       C18S           -6.7340777020      -12.6461227338       -0.9984699037  MEMB      63              0.0000000000
      7345        63  OSM       H18S           -6.9334623332      -12.7394838056        0.0901727432  MEMB      63              0.0000000000
      7346        63  OSM       H18T           -6.9846840978      -11.6099748971       -1.3103969731  MEMB      63              0.0000000000
      7347        63  OSM       H18U           -5.6494851349      -12.8098067015       -1.1761777155  MEMB      63              0.0000000000
      7348        63  OSM       C1F            -3.0357301974      -14.5007349375      -15.9777508994  MEMB      63              0.0000000000
      7349        63  OSM       OF             -2.0601693461      -14.7204981982      -16.6797370265  MEMB      63              0.0000000000
      7350        63  OSM       C2F            -3.6250344750      -15.4962595689      -14.9928243376  MEMB      63              0.0000000000
      7351        63  OSM       H2F            -4.1334828514      -16.2755623314      -15.6026507369  MEMB      63              0.0000000000
      7352        63  OSM       H2G            -4.4115642528      -14.9765787044      -14.4063123535  MEMB      63              0.0000000000
      7353        63  OSM       C3F            -2.6963793709      -16.2284549405      -13.9874269912  MEMB      63              0.0000000000
      7354        63  OSM       H3F            -1.8734323812      -16.7329651545      -14.5420629349  MEMB      63              0.0000000000
      7355        63  OSM       H3G            -3.2995261174      -17.0260357943      -13.4966218832  MEMB      63              0.0000000000
      7356        63  OSM       C4F            -2.0752863891      -15.3768438356      -12.8654960059  MEMB      63              0.0000000000
      7357        63  OSM       H4F            -1.4003753982      -14.6431618374      -13.3428025117  MEMB      63              0.0000000000
      7358        63  OSM       H4G            -1.4217864453      -16.0221064945      -12.2342747329  MEMB      63              0.0000000000
      7359        63  OSM       C5F            -3.0215886623      -14.6203891448      -11.9073049763  MEMB      63              0.0000000000
      7360        63  OSM       H5F            -3.1997364252      -15.2611629527      -11.0163269665  MEMB      63              0.0000000000
      7361        63  OSM       H5G            -4.0111352929      -14.4120348890      -12.3600868309  MEMB      63              0.0000000000
      7362        63  OSM       C6F            -2.3763477850      -13.2865056896      -11.4844888959  MEMB      63              0.0000000000
      7363        63  OSM       H6F            -2.6557802339      -12.5040041479      -12.2226111660  MEMB      63              0.0000000000
      7364        63  OSM       H6G            -1.2726773104      -13.4144177974      -11.5555891081  MEMB      63              0.0000000000
      7365        63  OSM       C7F            -2.6700434723      -12.7580675545      -10.0695966250  MEMB      63              0.0000000000
      7366        63  OSM       H7F            -3.7212060154      -12.4400895781      -10.0210132500  MEMB      63              0.0000000000
      7367        63  OSM       H7G            -2.0353079060      -11.8562454889       -9.9043899819  MEMB      63              0.0000000000
      7368        63  OSM       C8F            -2.4450652881      -13.7317401445       -8.9043465737  MEMB      63              0.0000000000
      7369        63  OSM       H8F            -3.2900056129      -14.4541908341       -8.8774203170  MEMB      63              0.0000000000
      7370        63  OSM       H8G            -2.4773524941      -13.1559242823       -7.9516002075  MEMB      63              0.0000000000
      7371        63  OSM       C9F            -1.1208395389      -14.4274388776       -9.0244348209  MEMB      63              0.0000000000
      7372        63  OSM       H9F            -0.3451228395      -13.8702711863       -9.5668319450  MEMB      63              0.0000000000
      7373        63  OSM       C10F           -0.8416273658      -15.6455054088       -8.5534464032  MEMB      63              0.0000000000
      7374        63  OSM       H10F            0.1480582500      -16.0844209642       -8.7624936223  MEMB      63              0.0000000000
      7375        63  OSM       C11F           -1.8301430565      -16.5092187548       -7.8251868790  MEMB      63              0.0000000000
      7376        63  OSM       H11F           -1.4036995273      -17.5222678031       -7.7883943502  MEMB      63              0.0000000000
      7377        63  OSM       H11G           -2.7524740537      -16.6061153625       -8.4429498069  MEMB      63              0.0000000000
      7378        63  OSM       C12F           -2.2971073099      -16.0707691592       -6.4107435400  MEMB      63              0.0000000000
      7379        63  OSM       H12F           -3.1141405927      -16.7646069947       -6.1102301236  MEMB      63              0.0000000000
      7380        63  OSM       H12G           -2.7425250216      -15.0529307063       -6.4523899172  MEMB      63              0.0000000000
      7381        63  OSM       C13F           -1.2304625041      -16.1040423478       -5.3017100690  MEMB      63              0.0000000000
      7382        63  OSM       H13F           -0.7437093572      -15.1102581975       -5.2427987146  MEMB      63              0.0000000000
      7383        63  OSM       H13G           -0.4386111929      -16.8389694563       -5.5622463619  MEMB      63              0.0000000000
      7384        63  OSM       C14F           -1.7850119486      -16.4619117848       -3.9060957995  MEMB      63              0.0000000000
      7385        63  OSM       H14F           -0.9305768097      -16.4828544472       -3.1915524159  MEMB      63              0.0000000000
      7386        63  OSM       H14G           -2.2255911793      -17.4830112409       -3.9275650548  MEMB      63              0.0000000000
      7387        63  OSM       C15F           -2.8438735998      -15.4769580001       -3.3795541698  MEMB      63              0.0000000000
      7388        63  OSM       H15F           -3.8092479484      -15.6645225012       -3.8974317411  MEMB      63              0.0000000000
      7389        63  OSM       H15G           -2.5207791208      -14.4429691615       -3.6390668004  MEMB      63              0.0000000000
      7390        63  OSM       C16F           -3.0361335536      -15.5505026706       -1.8523489756  MEMB      63              0.0000000000
      7391        63  OSM       H16F           -3.4978336326      -14.6041325739       -1.4881491741  MEMB      63              0.0000000000
      7392        63  OSM       H16G           -2.0429348955      -15.6444061169       -1.3683163779  MEMB      63              0.0000000000
      7393        63  OSM       C17F           -3.9390711508      -16.7056598331       -1.4041638182  MEMB      63              0.0000000000
      7394        63  OSM       H17F           -3.7859191514      -17.5687506829       -2.0896049086  MEMB      63              0.0000000000
      7395        63  OSM       H17G           -4.9905112150      -16.3566049941       -1.5037189497  MEMB      63              0.0000000000
      7396        63  OSM       C18F           -3.7325503095      -17.1918884661        0.0282894671  MEMB      63              0.0000000000
      7397        63  OSM       H18F           -3.7206473319      -16.3430886983        0.7439877940  MEMB      63              0.0000000000
      7398        63  OSM       H18G           -2.7759051509      -17.7464464744        0.1119594441  MEMB      63              0.0000000000
      7399        63  OSM       H18H           -4.5445932793      -17.8913880834        0.3210542627  MEMB      63              0.0000000000
      7400        64  CHL1      C3             10.0101047488      -12.8359454877      -17.5982602754  MEMB      64              0.0000000000
      7401        64  CHL1      H3              9.0007580336      -12.5600765287      -17.2082498564  MEMB      64              0.0000000000
      7402        64  CHL1      O3              9.9619967014      -12.9744736832      -19.0076075537  MEMB      64              0.0000000000
      7403        64  CHL1      H3'             9.0389544587      -13.1522251777      -19.2582213014  MEMB      64              0.0000000000
      7404        64  CHL1      C4             11.0143441063      -11.7334613596      -17.2617298800  MEMB      64              0.0000000000
      7405        64  CHL1      H4A            12.0062390273      -12.0264264346      -17.6643577625  MEMB      64              0.0000000000
      7406        64  CHL1      H4B            10.7067347895      -10.8078453777      -17.8010892329  MEMB      64              0.0000000000
      7407        64  CHL1      C5             11.0842413025      -11.5446805091      -15.7661253229  MEMB      64              0.0000000000
      7408        64  CHL1      C6             10.7626689378      -10.3602939345      -15.2299726448  MEMB      64              0.0000000000
      7409        64  CHL1      H6             10.5059488360       -9.5153908384      -15.8861589913  MEMB      64              0.0000000000
      7410        64  CHL1      C7             10.7874618335      -10.0842733298      -13.7629746110  MEMB      64              0.0000000000
      7411        64  CHL1      H7A            11.3140976813       -9.1243225550      -13.5727453957  MEMB      64              0.0000000000
      7412        64  CHL1      H7B             9.7401286999       -9.9727981715      -13.4084813185  MEMB      64              0.0000000000
      7413        64  CHL1      C8             11.4816600655      -11.2048760016      -12.9393194683  MEMB      64              0.0000000000
      7414        64  CHL1      H8             12.5795446905      -11.0674686241      -13.0378990834  MEMB      64              0.0000000000
      7415        64  CHL1      C14            11.0637050187      -11.0727227286      -11.4884599694  MEMB      64              0.0000000000
      7416        64  CHL1      H14             9.9668849525      -11.2955942417      -11.4580827173  MEMB      64              0.0000000000
      7417        64  CHL1      C15            11.1918871601       -9.6651807396      -10.9111616635  MEMB      64              0.0000000000
      7418        64  CHL1      H15A           12.0868711707       -9.2135691526      -11.3778851200  MEMB      64              0.0000000000
      7419        64  CHL1      H15B           10.2976528773       -9.0482988001      -11.1417181152  MEMB      64              0.0000000000
      7420        64  CHL1      C16            11.3747040535       -9.8786498102       -9.4107412436  MEMB      64              0.0000000000
      7421        64  CHL1      H16A           12.4135125832       -9.5976472777       -9.1280586806  MEMB      64              0.0000000000
      7422        64  CHL1      H16B           10.6938888557       -9.2499422505       -8.8218104536  MEMB      64              0.0000000000
      7423        64  CHL1      C17            11.1804124949      -11.4031618488       -9.1600695465  MEMB      64              0.0000000000
      7424        64  CHL1      H17            10.0832848786      -11.6005754786       -9.1337836925  MEMB      64              0.0000000000
      7425        64  CHL1      C13            11.7045887798      -12.0362006546      -10.4900542289  MEMB      64              0.0000000000
      7426        64  CHL1      C18            13.2489899352      -11.9296985480      -10.5071986976  MEMB      64              0.0000000000
      7427        64  CHL1      H18A           13.6796257644      -12.5494441720       -9.6949813270  MEMB      64              0.0000000000
      7428        64  CHL1      H18B           13.6605749468      -12.3027507436      -11.4643807865  MEMB      64              0.0000000000
      7429        64  CHL1      H18C           13.6047017473      -10.8884884267      -10.3829738156  MEMB      64              0.0000000000
      7430        64  CHL1      C12            11.2479561089      -13.4449315483      -10.9370637819  MEMB      64              0.0000000000
      7431        64  CHL1      H12A           11.7355399377      -14.2236995434      -10.3194403966  MEMB      64              0.0000000000
      7432        64  CHL1      H12B           10.1492476022      -13.5229724729      -10.7967184190  MEMB      64              0.0000000000
      7433        64  CHL1      C11            11.5805507188      -13.7140890367      -12.4384013081  MEMB      64              0.0000000000
      7434        64  CHL1      H11A           12.6792146813      -13.8381449527      -12.5290386100  MEMB      64              0.0000000000
      7435        64  CHL1      H11B           11.1116853574      -14.6751035233      -12.7323760695  MEMB      64              0.0000000000
      7436        64  CHL1      C9             11.1111287848      -12.5982412909      -13.4316136622  MEMB      64              0.0000000000
      7437        64  CHL1      H9              9.9996353845      -12.6224212525      -13.3860761362  MEMB      64              0.0000000000
      7438        64  CHL1      C10            11.4275538909      -12.8133556919      -14.9428354553  MEMB      64              0.0000000000
      7439        64  CHL1      C19            12.9465937092      -13.0578469694      -15.1471045361  MEMB      64              0.0000000000
      7440        64  CHL1      H19A           13.5377675814      -12.1685904080      -14.8547420051  MEMB      64              0.0000000000
      7441        64  CHL1      H19B           13.2998976637      -13.9180463633      -14.5524736300  MEMB      64              0.0000000000
      7442        64  CHL1      H19C           13.1634952904      -13.2847459884      -16.2123153183  MEMB      64              0.0000000000
      7443        64  CHL1      C1             10.6034538062      -14.0406157951      -15.4551272390  MEMB      64              0.0000000000
      7444        64  CHL1      H1A            11.0434151442      -14.9739844101      -15.0469772429  MEMB      64              0.0000000000
      7445        64  CHL1      H1B             9.5684049301      -13.9520887848      -15.0582129184  MEMB      64              0.0000000000
      7446        64  CHL1      C2             10.4784174094      -14.1589194950      -16.9866467257  MEMB      64              0.0000000000
      7447        64  CHL1      H2A             9.7650274669      -14.9669633395      -17.2511575572  MEMB      64              0.0000000000
      7448        64  CHL1      H2B            11.4682285696      -14.4112618203      -17.4240057926  MEMB      64              0.0000000000
      7449        64  CHL1      C20            11.7441399917      -11.7841010927       -7.7751722828  MEMB      64              0.0000000000
      7450        64  CHL1      H20            12.8208950383      -11.4926303701       -7.7438054329  MEMB      64              0.0000000000
      7451        64  CHL1      C21            11.6491551092      -13.3002501485       -7.5476689623  MEMB      64              0.0000000000
      7452        64  CHL1      H21A           12.2262372549      -13.8323566356       -8.3242268348  MEMB      64              0.0000000000
      7453        64  CHL1      H21B           10.5891832668      -13.6320522859       -7.5774107803  MEMB      64              0.0000000000
      7454        64  CHL1      H21C           12.0845495444      -13.5754553886       -6.5636237507  MEMB      64              0.0000000000
      7455        64  CHL1      C22            11.0425370513      -11.0273918534       -6.5989767948  MEMB      64              0.0000000000
      7456        64  CHL1      H22A           10.9841200780       -9.9405917986       -6.8218571253  MEMB      64              0.0000000000
      7457        64  CHL1      H22B           10.0031080189      -11.4001569619       -6.4811807774  MEMB      64              0.0000000000
      7458        64  CHL1      C23            11.7842276168      -11.1409938127       -5.2504245309  MEMB      64              0.0000000000
      7459        64  CHL1      H23A           11.6895671323      -12.1760826991       -4.8571230557  MEMB      64              0.0000000000
      7460        64  CHL1      H23B           12.8483484311      -10.9544034078       -5.4836773695  MEMB      64              0.0000000000
      7461        64  CHL1      C24            11.3252647617      -10.1282496309       -4.1770535499  MEMB      64              0.0000000000
      7462        64  CHL1      H24A           11.2749021209       -9.1147059192       -4.6400738596  MEMB      64              0.0000000000
      7463        64  CHL1      H24B           10.3013272116      -10.3903425869       -3.8333684703  MEMB      64              0.0000000000
      7464        64  CHL1      C25            12.2451167807       -9.9886118708       -2.9331987788  MEMB      64              0.0000000000
      7465        64  CHL1      H25            13.0831304329       -9.3134015038       -3.2316905808  MEMB      64              0.0000000000
      7466        64  CHL1      C26            11.5018670260       -9.2921228554       -1.7855305009  MEMB      64              0.0000000000
      7467        64  CHL1      H26A           10.7221599176       -9.9609786822       -1.3588419569  MEMB      64              0.0000000000
      7468        64  CHL1      H26B           12.2076490268       -9.0037678980       -0.9762767677  MEMB      64              0.0000000000
      7469        64  CHL1      H26C           11.0059319768       -8.3742295434       -2.1678041211  MEMB      64              0.0000000000
      7470        64  CHL1      C27            12.8438274333      -11.3146584927       -2.4304448260  MEMB      64              0.0000000000
      7471        64  CHL1      H27A           13.5703593691      -11.7423415987       -3.1516654881  MEMB      64              0.0000000000
      7472        64  CHL1      H27B           13.3804604518      -11.1551735755       -1.4702589522  MEMB      64              0.0000000000
      7473        64  CHL1      H27C           12.0411821068      -12.0623279549       -2.2663083886  MEMB      64              0.0000000000
      7474        65  CHL1      C3             -8.1485872066       15.2567656903      -17.7638417590  MEMB      65              0.0000000000
      7475        65  CHL1      H3             -7.3187293414       14.6990384935      -17.2694867233  MEMB      65              0.0000000000
      7476        65  CHL1      O3             -7.8061626171       15.4730621229      -19.1251281649  MEMB      65              0.0000000000
      7477        65  CHL1      H3'            -7.1753665655       14.7716214515      -19.3843892544  MEMB      65              0.0000000000
      7478        65  CHL1      C4             -9.4574501789       14.4528268528      -17.6790041061  MEMB      65              0.0000000000
      7479        65  CHL1      H4A           -10.2479153016       15.0107281678      -18.2242777274  MEMB      65              0.0000000000
      7480        65  CHL1      H4B            -9.3085397882       13.4949901802      -18.2270756637  MEMB      65              0.0000000000
      7481        65  CHL1      C5             -9.9306050771       14.2267819342      -16.2585265758  MEMB      65              0.0000000000
      7482        65  CHL1      C6            -10.2335936534       12.9964560173      -15.8143789495  MEMB      65              0.0000000000
      7483        65  CHL1      H6            -10.1767831060       12.1421986964      -16.5062320595  MEMB      65              0.0000000000
      7484        65  CHL1      C7            -10.7136812603       12.6893386447      -14.4246366243  MEMB      65              0.0000000000
      7485        65  CHL1      H7A           -11.6973738636       12.1688130371      -14.4633741993  MEMB      65              0.0000000000
      7486        65  CHL1      H7B           -10.0125689046       11.9799000553      -13.9584580905  MEMB      65              0.0000000000
      7487        65  CHL1      C8            -10.8861421452       13.9228519660      -13.4962574854  MEMB      65              0.0000000000
      7488        65  CHL1      H8            -11.9405220660       14.2610578724      -13.6047281826  MEMB      65              0.0000000000
      7489        65  CHL1      C14           -10.5910757166       13.5737564834      -12.0360478414  MEMB      65              0.0000000000
      7490        65  CHL1      H14            -9.4829904478       13.4285237953      -11.9925544261  MEMB      65              0.0000000000
      7491        65  CHL1      C15           -11.1584221455       12.2776495100      -11.4238852207  MEMB      65              0.0000000000
      7492        65  CHL1      H15A          -12.2342678247       12.1746052694      -11.6769371913  MEMB      65              0.0000000000
      7493        65  CHL1      H15B          -10.6103015491       11.3813164683      -11.7791205482  MEMB      65              0.0000000000
      7494        65  CHL1      C16           -10.9728451514       12.4929349200       -9.9103300695  MEMB      65              0.0000000000
      7495        65  CHL1      H16A          -11.9575131265       12.3870285681       -9.4069316729  MEMB      65              0.0000000000
      7496        65  CHL1      H16B          -10.2638496251       11.7618967753       -9.4742541996  MEMB      65              0.0000000000
      7497        65  CHL1      C17           -10.4374738248       13.9512009542       -9.7310428244  MEMB      65              0.0000000000
      7498        65  CHL1      H17            -9.3228267184       13.8852816111       -9.7747858926  MEMB      65              0.0000000000
      7499        65  CHL1      C13           -10.8623789645       14.6834446965      -11.0221633066  MEMB      65              0.0000000000
      7500        65  CHL1      C18           -12.3846691928       14.9807009405      -10.9608802479  MEMB      65              0.0000000000
      7501        65  CHL1      H18A          -12.7595012680       15.3218833216      -11.9455919959  MEMB      65              0.0000000000
      7502        65  CHL1      H18B          -12.9711502610       14.0862323076      -10.6735220255  MEMB      65              0.0000000000
      7503        65  CHL1      H18C          -12.5911205586       15.7827216368      -10.2245151093  MEMB      65              0.0000000000
      7504        65  CHL1      C12           -10.0258043090       15.9179915364      -11.4277240034  MEMB      65              0.0000000000
      7505        65  CHL1      H12A          -10.2920908452       16.8044851136      -10.8214440113  MEMB      65              0.0000000000
      7506        65  CHL1      H12B           -8.9499821327       15.6893592727      -11.2633354947  MEMB      65              0.0000000000
      7507        65  CHL1      C11           -10.2209213581       16.2858237064      -12.9068664995  MEMB      65              0.0000000000
      7508        65  CHL1      H11A          -11.2740856086       16.6106219979      -13.0455134046  MEMB      65              0.0000000000
      7509        65  CHL1      H11B           -9.5617816772       17.1450758283      -13.1425516317  MEMB      65              0.0000000000
      7510        65  CHL1      C9             -9.9635436142       15.0927197503      -13.8629636369  MEMB      65              0.0000000000
      7511        65  CHL1      H9             -8.9249544199       14.7391937089      -13.6454622149  MEMB      65              0.0000000000
      7512        65  CHL1      C10            -9.9517785665       15.4808223504      -15.3611311441  MEMB      65              0.0000000000
      7513        65  CHL1      C19           -11.2574180646       16.2392542163      -15.6992842582  MEMB      65              0.0000000000
      7514        65  CHL1      H19A          -11.3329111922       17.1977043315      -15.1491884268  MEMB      65              0.0000000000
      7515        65  CHL1      H19B          -11.3276039255       16.4772925908      -16.7808093518  MEMB      65              0.0000000000
      7516        65  CHL1      H19C          -12.1481631906       15.6214390791      -15.4497309495  MEMB      65              0.0000000000
      7517        65  CHL1      C1             -8.7223111474       16.4142289824      -15.6080353492  MEMB      65              0.0000000000
      7518        65  CHL1      H1A            -8.9402741702       17.4142380876      -15.1732884489  MEMB      65              0.0000000000
      7519        65  CHL1      H1B            -7.8419959202       15.9959346725      -15.0736932855  MEMB      65              0.0000000000
      7520        65  CHL1      C2             -8.3361848198       16.6117448562      -17.0812564999  MEMB      65              0.0000000000
      7521        65  CHL1      H2A            -7.4084008613       17.2193209763      -17.1453257820  MEMB      65              0.0000000000
      7522        65  CHL1      H2B            -9.1454366612       17.1690495389      -17.6078220757  MEMB      65              0.0000000000
      7523        65  CHL1      C20           -10.7898276336       14.5503884719       -8.3659807077  MEMB      65              0.0000000000
      7524        65  CHL1      H20           -11.8966582603       14.4995383821       -8.2417203514  MEMB      65              0.0000000000
      7525        65  CHL1      C21           -10.3747115889       16.0347748207       -8.2594733112  MEMB      65              0.0000000000
      7526        65  CHL1      H21A          -11.0165080550       16.6675465615       -8.9051698843  MEMB      65              0.0000000000
      7527        65  CHL1      H21B           -9.3117034265       16.1709760861       -8.5423124550  MEMB      65              0.0000000000
      7528        65  CHL1      H21C          -10.5145387897       16.4021239386       -7.2211318752  MEMB      65              0.0000000000
      7529        65  CHL1      C22           -10.1523144454       13.7694416848       -7.1872267679  MEMB      65              0.0000000000
      7530        65  CHL1      H22A           -9.2577697698       13.2010237180       -7.5201784707  MEMB      65              0.0000000000
      7531        65  CHL1      H22B           -9.7929909976       14.5153391253       -6.4418655852  MEMB      65              0.0000000000
      7532        65  CHL1      C23           -11.1502508592       12.8598326084       -6.4541911338  MEMB      65              0.0000000000
      7533        65  CHL1      H23A          -12.0538543673       13.4579169312       -6.2106503796  MEMB      65              0.0000000000
      7534        65  CHL1      H23B          -11.4654301944       12.0281834987       -7.1195708877  MEMB      65              0.0000000000
      7535        65  CHL1      C24           -10.5799560294       12.2842485556       -5.1543610679  MEMB      65              0.0000000000
      7536        65  CHL1      H24A           -9.8641643065       11.4699749699       -5.4021106401  MEMB      65              0.0000000000
      7537        65  CHL1      H24B          -10.0028322080       13.0733626323       -4.6182208089  MEMB      65              0.0000000000
      7538        65  CHL1      C25           -11.6250540733       11.7396278214       -4.1588254597  MEMB      65              0.0000000000
      7539        65  CHL1      H25           -12.2480451271       12.5681025240       -3.7793987273  MEMB      65              0.0000000000
      7540        65  CHL1      C26           -12.7027858763       10.8200195551       -4.7547702694  MEMB      65              0.0000000000
      7541        65  CHL1      H26A          -12.2950231308        9.9916803835       -5.3540231805  MEMB      65              0.0000000000
      7542        65  CHL1      H26B          -13.3259258035       10.3957095011       -3.9383798320  MEMB      65              0.0000000000
      7543        65  CHL1      H26C          -13.3715325892       11.4256652824       -5.4046896863  MEMB      65              0.0000000000
      7544        65  CHL1      C27           -10.8825106865       11.1922936995       -2.9357887840  MEMB      65              0.0000000000
      7545        65  CHL1      H27A          -10.0500727245       10.5332585249       -3.2465137253  MEMB      65              0.0000000000
      7546        65  CHL1      H27B          -10.4383856697       12.0375910187       -2.3648465379  MEMB      65              0.0000000000
      7547        65  CHL1      H27C          -11.5667265782       10.6332240352       -2.2654964328  MEMB      65              0.0000000000
      7548        66  CHL1      C3             -0.6874876750       17.1992181800      -17.3035444206  MEMB      66              0.0000000000
      7549        66  CHL1      H3             -0.0672531639       16.2749621966      -17.2369885797  MEMB      66              0.0000000000
      7550        66  CHL1      O3             -0.8215846492       17.5653495320      -18.6516230026  MEMB      66              0.0000000000
      7551        66  CHL1      H3'            -1.3589893145       18.3681911828      -18.6456333665  MEMB      66              0.0000000000
      7552        66  CHL1      C4             -2.0860106694       16.9591431889      -16.7485771950  MEMB      66              0.0000000000
      7553        66  CHL1      H4A            -2.7214232743       17.8541739686      -16.9150008283  MEMB      66              0.0000000000
      7554        66  CHL1      H4B            -2.5623878878       16.1320559769      -17.3195426714  MEMB      66              0.0000000000
      7555        66  CHL1      C5             -1.9798102057       16.6624421189      -15.2728075239  MEMB      66              0.0000000000
      7556        66  CHL1      C6             -2.3691404834       15.4859516046      -14.7823606493  MEMB      66              0.0000000000
      7557        66  CHL1      H6             -2.7514754844       14.7350759203      -15.4762057704  MEMB      66              0.0000000000
      7558        66  CHL1      C7             -2.3281677841       15.1193435017      -13.3309970961  MEMB      66              0.0000000000
      7559        66  CHL1      H7A            -3.2244953024       14.5293640138      -13.0452134366  MEMB      66              0.0000000000
      7560        66  CHL1      H7B            -1.4358793849       14.4855227554      -13.1719442986  MEMB      66              0.0000000000
      7561        66  CHL1      C8             -2.1976832477       16.3728976898      -12.4366721289  MEMB      66              0.0000000000
      7562        66  CHL1      H8             -3.1499728080       16.9417404306      -12.5065639558  MEMB      66              0.0000000000
      7563        66  CHL1      C14            -1.9451646276       15.9896589140      -10.9786368449  MEMB      66              0.0000000000
      7564        66  CHL1      H14            -0.9749360426       15.4292863653      -10.9751135186  MEMB      66              0.0000000000
      7565        66  CHL1      C15            -2.9488724356       15.0503214433      -10.2866902814  MEMB      66              0.0000000000
      7566        66  CHL1      H15A           -3.9800044979       15.3674899307      -10.5524166202  MEMB      66              0.0000000000
      7567        66  CHL1      H15B           -2.8095990252       13.9946885517      -10.5913812518  MEMB      66              0.0000000000
      7568        66  CHL1      C16            -2.6924670672       15.2688290585       -8.7849952690  MEMB      66              0.0000000000
      7569        66  CHL1      H16A           -3.6561415737       15.5323703087       -8.2986563178  MEMB      66              0.0000000000
      7570        66  CHL1      H16B           -2.2788057645       14.3618365566       -8.2994031208  MEMB      66              0.0000000000
      7571        66  CHL1      C17            -1.6879985845       16.4619419677       -8.6612517579  MEMB      66              0.0000000000
      7572        66  CHL1      H17            -0.6679984258       16.0158090389       -8.6144864135  MEMB      66              0.0000000000
      7573        66  CHL1      C13            -1.7600352894       17.1763023960      -10.0313630729  MEMB      66              0.0000000000
      7574        66  CHL1      C18            -3.0105766218       18.0898125828      -10.0434587413  MEMB      66              0.0000000000
      7575        66  CHL1      H18A           -3.2107248737       18.4897256730      -11.0552719740  MEMB      66              0.0000000000
      7576        66  CHL1      H18B           -3.9153287439       17.5490118566       -9.7084973329  MEMB      66              0.0000000000
      7577        66  CHL1      H18C           -2.8601415719       18.9605486832       -9.3777853375  MEMB      66              0.0000000000
      7578        66  CHL1      C12            -0.4942675025       17.8972031899      -10.5226138390  MEMB      66              0.0000000000
      7579        66  CHL1      H12A           -0.2109626215       18.7583315568       -9.8934273500  MEMB      66              0.0000000000
      7580        66  CHL1      H12B            0.3259743249       17.1656072913      -10.4878983790  MEMB      66              0.0000000000
      7581        66  CHL1      C11            -0.6343104369       18.3582556537      -11.9803992948  MEMB      66              0.0000000000
      7582        66  CHL1      H11A           -1.4107225858       19.1445874572      -11.9816767852  MEMB      66              0.0000000000
      7583        66  CHL1      H11B            0.3274764669       18.8022861499      -12.3143332996  MEMB      66              0.0000000000
      7584        66  CHL1      C9             -1.0522510808       17.2425039564      -12.9677523799  MEMB      66              0.0000000000
      7585        66  CHL1      H9             -0.1737033566       16.5487532330      -13.0181636960  MEMB      66              0.0000000000
      7586        66  CHL1      C10            -1.2938262220       17.7395081956      -14.4214429185  MEMB      66              0.0000000000
      7587        66  CHL1      C19            -2.1822898367       19.0146347358      -14.4250429277  MEMB      66              0.0000000000
      7588        66  CHL1      H19A           -3.1506757053       18.8171195288      -13.9217710511  MEMB      66              0.0000000000
      7589        66  CHL1      H19B           -1.6748462989       19.8511750341      -13.9076634559  MEMB      66              0.0000000000
      7590        66  CHL1      H19C           -2.3888745724       19.3741696058      -15.4524369107  MEMB      66              0.0000000000
      7591        66  CHL1      C1              0.0832752799       18.0382156366      -15.0741821005  MEMB      66              0.0000000000
      7592        66  CHL1      H1A             0.5747100882       18.8789452200      -14.5463466820  MEMB      66              0.0000000000
      7593        66  CHL1      H1B             0.7334665123       17.1421944256      -14.9520931148  MEMB      66              0.0000000000
      7594        66  CHL1      C2              0.0033168312       18.3461122415      -16.5719301141  MEMB      66              0.0000000000
      7595        66  CHL1      H2A             1.0056009086       18.5161693480      -17.0118854817  MEMB      66              0.0000000000
      7596        66  CHL1      H2B            -0.5712004878       19.2789238356      -16.7151336356  MEMB      66              0.0000000000
      7597        66  CHL1      C20            -1.8916617528       17.2584066837       -7.3522461584  MEMB      66              0.0000000000
      7598        66  CHL1      H20            -2.9374021727       17.6454428427       -7.3422314342  MEMB      66              0.0000000000
      7599        66  CHL1      C21            -0.9670557123       18.4967423529       -7.2787318346  MEMB      66              0.0000000000
      7600        66  CHL1      H21A            0.0974536490       18.1935372822       -7.2470828500  MEMB      66              0.0000000000
      7601        66  CHL1      H21B           -1.1974245206       19.1061737651       -6.3802533104  MEMB      66              0.0000000000
      7602        66  CHL1      H21C           -1.1285501307       19.1707261202       -8.1391576786  MEMB      66              0.0000000000
      7603        66  CHL1      C22            -1.7350449834       16.3431924704       -6.0926318239  MEMB      66              0.0000000000
      7604        66  CHL1      H22A           -2.7198018570       15.8791624204       -5.8704830412  MEMB      66              0.0000000000
      7605        66  CHL1      H22B           -1.0284760699       15.5182695422       -6.3361179938  MEMB      66              0.0000000000
      7606        66  CHL1      C23            -1.1940192975       17.0328487082       -4.8214693197  MEMB      66              0.0000000000
      7607        66  CHL1      H23A           -0.1396521384       17.3330626788       -5.0249101105  MEMB      66              0.0000000000
      7608        66  CHL1      H23B           -1.7766360384       17.9571213371       -4.6111174755  MEMB      66              0.0000000000
      7609        66  CHL1      C24            -1.1976388851       16.1659363634       -3.5434495685  MEMB      66              0.0000000000
      7610        66  CHL1      H24A           -2.1856759081       16.2651817089       -3.0459429905  MEMB      66              0.0000000000
      7611        66  CHL1      H24B           -1.0740653300       15.0963575181       -3.8128179530  MEMB      66              0.0000000000
      7612        66  CHL1      C25            -0.0767492985       16.5636824417       -2.5529167082  MEMB      66              0.0000000000
      7613        66  CHL1      H25             0.9072536231       16.3748768272       -3.0394784786  MEMB      66              0.0000000000
      7614        66  CHL1      C26            -0.1165763284       18.0521031846       -2.2472009230  MEMB      66              0.0000000000
      7615        66  CHL1      H26A            0.6648016164       18.3153008490       -1.5103276841  MEMB      66              0.0000000000
      7616        66  CHL1      H26B            0.0858437371       18.6283680497       -3.1685469534  MEMB      66              0.0000000000
      7617        66  CHL1      H26C           -1.1049783495       18.3445704516       -1.8427098235  MEMB      66              0.0000000000
      7618        66  CHL1      C27            -0.1016074352       15.7682470680       -1.2435503273  MEMB      66              0.0000000000
      7619        66  CHL1      H27A           -1.0371725577       15.9821971302       -0.6843642164  MEMB      66              0.0000000000
      7620        66  CHL1      H27B           -0.0352857889       14.6814334057       -1.4513959099  MEMB      66              0.0000000000
      7621        66  CHL1      H27C            0.7590494702       16.0544271553       -0.6018998488  MEMB      66              0.0000000000
      7622        67  SAPE      N              18.6582317847        0.7596216884      -20.8546271351  MEMB      67              0.0000000000
      7623        67  SAPE      HN1            17.6470556978        0.6444283775      -20.6031544861  MEMB      67              0.0000000000
      7624        67  SAPE      HN2            18.7936228880        0.5015943153      -21.8504996335  MEMB      67              0.0000000000
      7625        67  SAPE      HN3            19.2709855726        0.1292479397      -20.2788590889  MEMB      67              0.0000000000
      7626        67  SAPE      C12            19.1608090404        2.1446551311      -20.5336022554  MEMB      67              0.0000000000
      7627        67  SAPE      H12A           20.2652595512        2.0999839045      -20.4382507122  MEMB      67              0.0000000000
      7628        67  SAPE      H12B           18.7542508213        2.4322666035      -19.5425780401  MEMB      67              0.0000000000
      7629        67  SAPE      C11            18.7761841003        3.1617440568      -21.6289120483  MEMB      67              0.0000000000
      7630        67  SAPE      H11A           19.3443003162        2.9418979752      -22.5614314120  MEMB      67              0.0000000000
      7631        67  SAPE      H11B           19.1378828730        4.1644561721      -21.3027305153  MEMB      67              0.0000000000
      7632        67  SAPE      P              16.2815167008        3.3640027962      -20.7948415376  MEMB      67              0.0000000000
      7633        67  SAPE      O13            15.1262197870        4.1433816954      -21.3113546838  MEMB      67              0.0000000000
      7634        67  SAPE      O14            15.9693125590        2.0094017489      -20.2977446419  MEMB      67              0.0000000000
      7635        67  SAPE      O12            17.3739890118        3.1835879278      -21.9387203497  MEMB      67              0.0000000000
      7636        67  SAPE      O11            17.0638182834        4.2111871492      -19.7036655223  MEMB      67              0.0000000000
      7637        67  SAPE      C1             17.2280818904        5.6035316695      -19.9980610044  MEMB      67              0.0000000000
      7638        67  SAPE      HA             17.8760822100        5.7516996413      -20.8901081459  MEMB      67              0.0000000000
      7639        67  SAPE      HB             16.2433454571        6.0902083100      -20.2018380042  MEMB      67              0.0000000000
      7640        67  SAPE      C2             17.8945444680        6.3823931768      -18.8423115126  MEMB      67              0.0000000000
      7641        67  SAPE      HS             18.5076313466        7.2024153465      -19.2862305333  MEMB      67              0.0000000000
      7642        67  SAPE      O21            18.7026371618        5.5528665940      -17.9893911082  MEMB      67              0.0000000000
      7643        67  SAPE      C21            19.9300591090        5.2515609733      -18.4086736464  MEMB      67              0.0000000000
      7644        67  SAPE      O22            20.2891732532        5.4209447736      -19.5624786375  MEMB      67              0.0000000000
      7645        67  SAPE      C22            20.7581600569        4.6499467318      -17.1643151892  MEMB      67              0.0000000000
      7646        67  SAPE      H2R            19.9778488763        4.1929001238      -16.5645456719  MEMB      67              0.0000000000
      7647        67  SAPE      H2S            21.2844162175        3.7997041988      -17.6487103357  MEMB      67              0.0000000000
      7648        67  SAPE      C3             16.7912350840        7.0616944761      -17.9794046815  MEMB      67              0.0000000000
      7649        67  SAPE      HX             16.1902372084        7.7387497957      -18.6220250134  MEMB      67              0.0000000000
      7650        67  SAPE      HY             17.3175042760        7.6886804618      -17.2207062539  MEMB      67              0.0000000000
      7651        67  SAPE      O31            15.9197916360        6.0603715054      -17.4136169719  MEMB      67              0.0000000000
      7652        67  SAPE      C31            15.6212535558        6.2083686556      -16.1228324241  MEMB      67              0.0000000000
      7653        67  SAPE      O32            15.8377093535        7.2226437208      -15.4764461530  MEMB      67              0.0000000000
      7654        67  SAPE      C32            15.2048226161        4.8202704805      -15.5954013121  MEMB      67              0.0000000000
      7655        67  SAPE      H2X            16.0707655613        4.1406819351      -15.7081306062  MEMB      67              0.0000000000
      7656        67  SAPE      H2Y            14.4000511426        4.4701840277      -16.2824053982  MEMB      67              0.0000000000
      7657        67  SAPE      C23            21.9273983721        5.4051439082      -16.2757920795  MEMB      67              0.0000000000
      7658        67  SAPE      H3R            22.2732359070        6.2876383454      -16.7912694119  MEMB      67              0.0000000000
      7659        67  SAPE      H3S            22.7420262085        4.6518198395      -16.3714392872  MEMB      67              0.0000000000
      7660        67  SAPE      C24            22.1609260632        5.8057568734      -14.7130419606  MEMB      67              0.0000000000
      7661        67  SAPE      H4R            23.2787387371        5.8604477209      -14.7853761991  MEMB      67              0.0000000000
      7662        67  SAPE      H4S            22.0456862458        4.9202666106      -14.1452382071  MEMB      67              0.0000000000
      7663        67  SAPE      C25            21.9485278240        7.0149963082      -13.7731040784  MEMB      67              0.0000000000
      7664        67  SAPE      H5R            22.3062710186        7.9149477901      -14.2838849864  MEMB      67              0.0000000000
      7665        67  SAPE      C26            21.4442515921        7.2335459258      -12.4959864386  MEMB      67              0.0000000000
      7666        67  SAPE      H6R            21.5497566916        8.2619880853      -12.1493041310  MEMB      67              0.0000000000
      7667        67  SAPE      C27            20.8399463689        6.4005476619      -11.3428866424  MEMB      67              0.0000000000
      7668        67  SAPE      H7R            21.1906660640        5.3726904308      -11.3304110691  MEMB      67              0.0000000000
      7669        67  SAPE      H7S            19.7550043125        6.2876220111      -11.5346952032  MEMB      67              0.0000000000
      7670        67  SAPE      C28            20.9788547223        6.8307066380       -9.9005937929  MEMB      67              0.0000000000
      7671        67  SAPE      H8R            21.9934952435        6.6565106432       -9.5071057080  MEMB      67              0.0000000000
      7672        67  SAPE      C29            20.0446825345        7.2677306975       -9.0204662885  MEMB      67              0.0000000000
      7673        67  SAPE      H9R            20.4062754020        7.5078585165       -8.0084002691  MEMB      67              0.0000000000
      7674        67  SAPE      C210           18.5449778707        7.4815047217       -9.1221502429  MEMB      67              0.0000000000
      7675        67  SAPE      H10R           18.3154576401        8.5300865301       -9.3715633710  MEMB      67              0.0000000000
      7676        67  SAPE      H10S           18.1563921822        7.4199636575       -8.0818176895  MEMB      67              0.0000000000
      7677        67  SAPE      C211           17.6498678779        6.6520346436       -9.9973370083  MEMB      67              0.0000000000
      7678        67  SAPE      H11R           17.5873354696        6.9499530600      -11.0572106536  MEMB      67              0.0000000000
      7679        67  SAPE      C212           16.9484887345        5.5973466176       -9.5686530351  MEMB      67              0.0000000000
      7680        67  SAPE      H12R           16.2479538153        5.1227553484      -10.2665417098  MEMB      67              0.0000000000
      7681        67  SAPE      C213           16.9655121893        5.0936847780       -8.1504265402  MEMB      67              0.0000000000
      7682        67  SAPE      H13R           16.6782640990        5.9218275753       -7.4669253636  MEMB      67              0.0000000000
      7683        67  SAPE      H13S           18.0198509614        4.8398716315       -7.9027095693  MEMB      67              0.0000000000
      7684        67  SAPE      C214           16.0736952955        3.9167875373       -7.8459569971  MEMB      67              0.0000000000
      7685        67  SAPE      H14R           15.3082289735        3.6665178605       -8.5968591006  MEMB      67              0.0000000000
      7686        67  SAPE      C215           16.1783373891        3.1561356663       -6.7433571412  MEMB      67              0.0000000000
      7687        67  SAPE      H15R           15.4980816234        2.3004291717       -6.6158510593  MEMB      67              0.0000000000
      7688        67  SAPE      C216           17.1924743078        3.3420295914       -5.6395798631  MEMB      67              0.0000000000
      7689        67  SAPE      H16R           18.0769385555        3.9223467103       -5.9833942913  MEMB      67              0.0000000000
      7690        67  SAPE      H16S           17.5841183539        2.3448177664       -5.3456657737  MEMB      67              0.0000000000
      7691        67  SAPE      C217           16.6904215128        4.0209568698       -4.3506589888  MEMB      67              0.0000000000
      7692        67  SAPE      H17R           17.1143479292        3.4496356292       -3.4945412783  MEMB      67              0.0000000000
      7693        67  SAPE      H17S           15.5834586788        3.9382962473       -4.2625334707  MEMB      67              0.0000000000
      7694        67  SAPE      C218           17.1918663480        5.4721564788       -4.1923219684  MEMB      67              0.0000000000
      7695        67  SAPE      H18R           16.5725057262        6.1391857646       -4.8297656269  MEMB      67              0.0000000000
      7696        67  SAPE      H18S           18.2430418380        5.5679196224       -4.5511618198  MEMB      67              0.0000000000
      7697        67  SAPE      C219           17.1362031232        5.9517861808       -2.7315729595  MEMB      67              0.0000000000
      7698        67  SAPE      H19R           17.8191771438        5.3647781411       -2.0813539477  MEMB      67              0.0000000000
      7699        67  SAPE      H19S           16.1248305570        5.7350148447       -2.3439717164  MEMB      67              0.0000000000
      7700        67  SAPE      C220           17.3957729759        7.4469963716       -2.5341542301  MEMB      67              0.0000000000
      7701        67  SAPE      H20R           16.4500469820        8.0211181044       -2.5290841209  MEMB      67              0.0000000000
      7702        67  SAPE      H20S           18.0538584156        7.8559676263       -3.3283984034  MEMB      67              0.0000000000
      7703        67  SAPE      H20T           17.8526030360        7.6281294753       -1.5435604166  MEMB      67              0.0000000000
      7704        67  SAPE      C33            14.6161905467        4.7637626530      -14.1604655117  MEMB      67              0.0000000000
      7705        67  SAPE      H3X            13.8325795789        3.9705621600      -14.1409998946  MEMB      67              0.0000000000
      7706        67  SAPE      H3Y            14.0879144069        5.7248405868      -13.9652763002  MEMB      67              0.0000000000
      7707        67  SAPE      C34            15.5839858233        4.5140150533      -12.9951277635  MEMB      67              0.0000000000
      7708        67  SAPE      H4X            15.0071549563        4.7362334373      -12.0658522848  MEMB      67              0.0000000000
      7709        67  SAPE      H4Y            16.4049987920        5.2613199114      -13.0434368514  MEMB      67              0.0000000000
      7710        67  SAPE      C35            16.1404648143        3.0800719114      -12.8281202311  MEMB      67              0.0000000000
      7711        67  SAPE      H5X            16.8062063269        2.8396609485      -13.6833601478  MEMB      67              0.0000000000
      7712        67  SAPE      H5Y            15.2958852618        2.3549630907      -12.8318159787  MEMB      67              0.0000000000
      7713        67  SAPE      C36            16.9053015442        2.9859557417      -11.4931849429  MEMB      67              0.0000000000
      7714        67  SAPE      H6X            16.1682588257        3.1134889135      -10.6700891495  MEMB      67              0.0000000000
      7715        67  SAPE      H6Y            17.6126799441        3.8453445655      -11.4734492531  MEMB      67              0.0000000000
      7716        67  SAPE      C37            17.7351375427        1.7393784904      -11.1650796851  MEMB      67              0.0000000000
      7717        67  SAPE      H7X            18.4419949608        1.5375241163      -11.9976475726  MEMB      67              0.0000000000
      7718        67  SAPE      H7Y            17.0685561672        0.8538492192      -11.0807234781  MEMB      67              0.0000000000
      7719        67  SAPE      C38            18.5347249438        1.8961245684       -9.8392250358  MEMB      67              0.0000000000
      7720        67  SAPE      H8X            19.0031767288        0.9139807224       -9.6590812133  MEMB      67              0.0000000000
      7721        67  SAPE      H8Y            17.8756229886        2.1434494397       -8.9858556977  MEMB      67              0.0000000000
      7722        67  SAPE      C39            19.7105670732        2.8742837901       -9.9254773493  MEMB      67              0.0000000000
      7723        67  SAPE      H9X            19.3826125257        3.9110883339      -10.1390836095  MEMB      67              0.0000000000
      7724        67  SAPE      H9Y            20.2362780854        2.4311031050      -10.7858114307  MEMB      67              0.0000000000
      7725        67  SAPE      C310           20.8793182328        2.8352249387       -8.9351204429  MEMB      67              0.0000000000
      7726        67  SAPE      H10X           21.6928455314        3.4875789464       -9.3352147461  MEMB      67              0.0000000000
      7727        67  SAPE      H10Y           21.2770677922        1.7967699778       -8.9225758481  MEMB      67              0.0000000000
      7728        67  SAPE      C311           20.5958100054        3.2759981804       -7.5123116161  MEMB      67              0.0000000000
      7729        67  SAPE      H11X           19.7094143179        2.7025616429       -7.1580547403  MEMB      67              0.0000000000
      7730        67  SAPE      H11Y           20.3342742988        4.3535596119       -7.4468413041  MEMB      67              0.0000000000
      7731        67  SAPE      C312           21.8128980073        2.9566427619       -6.6368266423  MEMB      67              0.0000000000
      7732        67  SAPE      H12X           22.5194102716        3.8114808586       -6.5889028966  MEMB      67              0.0000000000
      7733        67  SAPE      H12Y           22.3617346858        2.0908774473       -7.0813277818  MEMB      67              0.0000000000
      7734        67  SAPE      C313           21.3736611220        2.5176825010       -5.2518451374  MEMB      67              0.0000000000
      7735        67  SAPE      H13X           22.2051750034        1.9928500500       -4.7305139418  MEMB      67              0.0000000000
      7736        67  SAPE      H13Y           20.5439033729        1.8004668188       -5.3996926715  MEMB      67              0.0000000000
      7737        67  SAPE      C314           20.8571095931        3.6509919979       -4.3768662637  MEMB      67              0.0000000000
      7738        67  SAPE      H14X           19.9866529330        4.1536707629       -4.8503540708  MEMB      67              0.0000000000
      7739        67  SAPE      H14Y           21.6675309634        4.4059245661       -4.2915261394  MEMB      67              0.0000000000
      7740        67  SAPE      C315           20.4675622276        3.1006577267       -3.0029131897  MEMB      67              0.0000000000
      7741        67  SAPE      H15X           21.1987589433        2.3118136715       -2.7300409291  MEMB      67              0.0000000000
      7742        67  SAPE      H15Y           19.4604249559        2.6266835232       -3.0601514418  MEMB      67              0.0000000000
      7743        67  SAPE      C316           20.4779288411        4.1614020564       -1.9062597923  MEMB      67              0.0000000000
      7744        67  SAPE      H16X           20.1565513856        3.7121133671       -0.9402241966  MEMB      67              0.0000000000
      7745        67  SAPE      H16Y           19.7271427655        4.9223878304       -2.1926784171  MEMB      67              0.0000000000
      7746        67  SAPE      C317           21.8251295684        4.8718914258       -1.7233880639  MEMB      67              0.0000000000
      7747        67  SAPE      H17X           22.6165357725        4.3932870962       -2.3425487862  MEMB      67              0.0000000000
      7748        67  SAPE      H17Y           22.1445442885        4.7284776139       -0.6690269232  MEMB      67              0.0000000000
      7749        67  SAPE      C318           21.7424726728        6.3727394080       -2.0362922216  MEMB      67              0.0000000000
      7750        67  SAPE      H18X           22.2240506984        6.6017625990       -3.0098796725  MEMB      67              0.0000000000
      7751        67  SAPE      H18Y           22.2475887640        6.9631562797       -1.2422550709  MEMB      67              0.0000000000
      7752        67  SAPE      H18Z           20.6884368000        6.7178583943       -2.0762890877  MEMB      67              0.0000000000
      7753        68  SOPE      N              13.7997972206       14.2375262241      -23.7483883978  MEMB      68              0.0000000000
      7754        68  SOPE      HN1            13.8989035272       14.9774914888      -23.0084966212  MEMB      68              0.0000000000
      7755        68  SOPE      HN2            14.7470594885       13.8534300454      -23.8893530595  MEMB      68              0.0000000000
      7756        68  SOPE      HN3            13.3889371810       14.6582234567      -24.5985287835  MEMB      68              0.0000000000
      7757        68  SOPE      C12            12.9650214725       13.1578239578      -23.1223087509  MEMB      68              0.0000000000
      7758        68  SOPE      H12A           12.6706230221       12.4470113526      -23.9171078869  MEMB      68              0.0000000000
      7759        68  SOPE      H12B           12.0583248515       13.6402875468      -22.7054093292  MEMB      68              0.0000000000
      7760        68  SOPE      C11            13.7582702918       12.4474108751      -22.0052386551  MEMB      68              0.0000000000
      7761        68  SOPE      H11A           14.3059908000       11.5943394442      -22.4654585329  MEMB      68              0.0000000000
      7762        68  SOPE      H11B           13.0536136666       11.9954832089      -21.2668146079  MEMB      68              0.0000000000
      7763        68  SOPE      P              14.2773732409       14.4942913947      -20.4477808070  MEMB      68              0.0000000000
      7764        68  SOPE      O13            13.5930857869       15.5029917986      -21.3032081849  MEMB      68              0.0000000000
      7765        68  SOPE      O14            15.4674098295       14.9711669602      -19.7114305470  MEMB      68              0.0000000000
      7766        68  SOPE      O12            14.7227207870       13.3020289851      -21.3843395495  MEMB      68              0.0000000000
      7767        68  SOPE      O11            13.2326236536       13.7933229545      -19.5038937272  MEMB      68              0.0000000000
      7768        68  SOPE      C1             11.8333592897       14.0727281159      -19.6410188449  MEMB      68              0.0000000000
      7769        68  SOPE      HA             11.3798210660       13.3954532700      -20.3978884854  MEMB      68              0.0000000000
      7770        68  SOPE      HB             11.6325909966       15.1195932858      -19.9644475072  MEMB      68              0.0000000000
      7771        68  SOPE      C2             11.0828536570       13.8739828679      -18.2942119593  MEMB      68              0.0000000000
      7772        68  SOPE      HS             10.0714272192       14.3351804567      -18.3789983399  MEMB      68              0.0000000000
      7773        68  SOPE      O21            11.7489350995       14.4297315796      -17.1519813028  MEMB      68              0.0000000000
      7774        68  SOPE      C21            12.5965951065       15.4175738065      -17.2583214306  MEMB      68              0.0000000000
      7775        68  SOPE      O22            12.5576786374       16.3644482939      -18.0363040052  MEMB      68              0.0000000000
      7776        68  SOPE      C22            13.7378817270       15.2048255729      -16.2763841055  MEMB      68              0.0000000000
      7777        68  SOPE      H2R            14.6306473647       14.9547536290      -16.8823168911  MEMB      68              0.0000000000
      7778        68  SOPE      H2S            13.5131669856       14.3423418043      -15.6173638387  MEMB      68              0.0000000000
      7779        68  SOPE      C3             10.8919233864       12.3399293452      -18.0482333908  MEMB      68              0.0000000000
      7780        68  SOPE      HX             10.2063874308       11.9746781865      -18.8440700958  MEMB      68              0.0000000000
      7781        68  SOPE      HY             10.3579054076       12.1949341670      -17.0774801219  MEMB      68              0.0000000000
      7782        68  SOPE      O31            12.1456628561       11.5936831877      -18.1367143286  MEMB      68              0.0000000000
      7783        68  SOPE      C31            12.8846587348       11.7243752374      -17.0141664401  MEMB      68              0.0000000000
      7784        68  SOPE      O32            12.4178656566       12.1280879772      -15.9687482002  MEMB      68              0.0000000000
      7785        68  SOPE      C32            14.3139036599       11.1726647413      -17.1806289207  MEMB      68              0.0000000000
      7786        68  SOPE      H2X            14.5311606781       11.1388387495      -18.2662955789  MEMB      68              0.0000000000
      7787        68  SOPE      H2Y            14.3170343639       10.1326876583      -16.7908811523  MEMB      68              0.0000000000
      7788        68  SOPE      C23            14.0142391490       16.4560589274      -15.4282536439  MEMB      68              0.0000000000
      7789        68  SOPE      H3R            13.8103268509       17.3940373277      -15.9843383345  MEMB      68              0.0000000000
      7790        68  SOPE      H3S            15.0912254991       16.4427768527      -15.1732045028  MEMB      68              0.0000000000
      7791        68  SOPE      C24            13.2101631050       16.3956899318      -14.1361982836  MEMB      68              0.0000000000
      7792        68  SOPE      H4R            12.1539824312       16.1466542483      -14.3919990347  MEMB      68              0.0000000000
      7793        68  SOPE      H4S            13.5861420161       15.5537560690      -13.5065467125  MEMB      68              0.0000000000
      7794        68  SOPE      C25            13.2087294441       17.6803764466      -13.2995086066  MEMB      68              0.0000000000
      7795        68  SOPE      H5R            14.1912114602       17.7967695545      -12.7972106628  MEMB      68              0.0000000000
      7796        68  SOPE      H5S            13.0282069943       18.5597856992      -13.9461708710  MEMB      68              0.0000000000
      7797        68  SOPE      C26            12.1024272770       17.5269192731      -12.2525413236  MEMB      68              0.0000000000
      7798        68  SOPE      H6R            11.1338911614       17.5500406489      -12.7871143400  MEMB      68              0.0000000000
      7799        68  SOPE      H6S            12.2849151487       16.4938665068      -11.8972062992  MEMB      68              0.0000000000
      7800        68  SOPE      C27            12.0630777704       18.5143439780      -11.0714564144  MEMB      68              0.0000000000
      7801        68  SOPE      H7R            13.0661445807       18.9772427165      -10.9670975819  MEMB      68              0.0000000000
      7802        68  SOPE      H7S            11.3673980503       19.3434378578      -11.3398077176  MEMB      68              0.0000000000
      7803        68  SOPE      C28            11.6270000579       17.9394812521       -9.6774557418  MEMB      68              0.0000000000
      7804        68  SOPE      H8R            12.3152127510       18.3503550451       -8.9202021475  MEMB      68              0.0000000000
      7805        68  SOPE      H8S            10.6629586306       18.4304288676       -9.4356126653  MEMB      68              0.0000000000
      7806        68  SOPE      C29            11.4886532298       16.4379714506       -9.4885980734  MEMB      68              0.0000000000
      7807        68  SOPE      H91            11.3580889722       15.8757020983      -10.4191790901  MEMB      68              0.0000000000
      7808        68  SOPE      C210           11.3584876491       15.6789274126       -8.3852087272  MEMB      68              0.0000000000
      7809        68  SOPE      H101           11.2177620175       14.6080936515       -8.5373374386  MEMB      68              0.0000000000
      7810        68  SOPE      C211           11.3006709255       16.0267587195       -6.9308746134  MEMB      68              0.0000000000
      7811        68  SOPE      H11R           11.2699772228       17.1259738259       -6.8142797542  MEMB      68              0.0000000000
      7812        68  SOPE      H11S           12.2222502753       15.6701067661       -6.4235126201  MEMB      68              0.0000000000
      7813        68  SOPE      C212           10.0529138101       15.3731665918       -6.2781706172  MEMB      68              0.0000000000
      7814        68  SOPE      H12R            9.2928656252       15.0964602759       -7.0442146651  MEMB      68              0.0000000000
      7815        68  SOPE      H12S            9.5462141967       16.0871527132       -5.6141790664  MEMB      68              0.0000000000
      7816        68  SOPE      C213           10.3135209316       14.1395472636       -5.4072406732  MEMB      68              0.0000000000
      7817        68  SOPE      H13R           10.7824684324       13.3772496659       -6.0542333584  MEMB      68              0.0000000000
      7818        68  SOPE      H13S            9.3344472280       13.7314820305       -5.0623089570  MEMB      68              0.0000000000
      7819        68  SOPE      C214           11.2079112970       14.3336843340       -4.1710850647  MEMB      68              0.0000000000
      7820        68  SOPE      H14R           10.7506388679       15.0325747155       -3.4397473035  MEMB      68              0.0000000000
      7821        68  SOPE      H14S           12.1913102933       14.7466778941       -4.4841830575  MEMB      68              0.0000000000
      7822        68  SOPE      C215           11.4274562270       12.9588927508       -3.5379499953  MEMB      68              0.0000000000
      7823        68  SOPE      H15R           11.6645991670       12.2960656762       -4.3996836745  MEMB      68              0.0000000000
      7824        68  SOPE      H15S           10.4877294608       12.5951558571       -3.0670056900  MEMB      68              0.0000000000
      7825        68  SOPE      C216           12.6033241188       12.8006686801       -2.5737680497  MEMB      68              0.0000000000
      7826        68  SOPE      H16R           13.5496304653       13.1028905012       -3.0748667742  MEMB      68              0.0000000000
      7827        68  SOPE      H16S           12.6768036160       11.7124736008       -2.3461517207  MEMB      68              0.0000000000
      7828        68  SOPE      C217           12.4673847933       13.5481461768       -1.2514236927  MEMB      68              0.0000000000
      7829        68  SOPE      H17R           11.5327813270       13.2276963041       -0.7374382740  MEMB      68              0.0000000000
      7830        68  SOPE      H17S           12.3802353330       14.6397434142       -1.4487528186  MEMB      68              0.0000000000
      7831        68  SOPE      C218           13.6621983125       13.2831889285       -0.3378805464  MEMB      68              0.0000000000
      7832        68  SOPE      H18R           14.1316674267       14.2294569926        0.0029167149  MEMB      68              0.0000000000
      7833        68  SOPE      H18S           14.4339355577       12.6857265429       -0.8731175140  MEMB      68              0.0000000000
      7834        68  SOPE      H18T           13.3444230607       12.7055425142        0.5573508886  MEMB      68              0.0000000000
      7835        68  SOPE      C33            15.4367292467       11.9891354796      -16.4578215015  MEMB      68              0.0000000000
      7836        68  SOPE      H3X            15.4881427608       13.0127388808      -16.8848497484  MEMB      68              0.0000000000
      7837        68  SOPE      H3Y            16.4152942777       11.5001852088      -16.6727423391  MEMB      68              0.0000000000
      7838        68  SOPE      C34            15.3003502540       12.0568690619      -14.9215294458  MEMB      68              0.0000000000
      7839        68  SOPE      H4X            15.4608949544       11.0495397381      -14.4777420260  MEMB      68              0.0000000000
      7840        68  SOPE      H4Y            14.2800596591       12.4072512100      -14.6725029017  MEMB      68              0.0000000000
      7841        68  SOPE      C35            16.1764512039       13.0928223771      -14.2175659835  MEMB      68              0.0000000000
      7842        68  SOPE      H5X            15.8718885532       14.0960051125      -14.5950785846  MEMB      68              0.0000000000
      7843        68  SOPE      H5Y            17.2321658916       12.9224804580      -14.4795763662  MEMB      68              0.0000000000
      7844        68  SOPE      C36            16.0432947184       13.0806687493      -12.6846134416  MEMB      68              0.0000000000
      7845        68  SOPE      H6X            16.6505561604       12.2424774175      -12.2789633520  MEMB      68              0.0000000000
      7846        68  SOPE      H6Y            14.9840742136       12.9130979865      -12.3924310035  MEMB      68              0.0000000000
      7847        68  SOPE      C37            16.5002140851       14.4112698635      -12.0804817208  MEMB      68              0.0000000000
      7848        68  SOPE      H7X            15.7406748053       15.1926047147      -12.2930539813  MEMB      68              0.0000000000
      7849        68  SOPE      H7Y            17.4469981177       14.6985030309      -12.5901284881  MEMB      68              0.0000000000
      7850        68  SOPE      C38            16.8244681837       14.3930682736      -10.5847822260  MEMB      68              0.0000000000
      7851        68  SOPE      H8X            17.3950185133       15.3200503541      -10.3492519822  MEMB      68              0.0000000000
      7852        68  SOPE      H8Y            17.5023177315       13.5395171942      -10.3956650503  MEMB      68              0.0000000000
      7853        68  SOPE      C39            15.6344142652       14.3019472207       -9.6266084960  MEMB      68              0.0000000000
      7854        68  SOPE      H9X            16.0273497370       14.3027799643       -8.5844836478  MEMB      68              0.0000000000
      7855        68  SOPE      H9Y            15.1216619181       13.3282739231       -9.7946985413  MEMB      68              0.0000000000
      7856        68  SOPE      C310           14.6017546935       15.4334989213       -9.7500362168  MEMB      68              0.0000000000
      7857        68  SOPE      H10X           13.8862903190       15.3213345305       -8.9112978448  MEMB      68              0.0000000000
      7858        68  SOPE      H10Y           14.0413627772       15.2961181288      -10.7038904553  MEMB      68              0.0000000000
      7859        68  SOPE      C311           15.1551555625       16.8695852608       -9.7129914857  MEMB      68              0.0000000000
      7860        68  SOPE      H11X           14.3828678350       17.5635982999      -10.0996632027  MEMB      68              0.0000000000
      7861        68  SOPE      H11Y           16.0054674054       16.9428198382      -10.4227779882  MEMB      68              0.0000000000
      7862        68  SOPE      C312           15.5806146214       17.3761094577       -8.3245677044  MEMB      68              0.0000000000
      7863        68  SOPE      H12X           16.4256858271       18.0750629776       -8.4767385619  MEMB      68              0.0000000000
      7864        68  SOPE      H12Y           15.9387594533       16.5476558133       -7.6793002711  MEMB      68              0.0000000000
      7865        68  SOPE      C313           14.5525863092       18.2708802708       -7.6254026839  MEMB      68              0.0000000000
      7866        68  SOPE      H13X           13.7103587375       17.6486965188       -7.2539382071  MEMB      68              0.0000000000
      7867        68  SOPE      H13Y           14.1548046391       18.9838116449       -8.3822180474  MEMB      68              0.0000000000
      7868        68  SOPE      C314           15.1636685395       19.1242223727       -6.5028152994  MEMB      68              0.0000000000
      7869        68  SOPE      H14X           15.1573984991       20.1959827486       -6.8002483041  MEMB      68              0.0000000000
      7870        68  SOPE      H14Y           16.2216316311       18.8364225309       -6.3294163401  MEMB      68              0.0000000000
      7871        68  SOPE      C315           14.4225812663       18.9752845481       -5.1807982637  MEMB      68              0.0000000000
      7872        68  SOPE      H15X           13.3967297238       19.3671720340       -5.3181610434  MEMB      68              0.0000000000
      7873        68  SOPE      H15Y           14.9185989080       19.6154029680       -4.4160281631  MEMB      68              0.0000000000
      7874        68  SOPE      C316           14.3802128788       17.5231022603       -4.6901478834  MEMB      68              0.0000000000
      7875        68  SOPE      H16X           15.1451214846       16.9151871897       -5.2235343800  MEMB      68              0.0000000000
      7876        68  SOPE      H16Y           13.3957875451       17.0601549828       -4.9179330906  MEMB      68              0.0000000000
      7877        68  SOPE      C317           14.6431229744       17.4453542924       -3.1908124000  MEMB      68              0.0000000000
      7878        68  SOPE      H17X           13.8729275384       18.0541402288       -2.6800455879  MEMB      68              0.0000000000
      7879        68  SOPE      H17Y           15.6146110120       17.9269978024       -2.9719644149  MEMB      68              0.0000000000
      7880        68  SOPE      C318           14.6449554641       16.0177317796       -2.6531890345  MEMB      68              0.0000000000
      7881        68  SOPE      H18X           15.4687716640       15.4308009465       -3.1147819406  MEMB      68              0.0000000000
      7882        68  SOPE      H18Y           13.6820791613       15.5269113904       -2.9021540432  MEMB      68              0.0000000000
      7883        68  SOPE      H18Z           14.7684196796       16.0161207798       -1.5499324832  MEMB      68              0.0000000000
      7884        69  OSM       N             -16.7006485410       -7.3541448267      -22.4732448404  MEMB      69              0.0000000000
      7885        69  OSM       C15           -16.7008365234       -8.1937631929      -23.7221667076  MEMB      69              0.0000000000
      7886        69  OSM       H15A          -17.1162769342       -9.1793286839      -23.5196048085  MEMB      69              0.0000000000
      7887        69  OSM       H15B          -15.6963665818       -8.3119946051      -24.1112906782  MEMB      69              0.0000000000
      7888        69  OSM       H15C          -17.3084431247       -7.7269635932      -24.4926187972  MEMB      69              0.0000000000
      7889        69  OSM       C14           -15.8587732889       -8.0399060552      -21.4461022704  MEMB      69              0.0000000000
      7890        69  OSM       H14A          -14.8892472523       -8.3184406218      -21.8274014026  MEMB      69              0.0000000000
      7891        69  OSM       H14B          -16.3714011796       -8.9619814657      -21.1541266369  MEMB      69              0.0000000000
      7892        69  OSM       H14C          -15.7316419798       -7.4553061088      -20.5473334849  MEMB      69              0.0000000000
      7893        69  OSM       C13           -16.1283596459       -6.0161731421      -22.8115044990  MEMB      69              0.0000000000
      7894        69  OSM       H13A          -16.7730124242       -5.4317232880      -23.4629719924  MEMB      69              0.0000000000
      7895        69  OSM       H13B          -15.1789019676       -6.1607707573      -23.3083929595  MEMB      69              0.0000000000
      7896        69  OSM       H13C          -15.9563751539       -5.3848253132      -21.9463550631  MEMB      69              0.0000000000
      7897        69  OSM       C12           -18.1254199875       -7.2265849245      -21.9780140081  MEMB      69              0.0000000000
      7898        69  OSM       H12A          -18.7233869220       -6.7102649650      -22.7202967264  MEMB      69              0.0000000000
      7899        69  OSM       H12B          -18.1602987449       -6.6104255653      -21.0895401897  MEMB      69              0.0000000000
      7900        69  OSM       C11           -18.8654061897       -8.5452831278      -21.6796997753  MEMB      69              0.0000000000
      7901        69  OSM       H11A          -18.8907733516       -9.1565151788      -22.6157084746  MEMB      69              0.0000000000
      7902        69  OSM       H11B          -19.9211702975       -8.3148466168      -21.4348839304  MEMB      69              0.0000000000
      7903        69  OSM       P             -18.2565813638      -10.7921067701      -20.5769494275  MEMB      69              0.0000000000
      7904        69  OSM       O13           -19.4481752911      -11.2873554004      -21.3015725345  MEMB      69              0.0000000000
      7905        69  OSM       O14           -16.9294290443      -11.2578397391      -21.0389790986  MEMB      69              0.0000000000
      7906        69  OSM       O11           -18.4363908374      -11.1771949958      -19.0619850254  MEMB      69              0.0000000000
      7907        69  OSM       O12           -18.2716147334       -9.2119033018      -20.5721914400  MEMB      69              0.0000000000
      7908        69  OSM       C1S           -17.9756967588      -10.2996685019      -18.0445290080  MEMB      69              0.0000000000
      7909        69  OSM       H1S           -18.4773910680       -9.3130970127      -18.1459786279  MEMB      69              0.0000000000
      7910        69  OSM       H1T           -16.8686900805      -10.1429220633      -18.0968854629  MEMB      69              0.0000000000
      7911        69  OSM       NF            -17.7473650842      -10.0602506809      -15.6168130656  MEMB      69              0.0000000000
      7912        69  OSM       HNF           -17.0519800126      -10.4609492391      -15.0304783136  MEMB      69              0.0000000000
      7913        69  OSM       C2S           -18.3131513847      -10.8982857210      -16.6539503261  MEMB      69              0.0000000000
      7914        69  OSM       H2S           -19.4141130989      -10.9139885235      -16.5095150701  MEMB      69              0.0000000000
      7915        69  OSM       C3S           -17.7727642039      -12.3660417745      -16.6276325086  MEMB      69              0.0000000000
      7916        69  OSM       H3S           -16.7561322316      -12.3849522242      -17.0811519722  MEMB      69              0.0000000000
      7917        69  OSM       O3            -18.5851461162      -13.2519937385      -17.3906367392  MEMB      69              0.0000000000
      7918        69  OSM       HO3           -18.9524646948      -12.6598635941      -18.0643073495  MEMB      69              0.0000000000
      7919        69  OSM       C4S           -17.7004280604      -12.9065294229      -15.2209454991  MEMB      69              0.0000000000
      7920        69  OSM       H4S           -18.6491867077      -12.8630891892      -14.6695289637  MEMB      69              0.0000000000
      7921        69  OSM       C5S           -16.6021547328      -13.4185741329      -14.6161218040  MEMB      69              0.0000000000
      7922        69  OSM       H5S           -15.6548759427      -13.4977804236      -15.1745920433  MEMB      69              0.0000000000
      7923        69  OSM       C6S           -16.5694605473      -13.9528849782      -13.2041494589  MEMB      69              0.0000000000
      7924        69  OSM       H6S           -15.6858156604      -14.6156228333      -13.0592856284  MEMB      69              0.0000000000
      7925        69  OSM       H6T           -17.4489435886      -14.6067704884      -13.0251589411  MEMB      69              0.0000000000
      7926        69  OSM       C7S           -16.5391193678      -12.8678964320      -12.1060652689  MEMB      69              0.0000000000
      7927        69  OSM       H7S           -17.1467293692      -13.2075527457      -11.2360786144  MEMB      69              0.0000000000
      7928        69  OSM       H7T           -17.0028393104      -11.9255885696      -12.4735679074  MEMB      69              0.0000000000
      7929        69  OSM       C8S           -15.1152015319      -12.5907078766      -11.6047901712  MEMB      69              0.0000000000
      7930        69  OSM       H8S           -14.4668991937      -12.3978063745      -12.4903774116  MEMB      69              0.0000000000
      7931        69  OSM       H8T           -14.7078675887      -13.4915777820      -11.0933253272  MEMB      69              0.0000000000
      7932        69  OSM       C9S           -15.0168682422      -11.3796014634      -10.6630832833  MEMB      69              0.0000000000
      7933        69  OSM       H9S           -15.6795651854      -10.5588458489      -11.0100122624  MEMB      69              0.0000000000
      7934        69  OSM       H9T           -13.9707896937      -11.0147128662      -10.7412885018  MEMB      69              0.0000000000
      7935        69  OSM       C10S          -15.2531009744      -11.6922092046       -9.1772339276  MEMB      69              0.0000000000
      7936        69  OSM       H10S          -14.7157458567      -12.6381157120       -8.9387571793  MEMB      69              0.0000000000
      7937        69  OSM       H10T          -16.3334377526      -11.8587765113       -8.9809750033  MEMB      69              0.0000000000
      7938        69  OSM       C11S          -14.6992752784      -10.5917791455       -8.2556365632  MEMB      69              0.0000000000
      7939        69  OSM       H11S          -15.3532688394       -9.6931062093       -8.2890394105  MEMB      69              0.0000000000
      7940        69  OSM       H11T          -13.7002631849      -10.2837232643       -8.6402124324  MEMB      69              0.0000000000
      7941        69  OSM       C12S          -14.5020021157      -11.0432929835       -6.8005029246  MEMB      69              0.0000000000
      7942        69  OSM       H12S          -13.8576552052      -10.2890078944       -6.2903923450  MEMB      69              0.0000000000
      7943        69  OSM       H12T          -13.9561886984      -12.0134252822       -6.7769956326  MEMB      69              0.0000000000
      7944        69  OSM       C13S          -15.8102428491      -11.1783845757       -6.0084709707  MEMB      69              0.0000000000
      7945        69  OSM       H13S          -16.3852841237      -12.0529273323       -6.3863850352  MEMB      69              0.0000000000
      7946        69  OSM       H13T          -16.4304246359      -10.2683765626       -6.1685679425  MEMB      69              0.0000000000
      7947        69  OSM       C14S          -15.5334298292      -11.3546201497       -4.5077720200  MEMB      69              0.0000000000
      7948        69  OSM       H14S          -14.8036770856      -10.5730374118       -4.1900354904  MEMB      69              0.0000000000
      7949        69  OSM       H14T          -15.0533304424      -12.3462475823       -4.3526061192  MEMB      69              0.0000000000
      7950        69  OSM       C15S          -16.7618895517      -11.2385925401       -3.5930142746  MEMB      69              0.0000000000
      7951        69  OSM       H15S          -17.1227275034      -10.1883840390       -3.6003894978  MEMB      69              0.0000000000
      7952        69  OSM       H15T          -16.4402799951      -11.4762075188       -2.5547268750  MEMB      69              0.0000000000
      7953        69  OSM       C16S          -17.9651461995      -12.1100061338       -3.9737232843  MEMB      69              0.0000000000
      7954        69  OSM       H16S          -17.6728508152      -13.1813832939       -4.0011735656  MEMB      69              0.0000000000
      7955        69  OSM       H16T          -18.3025857239      -11.8194846312       -4.9949926486  MEMB      69              0.0000000000
      7956        69  OSM       C17S          -19.1385662777      -11.8941774769       -3.0066575874  MEMB      69              0.0000000000
      7957        69  OSM       H17S          -20.0655431075      -12.3188311899       -3.4540230911  MEMB      69              0.0000000000
      7958        69  OSM       H17T          -19.3029730738      -10.7967632812       -2.9085484276  MEMB      69              0.0000000000
      7959        69  OSM       C18S          -18.9359448658      -12.4989520771       -1.6145838838  MEMB      69              0.0000000000
      7960        69  OSM       H18S          -19.7462015357      -12.1527172206       -0.9399523455  MEMB      69              0.0000000000
      7961        69  OSM       H18T          -17.9686047713      -12.1896596538       -1.1677648646  MEMB      69              0.0000000000
      7962        69  OSM       H18U          -18.9583112785      -13.6097950348       -1.6560485700  MEMB      69              0.0000000000
      7963        69  OSM       C1F           -18.0335871235       -8.7654684864      -15.4848918621  MEMB      69              0.0000000000
      7964        69  OSM       OF            -18.9318611280       -8.2119614142      -16.1006135647  MEMB      69              0.0000000000
      7965        69  OSM       C2F           -17.0102520902       -8.0631078804      -14.6764345715  MEMB      69              0.0000000000
      7966        69  OSM       H2F           -16.1859246703       -7.7808967973      -15.3719742058  MEMB      69              0.0000000000
      7967        69  OSM       H2G           -16.6235076231       -8.7935325135      -13.9292131905  MEMB      69              0.0000000000
      7968        69  OSM       C3F           -17.4026637203       -6.8193507491      -13.8821633093  MEMB      69              0.0000000000
      7969        69  OSM       H3F           -18.1575520288       -7.0954052327      -13.1133825240  MEMB      69              0.0000000000
      7970        69  OSM       H3G           -17.8433552131       -6.0456539097      -14.5464698245  MEMB      69              0.0000000000
      7971        69  OSM       C4F           -16.1047134136       -6.3153697666      -13.2279617512  MEMB      69              0.0000000000
      7972        69  OSM       H4F           -15.4941970521       -5.7820972211      -13.9925666931  MEMB      69              0.0000000000
      7973        69  OSM       H4G           -15.5178828635       -7.2010211992      -12.9061846419  MEMB      69              0.0000000000
      7974        69  OSM       C5F           -16.3258023591       -5.4324959785      -12.0121091957  MEMB      69              0.0000000000
      7975        69  OSM       H5F           -17.4193277443       -5.2918594897      -11.8938590806  MEMB      69              0.0000000000
      7976        69  OSM       H5G           -15.8449337195       -4.4423442420      -12.1860403448  MEMB      69              0.0000000000
      7977        69  OSM       C6F           -15.8607865094       -6.0332414279      -10.6913986060  MEMB      69              0.0000000000
      7978        69  OSM       H6F           -15.0392282978       -6.7617693770      -10.8351465004  MEMB      69              0.0000000000
      7979        69  OSM       H6G           -16.7327699527       -6.5830165457      -10.2641198078  MEMB      69              0.0000000000
      7980        69  OSM       C7F           -15.3850488102       -4.9581583184       -9.7117369934  MEMB      69              0.0000000000
      7981        69  OSM       H7F           -15.7677852670       -3.9598943036      -10.0243725787  MEMB      69              0.0000000000
      7982        69  OSM       H7G           -14.2807465294       -4.8877498439       -9.7645988768  MEMB      69              0.0000000000
      7983        69  OSM       C8F           -15.8752784726       -5.2452209759       -8.2861482052  MEMB      69              0.0000000000
      7984        69  OSM       H8F           -16.3791307598       -6.2312680915       -8.2735771979  MEMB      69              0.0000000000
      7985        69  OSM       H8G           -16.6387648346       -4.4997151309       -8.0476335484  MEMB      69              0.0000000000
      7986        69  OSM       C9F           -14.8397918098       -5.2272689659       -7.2149438952  MEMB      69              0.0000000000
      7987        69  OSM       H9F           -14.0985279706       -6.0357423341       -7.3127030301  MEMB      69              0.0000000000
      7988        69  OSM       C10F          -14.7738813750       -4.3907229227       -6.1613343891  MEMB      69              0.0000000000
      7989        69  OSM       H10F          -13.9022498439       -4.4927070422       -5.5156421674  MEMB      69              0.0000000000
      7990        69  OSM       C11F          -15.6827456022       -3.2556963421       -5.7435914143  MEMB      69              0.0000000000
      7991        69  OSM       H11F          -16.6345798526       -3.2520000890       -6.2993528893  MEMB      69              0.0000000000
      7992        69  OSM       H11G          -15.1800856281       -2.2955435470       -5.9854071504  MEMB      69              0.0000000000
      7993        69  OSM       C12F          -16.0339615937       -3.2234321911       -4.2339181265  MEMB      69              0.0000000000
      7994        69  OSM       H12F          -15.9238010951       -2.1799948950       -3.8712421993  MEMB      69              0.0000000000
      7995        69  OSM       H12G          -15.3018281617       -3.8428406647       -3.6728630863  MEMB      69              0.0000000000
      7996        69  OSM       C13F          -17.4811907426       -3.6436183070       -3.9187454369  MEMB      69              0.0000000000
      7997        69  OSM       H13F          -17.6538083483       -4.6653849456       -4.3215747053  MEMB      69              0.0000000000
      7998        69  OSM       H13G          -18.1869243549       -2.9559395195       -4.4426249029  MEMB      69              0.0000000000
      7999        69  OSM       C14F          -17.8763617630       -3.6210662849       -2.4267826187  MEMB      69              0.0000000000
      8000        69  OSM       H14F          -18.7830446184       -4.2581018811       -2.3363498683  MEMB      69              0.0000000000
      8001        69  OSM       H14G          -18.1695168617       -2.5880395181       -2.1272881006  MEMB      69              0.0000000000
      8002        69  OSM       C15F          -16.8039031989       -4.1189385895       -1.4435583442  MEMB      69              0.0000000000
      8003        69  OSM       H15F          -16.2254131505       -3.2297530250       -1.1079466006  MEMB      69              0.0000000000
      8004        69  OSM       H15G          -16.0902632755       -4.7986242139       -1.9541715704  MEMB      69              0.0000000000
      8005        69  OSM       C16F          -17.3665143804       -4.8480578082       -0.2088604311  MEMB      69              0.0000000000
      8006        69  OSM       H16F          -17.3072977009       -5.9488446590       -0.3622636786  MEMB      69              0.0000000000
      8007        69  OSM       H16G          -18.4408094231       -4.5832658079       -0.0743627442  MEMB      69              0.0000000000
      8008        69  OSM       C17F          -16.6344060506       -4.4834410648        1.0887417916  MEMB      69              0.0000000000
      8009        69  OSM       H17F          -17.1749031068       -4.9445147514        1.9465668424  MEMB      69              0.0000000000
      8010        69  OSM       H17G          -16.6901367048       -3.3783626586        1.2036981846  MEMB      69              0.0000000000
      8011        69  OSM       C18F          -15.1633893532       -4.8962765327        1.1383095830  MEMB      69              0.0000000000
      8012        69  OSM       H18F          -14.6766372494       -4.4816102830        2.0462948983  MEMB      69              0.0000000000
      8013        69  OSM       H18G          -14.6265743582       -4.5074539181        0.2517046029  MEMB      69              0.0000000000
      8014        69  OSM       H18H          -15.0581864514       -5.9981659035        1.1566291292  MEMB      69              0.0000000000
      8015        70  SAPC      N             -20.3367161568        4.1883232156      -19.1329543221  MEMB      70              0.0000000000
      8016        70  SAPC      C12           -19.9242095973        4.6387063115      -20.5378374818  MEMB      70              0.0000000000
      8017        70  SAPC      H12A          -20.3203029582        3.9470699624      -21.2655736917  MEMB      70              0.0000000000
      8018        70  SAPC      H12B          -18.8308001574        4.5764312165      -20.5831104155  MEMB      70              0.0000000000
      8019        70  SAPC      C13           -20.0079338975        2.7418921135      -18.9681216319  MEMB      70              0.0000000000
      8020        70  SAPC      H13A          -19.0324920646        2.5114251385      -19.3650325152  MEMB      70              0.0000000000
      8021        70  SAPC      H13B          -20.0515612463        2.4554357177      -17.9242120340  MEMB      70              0.0000000000
      8022        70  SAPC      H13C          -20.7524660451        2.1499739911      -19.4918795588  MEMB      70              0.0000000000
      8023        70  SAPC      C14           -19.5789688131        5.0248111127      -18.1501184573  MEMB      70              0.0000000000
      8024        70  SAPC      H14A          -18.5136737521        5.0109094459      -18.3869497106  MEMB      70              0.0000000000
      8025        70  SAPC      H14B          -19.8803492567        6.0691984544      -18.2457469883  MEMB      70              0.0000000000
      8026        70  SAPC      H14C          -19.7518428283        4.6927083719      -17.1396537760  MEMB      70              0.0000000000
      8027        70  SAPC      C15           -21.8020418675        4.3501871510      -18.8798538498  MEMB      70              0.0000000000
      8028        70  SAPC      H15A          -22.3628971180        3.6016198043      -19.4307215774  MEMB      70              0.0000000000
      8029        70  SAPC      H15B          -22.0614181403        4.2355386972      -17.8304968360  MEMB      70              0.0000000000
      8030        70  SAPC      H15C          -22.1467346846        5.3344015773      -19.2073271756  MEMB      70              0.0000000000
      8031        70  SAPC      C11           -20.2632540414        6.0800390178      -21.0233596132  MEMB      70              0.0000000000
      8032        70  SAPC      H11A          -21.3044773869        6.3355922310      -20.7755294205  MEMB      70              0.0000000000
      8033        70  SAPC      H11B          -20.1676136482        6.1316191428      -22.1354944738  MEMB      70              0.0000000000
      8034        70  SAPC      P             -17.9349175723        7.2041250155      -20.6492980946  MEMB      70              0.0000000000
      8035        70  SAPC      O13           -17.3023715630        5.9901504023      -20.0698107118  MEMB      70              0.0000000000
      8036        70  SAPC      O14           -17.7372421493        7.4970468940      -22.0945672628  MEMB      70              0.0000000000
      8037        70  SAPC      O12           -19.4922170658        7.0791839830      -20.3965954516  MEMB      70              0.0000000000
      8038        70  SAPC      O11           -17.5592302146        8.4324091775      -19.7045458771  MEMB      70              0.0000000000
      8039        70  SAPC      C1            -18.6511201725        9.0333351528      -18.9849174104  MEMB      70              0.0000000000
      8040        70  SAPC      HA            -19.2521392350        9.6707370607      -19.6704166133  MEMB      70              0.0000000000
      8041        70  SAPC      HB            -19.3342040838        8.2781139937      -18.5171226948  MEMB      70              0.0000000000
      8042        70  SAPC      C2            -18.1790819180        9.8703482167      -17.7808499115  MEMB      70              0.0000000000
      8043        70  SAPC      HS            -17.4521512057       10.6222550734      -18.1528104257  MEMB      70              0.0000000000
      8044        70  SAPC      O21           -17.5320834983        8.9313672677      -16.8942612394  MEMB      70              0.0000000000
      8045        70  SAPC      C21           -17.5166199483        9.0610450990      -15.5957986097  MEMB      70              0.0000000000
      8046        70  SAPC      O22           -17.7430560641       10.0495306411      -14.9395223789  MEMB      70              0.0000000000
      8047        70  SAPC      C22           -17.2918250305        7.6954843226      -14.9670924542  MEMB      70              0.0000000000
      8048        70  SAPC      H2R           -17.1186439958        7.8813389538      -13.8861006220  MEMB      70              0.0000000000
      8049        70  SAPC      H2S           -18.2454120317        7.1349425900      -15.0777527108  MEMB      70              0.0000000000
      8050        70  SAPC      C3            -19.4285848040       10.5984086174      -17.1832477695  MEMB      70              0.0000000000
      8051        70  SAPC      HX            -19.8982700981       11.1800729729      -18.0092222049  MEMB      70              0.0000000000
      8052        70  SAPC      HY            -19.1008237575       11.3610848677      -16.4441774562  MEMB      70              0.0000000000
      8053        70  SAPC      O31           -20.3861617775        9.6307665399      -16.6879265466  MEMB      70              0.0000000000
      8054        70  SAPC      C31           -20.6357252709        9.7097893042      -15.3897447465  MEMB      70              0.0000000000
      8055        70  SAPC      O32           -20.3487597858       10.6328192960      -14.6557758605  MEMB      70              0.0000000000
      8056        70  SAPC      C32           -21.3787142028        8.4480375704      -14.9365488183  MEMB      70              0.0000000000
      8057        70  SAPC      H2X           -21.1410063509        7.6066267116      -15.6150427195  MEMB      70              0.0000000000
      8058        70  SAPC      H2Y           -22.4628970686        8.6625778306      -15.0199995449  MEMB      70              0.0000000000
      8059        70  SAPC      C23           -16.1350518443        6.8681906583      -15.5684120496  MEMB      70              0.0000000000
      8060        70  SAPC      H3R           -15.1721717166        7.4169918604      -15.4575146324  MEMB      70              0.0000000000
      8061        70  SAPC      H3S           -16.3482519638        6.7217084949      -16.6547682001  MEMB      70              0.0000000000
      8062        70  SAPC      C24           -16.0492015654        5.4814583778      -14.8976859277  MEMB      70              0.0000000000
      8063        70  SAPC      H4R           -15.4489289627        4.8072738493      -15.5456853461  MEMB      70              0.0000000000
      8064        70  SAPC      H4S           -17.0789080104        5.0550946541      -14.8692396069  MEMB      70              0.0000000000
      8065        70  SAPC      C25           -15.4305724941        5.5105259007      -13.5181721665  MEMB      70              0.0000000000
      8066        70  SAPC      H5R           -14.3334236667        5.4026800398      -13.4998361081  MEMB      70              0.0000000000
      8067        70  SAPC      C26           -16.0647446278        5.6441779541      -12.3341077508  MEMB      70              0.0000000000
      8068        70  SAPC      H6R           -15.4551538173        5.6311715082      -11.4141161188  MEMB      70              0.0000000000
      8069        70  SAPC      C27           -17.5497868190        5.8021903593      -12.0873836670  MEMB      70              0.0000000000
      8070        70  SAPC      H7R           -18.0874510410        6.0764127786      -13.0179926534  MEMB      70              0.0000000000
      8071        70  SAPC      H7S           -17.7025660874        6.6731502822      -11.4096532041  MEMB      70              0.0000000000
      8072        70  SAPC      C28           -18.2021484275        4.5727456005      -11.5027318278  MEMB      70              0.0000000000
      8073        70  SAPC      H8R           -18.7054257672        3.9248654364      -12.2368510137  MEMB      70              0.0000000000
      8074        70  SAPC      C29           -18.2181264898        4.2194636679      -10.2008502194  MEMB      70              0.0000000000
      8075        70  SAPC      H9R           -18.7387488130        3.2959585514       -9.9039524028  MEMB      70              0.0000000000
      8076        70  SAPC      C210          -17.5829197362        4.9865159028       -9.0664561276  MEMB      70              0.0000000000
      8077        70  SAPC      H10R          -18.2201799218        4.9017045844       -8.1580353668  MEMB      70              0.0000000000
      8078        70  SAPC      H10S          -17.5653685058        6.0741569717       -9.3048054538  MEMB      70              0.0000000000
      8079        70  SAPC      C211          -16.1765431784        4.5267756131       -8.7582295965  MEMB      70              0.0000000000
      8080        70  SAPC      H11R          -15.7329092857        3.7968479061       -9.4559209099  MEMB      70              0.0000000000
      8081        70  SAPC      C212          -15.4381317444        4.9750352553       -7.7244720903  MEMB      70              0.0000000000
      8082        70  SAPC      H12R          -14.4115270053        4.5976744539       -7.5985224180  MEMB      70              0.0000000000
      8083        70  SAPC      C213          -15.8845940996        6.0015550873       -6.7091143511  MEMB      70              0.0000000000
      8084        70  SAPC      H13R          -15.1334540333        6.0568331973       -5.8912912790  MEMB      70              0.0000000000
      8085        70  SAPC      H13S          -16.8232934491        5.6493952053       -6.2275967390  MEMB      70              0.0000000000
      8086        70  SAPC      C214          -16.0634166370        7.3829068105       -7.2950992691  MEMB      70              0.0000000000
      8087        70  SAPC      H14R          -15.4205735711        7.6090259018       -8.1580744906  MEMB      70              0.0000000000
      8088        70  SAPC      C215          -16.9564861732        8.3096521938       -6.9155194576  MEMB      70              0.0000000000
      8089        70  SAPC      H15R          -16.9760997750        9.2733895795       -7.4475268894  MEMB      70              0.0000000000
      8090        70  SAPC      C216          -17.9804500580        8.1797243923       -5.8199912156  MEMB      70              0.0000000000
      8091        70  SAPC      H16R          -18.1620310798        7.1285236538       -5.5091016161  MEMB      70              0.0000000000
      8092        70  SAPC      H16S          -18.9498270234        8.5585683709       -6.2074733974  MEMB      70              0.0000000000
      8093        70  SAPC      C217          -17.6394454152        9.0143906935       -4.5738160294  MEMB      70              0.0000000000
      8094        70  SAPC      H17R          -18.5916508078        9.1565689549       -4.0362382160  MEMB      70              0.0000000000
      8095        70  SAPC      H17S          -17.3200094516       10.0213116386       -4.9076419227  MEMB      70              0.0000000000
      8096        70  SAPC      C218          -16.5958686859        8.3698329656       -3.6351872289  MEMB      70              0.0000000000
      8097        70  SAPC      H18R          -15.5784932171        8.6591851362       -3.9781771689  MEMB      70              0.0000000000
      8098        70  SAPC      H18S          -16.6639092579        7.2662688763       -3.7789485261  MEMB      70              0.0000000000
      8099        70  SAPC      C219          -16.7407160079        8.5922258435       -2.1000179812  MEMB      70              0.0000000000
      8100        70  SAPC      H19R          -15.7193239249        8.6878979700       -1.6664409643  MEMB      70              0.0000000000
      8101        70  SAPC      H19S          -17.1493688197        7.6457493497       -1.6828624411  MEMB      70              0.0000000000
      8102        70  SAPC      C220          -17.6285268438        9.7187001764       -1.5400761138  MEMB      70              0.0000000000
      8103        70  SAPC      H20R          -17.1742211377       10.7182494355       -1.6193657539  MEMB      70              0.0000000000
      8104        70  SAPC      H20S          -17.8339179827        9.5248675723       -0.4654310626  MEMB      70              0.0000000000
      8105        70  SAPC      H20T          -18.5943931618        9.7860982870       -2.0608637705  MEMB      70              0.0000000000
      8106        70  SAPC      C33           -21.0293312318        8.0751060007      -13.4733378450  MEMB      70              0.0000000000
      8107        70  SAPC      H3X           -20.9478188163        8.9974066898      -12.8504793924  MEMB      70              0.0000000000
      8108        70  SAPC      H3Y           -20.0354569086        7.5752067783      -13.4436851425  MEMB      70              0.0000000000
      8109        70  SAPC      C34           -22.0846717790        7.1832338472      -12.8076580601  MEMB      70              0.0000000000
      8110        70  SAPC      H4X           -22.3580591067        6.3478306560      -13.4918583824  MEMB      70              0.0000000000
      8111        70  SAPC      H4Y           -22.9978484292        7.7904432775      -12.6312088165  MEMB      70              0.0000000000
      8112        70  SAPC      C35           -21.6352016329        6.5878944767      -11.4633359230  MEMB      70              0.0000000000
      8113        70  SAPC      H5X           -20.6285770119        6.1310059472      -11.5775783971  MEMB      70              0.0000000000
      8114        70  SAPC      H5Y           -22.3451348355        5.7701190680      -11.1986177966  MEMB      70              0.0000000000
      8115        70  SAPC      C36           -21.6091164785        7.5868898097      -10.2906476726  MEMB      70              0.0000000000
      8116        70  SAPC      H6X           -22.6249604263        8.0277581973      -10.1834651590  MEMB      70              0.0000000000
      8117        70  SAPC      H6Y           -20.8955833998        8.4130914398      -10.5084062594  MEMB      70              0.0000000000
      8118        70  SAPC      C37           -21.2079804329        6.8901098620       -8.9767827549  MEMB      70              0.0000000000
      8119        70  SAPC      H7X           -20.1709899067        6.4980715826       -9.0903983456  MEMB      70              0.0000000000
      8120        70  SAPC      H7Y           -21.8760047416        6.0116829820       -8.8274522607  MEMB      70              0.0000000000
      8121        70  SAPC      C38           -21.2579548837        7.7553847701       -7.7023981311  MEMB      70              0.0000000000
      8122        70  SAPC      H8X           -20.4272328927        8.4859682029       -7.7128992112  MEMB      70              0.0000000000
      8123        70  SAPC      H8Y           -21.0756884198        7.0779751485       -6.8352720653  MEMB      70              0.0000000000
      8124        70  SAPC      C39           -22.5801434960        8.5017244727       -7.4729557502  MEMB      70              0.0000000000
      8125        70  SAPC      H9X           -23.4019521884        7.8939925053       -7.9167606840  MEMB      70              0.0000000000
      8126        70  SAPC      H9Y           -22.5734904492        9.4792544627       -8.0019390232  MEMB      70              0.0000000000
      8127        70  SAPC      C310          -22.9300121670        8.6935197589       -5.9865182727  MEMB      70              0.0000000000
      8128        70  SAPC      H10X          -22.9362857659        7.6982730652       -5.4934807205  MEMB      70              0.0000000000
      8129        70  SAPC      H10Y          -23.9640687860        9.1023882515       -5.9192762599  MEMB      70              0.0000000000
      8130        70  SAPC      C311          -22.0071065422        9.6189443909       -5.1813616157  MEMB      70              0.0000000000
      8131        70  SAPC      H11X          -22.0241551698       10.6256630923       -5.6528216285  MEMB      70              0.0000000000
      8132        70  SAPC      H11Y          -20.9588693555        9.2486270882       -5.1908689203  MEMB      70              0.0000000000
      8133        70  SAPC      C312          -22.4974255336        9.7462912386       -3.7287204135  MEMB      70              0.0000000000
      8134        70  SAPC      H12X          -23.5945680205        9.9282411621       -3.7776211859  MEMB      70              0.0000000000
      8135        70  SAPC      H12Y          -22.0260028002       10.6259039578       -3.2360098110  MEMB      70              0.0000000000
      8136        70  SAPC      C313          -22.2332467689        8.4914497945       -2.8746665218  MEMB      70              0.0000000000
      8137        70  SAPC      H13X          -22.2185753540        7.5957944088       -3.5278751547  MEMB      70              0.0000000000
      8138        70  SAPC      H13Y          -23.0451838812        8.3595973864       -2.1283583210  MEMB      70              0.0000000000
      8139        70  SAPC      C314          -20.8985628542        8.5845508469       -2.1367135272  MEMB      70              0.0000000000
      8140        70  SAPC      H14X          -20.9754477938        9.3542197144       -1.3375175680  MEMB      70              0.0000000000
      8141        70  SAPC      H14Y          -20.1718040816        8.9453404562       -2.8869741257  MEMB      70              0.0000000000
      8142        70  SAPC      C315          -20.3650487605        7.2728710530       -1.5405201480  MEMB      70              0.0000000000
      8143        70  SAPC      H15X          -21.1879375360        6.6977807484       -1.0673449708  MEMB      70              0.0000000000
      8144        70  SAPC      H15Y          -19.6392293034        7.5422676501       -0.7407426478  MEMB      70              0.0000000000
      8145        70  SAPC      C316          -19.6035519072        6.4208138621       -2.5693807928  MEMB      70              0.0000000000
      8146        70  SAPC      H16X          -18.8895670481        7.0819908916       -3.1026151078  MEMB      70              0.0000000000
      8147        70  SAPC      H16Y          -20.3071922649        6.0304791027       -3.3320578972  MEMB      70              0.0000000000
      8148        70  SAPC      C317          -18.7870686862        5.2723306626       -1.9579271484  MEMB      70              0.0000000000
      8149        70  SAPC      H17X          -19.4553772102        4.6222963258       -1.3548183471  MEMB      70              0.0000000000
      8150        70  SAPC      H17Y          -18.0292092166        5.7003770250       -1.2632169022  MEMB      70              0.0000000000
      8151        70  SAPC      C318          -18.0692372865        4.4140827392       -3.0033802161  MEMB      70              0.0000000000
      8152        70  SAPC      H18X          -17.4215577210        5.0473816136       -3.6470948582  MEMB      70              0.0000000000
      8153        70  SAPC      H18Y          -18.8093424742        3.8998989488       -3.6525877931  MEMB      70              0.0000000000
      8154        70  SAPC      H18Z          -17.4314137917        3.6451102859       -2.5160026402  MEMB      70              0.0000000000
      8155        71  CHL1      C3            -13.2378208674      -15.2901313466      -17.4692877587  MEMB      71              0.0000000000
      8156        71  CHL1      H3            -13.5675112734      -14.4154579036      -16.8645375285  MEMB      71              0.0000000000
      8157        71  CHL1      O3            -13.8023802903      -15.1923883975      -18.7649660776  MEMB      71              0.0000000000
      8158        71  CHL1      H3'           -13.7801014588      -14.2446489664      -19.0048644088  MEMB      71              0.0000000000
      8159        71  CHL1      C4            -11.7038675985      -15.3073634020      -17.5754320687  MEMB      71              0.0000000000
      8160        71  CHL1      H4A           -11.4277377714      -16.1609596112      -18.2302837196  MEMB      71              0.0000000000
      8161        71  CHL1      H4B           -11.3761354297      -14.3858279231      -18.1061481759  MEMB      71              0.0000000000
      8162        71  CHL1      C5            -11.0248003580      -15.4824263012      -16.2362702130  MEMB      71              0.0000000000
      8163        71  CHL1      C6            -10.1127289157      -14.6040305935      -15.7943792535  MEMB      71              0.0000000000
      8164        71  CHL1      H6             -9.8273128026      -13.7639354813      -16.4445922111  MEMB      71              0.0000000000
      8165        71  CHL1      C7             -9.3980156605      -14.7412107444      -14.4784983656  MEMB      71              0.0000000000
      8166        71  CHL1      H7A            -8.3092519824      -14.5483587933      -14.5845236057  MEMB      71              0.0000000000
      8167        71  CHL1      H7B            -9.8023113762      -14.0024886865      -13.7614949020  MEMB      71              0.0000000000
      8168        71  CHL1      C8             -9.5975045372      -16.1072377055      -13.7849880806  MEMB      71              0.0000000000
      8169        71  CHL1      H8             -8.9059703348      -16.8332916155      -14.2611609230  MEMB      71              0.0000000000
      8170        71  CHL1      C14            -9.3009344832      -15.9791033408      -12.2905964374  MEMB      71              0.0000000000
      8171        71  CHL1      H14           -10.1193065295      -15.3335126970      -11.8780457197  MEMB      71              0.0000000000
      8172        71  CHL1      C15            -8.0090618514      -15.2722661917      -11.8400244317  MEMB      71              0.0000000000
      8173        71  CHL1      H15A           -7.1505009217      -15.6080648771      -12.4575058121  MEMB      71              0.0000000000
      8174        71  CHL1      H15B           -8.1155434041      -14.1707948441      -11.9150096818  MEMB      71              0.0000000000
      8175        71  CHL1      C16            -7.8379294685      -15.7208977695      -10.3783278443  MEMB      71              0.0000000000
      8176        71  CHL1      H16A           -6.8308681359      -16.1727171887      -10.2500772572  MEMB      71              0.0000000000
      8177        71  CHL1      H16B           -7.9428662515      -14.8687659081       -9.6774591674  MEMB      71              0.0000000000
      8178        71  CHL1      C17            -8.9537703435      -16.7791414204      -10.1022436245  MEMB      71              0.0000000000
      8179        71  CHL1      H17            -9.8300147634      -16.2176592923       -9.6971708712  MEMB      71              0.0000000000
      8180        71  CHL1      C13            -9.3866854423      -17.2767708249      -11.4985882297  MEMB      71              0.0000000000
      8181        71  CHL1      C18            -8.3079878427      -18.2706718459      -12.0028370421  MEMB      71              0.0000000000
      8182        71  CHL1      H18A           -8.3633708452      -19.2245708698      -11.4435473553  MEMB      71              0.0000000000
      8183        71  CHL1      H18B           -8.4464941901      -18.5003861761      -13.0736872155  MEMB      71              0.0000000000
      8184        71  CHL1      H18C           -7.2831416193      -17.8712700867      -11.8722795879  MEMB      71              0.0000000000
      8185        71  CHL1      C12           -10.8416300765      -17.7864954432      -11.6510432333  MEMB      71              0.0000000000
      8186        71  CHL1      H12A          -10.9916188573      -18.7743577800      -11.1815926984  MEMB      71              0.0000000000
      8187        71  CHL1      H12B          -11.5199714896      -17.0655608320      -11.1449547031  MEMB      71              0.0000000000
      8188        71  CHL1      C11           -11.2670755593      -17.9018535042      -13.1263196432  MEMB      71              0.0000000000
      8189        71  CHL1      H11A          -10.6558170022      -18.6981811280      -13.5848803176  MEMB      71              0.0000000000
      8190        71  CHL1      H11B          -12.3296391898      -18.2159801920      -13.1689912858  MEMB      71              0.0000000000
      8191        71  CHL1      C9            -11.0374340964      -16.6069103330      -13.9445707944  MEMB      71              0.0000000000
      8192        71  CHL1      H9            -11.6797161142      -15.8304871632      -13.4581630080  MEMB      71              0.0000000000
      8193        71  CHL1      C10           -11.5210892801      -16.6898728411      -15.4177200447  MEMB      71              0.0000000000
      8194        71  CHL1      C19           -10.9445758630      -17.9604920783      -16.1016341806  MEMB      71              0.0000000000
      8195        71  CHL1      H19A          -11.3431876540      -18.8797948569      -15.6298392181  MEMB      71              0.0000000000
      8196        71  CHL1      H19B          -11.2220594453      -18.0116960009      -17.1732529238  MEMB      71              0.0000000000
      8197        71  CHL1      H19C           -9.8390928457      -17.9812496950      -16.0315610483  MEMB      71              0.0000000000
      8198        71  CHL1      C1            -13.0796611738      -16.7638194530      -15.4212527470  MEMB      71              0.0000000000
      8199        71  CHL1      H1A           -13.3989616439      -17.7478546101      -15.0174551391  MEMB      71              0.0000000000
      8200        71  CHL1      H1B           -13.4813898887      -15.9730107237      -14.7520080370  MEMB      71              0.0000000000
      8201        71  CHL1      C2            -13.7266115485      -16.5803911133      -16.8054035511  MEMB      71              0.0000000000
      8202        71  CHL1      H2A           -14.8335045882      -16.5553206074      -16.7122575282  MEMB      71              0.0000000000
      8203        71  CHL1      H2B           -13.4589215300      -17.4428168900      -17.4525619058  MEMB      71              0.0000000000
      8204        71  CHL1      C20            -8.5446081351      -17.8011862714       -9.0323243267  MEMB      71              0.0000000000
      8205        71  CHL1      H20            -7.6306822096      -18.3424479724       -9.3734381308  MEMB      71              0.0000000000
      8206        71  CHL1      C21            -9.6554562659      -18.8533060552       -8.8437757460  MEMB      71              0.0000000000
      8207        71  CHL1      H21A          -10.6217715910      -18.3710896469       -8.5897804174  MEMB      71              0.0000000000
      8208        71  CHL1      H21B           -9.3987918424      -19.5889299184       -8.0566906526  MEMB      71              0.0000000000
      8209        71  CHL1      H21C           -9.7623567378      -19.4461112780       -9.7684481106  MEMB      71              0.0000000000
      8210        71  CHL1      C22            -8.1934782396      -17.1158527542       -7.6849970396  MEMB      71              0.0000000000
      8211        71  CHL1      H22A           -7.2410388352      -16.5543860171       -7.8046198211  MEMB      71              0.0000000000
      8212        71  CHL1      H22B           -8.9871478754      -16.3831121427       -7.4174421502  MEMB      71              0.0000000000
      8213        71  CHL1      C23            -8.0410741308      -18.1041753027       -6.5185023659  MEMB      71              0.0000000000
      8214        71  CHL1      H23A           -9.0400577948      -18.5125625736       -6.2467128623  MEMB      71              0.0000000000
      8215        71  CHL1      H23B           -7.4000270485      -18.9545749571       -6.8432335319  MEMB      71              0.0000000000
      8216        71  CHL1      C24            -7.4235337575      -17.4891674207       -5.2619494014  MEMB      71              0.0000000000
      8217        71  CHL1      H24A           -6.3837647941      -17.1731131770       -5.5059444273  MEMB      71              0.0000000000
      8218        71  CHL1      H24B           -7.9865049048      -16.5816390011       -4.9535361458  MEMB      71              0.0000000000
      8219        71  CHL1      C25            -7.3841144367      -18.4918849253       -4.0916963661  MEMB      71              0.0000000000
      8220        71  CHL1      H25            -7.0989831059      -19.4912541703       -4.5003229821  MEMB      71              0.0000000000
      8221        71  CHL1      C26            -6.3161627194      -18.0737433837       -3.0888173194  MEMB      71              0.0000000000
      8222        71  CHL1      H26A           -6.2219726431      -18.8171527507       -2.2698454068  MEMB      71              0.0000000000
      8223        71  CHL1      H26B           -5.3331719157      -17.9747132486       -3.5973051420  MEMB      71              0.0000000000
      8224        71  CHL1      H26C           -6.5946009701      -17.0913597957       -2.6503766028  MEMB      71              0.0000000000
      8225        71  CHL1      C27            -8.7359404414      -18.6159385280       -3.3712252167  MEMB      71              0.0000000000
      8226        71  CHL1      H27A           -8.6559044447      -19.3289944483       -2.5231624064  MEMB      71              0.0000000000
      8227        71  CHL1      H27B           -9.0447696585      -17.6286068498       -2.9646960743  MEMB      71              0.0000000000
      8228        71  CHL1      H27C           -9.5247030859      -18.9745179224       -4.0635639420  MEMB      71              0.0000000000
      8229        72  OSM       N               9.3942786374      -18.1386847515      -21.3565010571  MEMB      72              0.0000000000
      8230        72  OSM       C15            10.4412900518      -17.2940386569      -22.0113149810  MEMB      72              0.0000000000
      8231        72  OSM       H15A           10.1398007091      -17.0156570730      -23.0105522059  MEMB      72              0.0000000000
      8232        72  OSM       H15B           11.3864605605      -17.8311356841      -22.1167593010  MEMB      72              0.0000000000
      8233        72  OSM       H15C           10.6418987472      -16.4004195483      -21.4356698906  MEMB      72              0.0000000000
      8234        72  OSM       C14             9.3061178829      -19.4463881656      -22.0668341313  MEMB      72              0.0000000000
      8235        72  OSM       H14A            8.4053893254      -19.9822396201      -21.7485647609  MEMB      72              0.0000000000
      8236        72  OSM       H14B           10.1476203453      -20.0810971347      -21.8328261514  MEMB      72              0.0000000000
      8237        72  OSM       H14C            9.2035083842      -19.3183139445      -23.1333712900  MEMB      72              0.0000000000
      8238        72  OSM       C13             9.7995239613      -18.3875037944      -19.9381271770  MEMB      72              0.0000000000
      8239        72  OSM       H13A            9.8239347411      -17.4751947987      -19.3554275680  MEMB      72              0.0000000000
      8240        72  OSM       H13B           10.7838626844      -18.8411356388      -19.9042721229  MEMB      72              0.0000000000
      8241        72  OSM       H13C            9.1127906025      -19.0903470230      -19.4692007716  MEMB      72              0.0000000000
      8242        72  OSM       C12             8.0309697138      -17.4595820591      -21.4352729393  MEMB      72              0.0000000000
      8243        72  OSM       H12A            7.7671628343      -17.3530432340      -22.4837090615  MEMB      72              0.0000000000
      8244        72  OSM       H12B            8.1221928409      -16.4615623404      -21.0261852561  MEMB      72              0.0000000000
      8245        72  OSM       C11             6.8097447991      -18.1796922232      -20.7952171753  MEMB      72              0.0000000000
      8246        72  OSM       H11A            5.9428826228      -17.4744843076      -20.8837747365  MEMB      72              0.0000000000
      8247        72  OSM       H11B            6.9840292986      -18.3570908659      -19.7117802601  MEMB      72              0.0000000000
      8248        72  OSM       P               5.1205123327      -20.1169090077      -21.2934863914  MEMB      72              0.0000000000
      8249        72  OSM       O13             4.0761875109      -19.0782296725      -21.2872606264  MEMB      72              0.0000000000
      8250        72  OSM       O14             5.0267661789      -21.1202359947      -22.3698562429  MEMB      72              0.0000000000
      8251        72  OSM       O11             5.2171235586      -20.7859677945      -19.8463645343  MEMB      72              0.0000000000
      8252        72  OSM       O12             6.5476697423      -19.4216160406      -21.4607039728  MEMB      72              0.0000000000
      8253        72  OSM       C1S             6.4617539227      -21.2780700296      -19.3406980134  MEMB      72              0.0000000000
      8254        72  OSM       H1S             7.3041601966      -20.5888916743      -19.5839010864  MEMB      72              0.0000000000
      8255        72  OSM       H1T             6.6732570580      -22.2721581407      -19.7897937440  MEMB      72              0.0000000000
      8256        72  OSM       NF              7.8345148016      -21.2577494830      -17.2559953550  MEMB      72              0.0000000000
      8257        72  OSM       HNF             8.3876287186      -22.0882237129      -17.1926616127  MEMB      72              0.0000000000
      8258        72  OSM       C2S             6.4708981790      -21.3948324296      -17.7806071313  MEMB      72              0.0000000000
      8259        72  OSM       H2S             5.8415274586      -20.5587869859      -17.3877516216  MEMB      72              0.0000000000
      8260        72  OSM       C3S             5.8561568819      -22.7284947175      -17.2817665930  MEMB      72              0.0000000000
      8261        72  OSM       H3S             6.4368132969      -23.5695446299      -17.7198790498  MEMB      72              0.0000000000
      8262        72  OSM       O3              4.4893736911      -22.9661412953      -17.5799040624  MEMB      72              0.0000000000
      8263        72  OSM       HO3             4.2549225260      -22.3237337722      -18.2607218345  MEMB      72              0.0000000000
      8264        72  OSM       C4S             5.9903624569      -22.7535436454      -15.7773963510  MEMB      72              0.0000000000
      8265        72  OSM       H4S             5.5793888874      -21.8692055784      -15.2737272953  MEMB      72              0.0000000000
      8266        72  OSM       C5S             6.5960706565      -23.7152817454      -15.0617889768  MEMB      72              0.0000000000
      8267        72  OSM       H5S             7.0005299115      -24.5829346853      -15.6105322489  MEMB      72              0.0000000000
      8268        72  OSM       C6S             6.7518859823      -23.7687003418      -13.5612928389  MEMB      72              0.0000000000
      8269        72  OSM       H6S             7.8359190564      -23.8480894271      -13.3108701173  MEMB      72              0.0000000000
      8270        72  OSM       H6T             6.2637661245      -24.7033803301      -13.2366563872  MEMB      72              0.0000000000
      8271        72  OSM       C7S             6.1571927278      -22.6533673589      -12.6752127793  MEMB      72              0.0000000000
      8272        72  OSM       H7S             5.1704114526      -22.3564806364      -13.0420646997  MEMB      72              0.0000000000
      8273        72  OSM       H7T             6.7606190420      -21.7386619959      -12.7288096928  MEMB      72              0.0000000000
      8274        72  OSM       C8S             5.9588588665      -23.0237909746      -11.1982135146  MEMB      72              0.0000000000
      8275        72  OSM       H8S             5.5379666107      -24.0441156250      -11.0961650855  MEMB      72              0.0000000000
      8276        72  OSM       H8T             5.2053423907      -22.3088791385      -10.7903050248  MEMB      72              0.0000000000
      8277        72  OSM       C9S             7.2250733134      -22.8967520837      -10.3493770357  MEMB      72              0.0000000000
      8278        72  OSM       H9S             7.4978930074      -21.8215267755      -10.2685572607  MEMB      72              0.0000000000
      8279        72  OSM       H9T             8.0586998545      -23.4289794809      -10.8591249391  MEMB      72              0.0000000000
      8280        72  OSM       C10S            7.0667140436      -23.4509367283       -8.9307101190  MEMB      72              0.0000000000
      8281        72  OSM       H10S            7.8972715800      -23.0643179382       -8.3053574723  MEMB      72              0.0000000000
      8282        72  OSM       H10T            7.1746475831      -24.5554573998       -8.9897812791  MEMB      72              0.0000000000
      8283        72  OSM       C11S            5.7180465022      -23.1191601818       -8.2756268707  MEMB      72              0.0000000000
      8284        72  OSM       H11S            5.6300630216      -23.6699281412       -7.3179438228  MEMB      72              0.0000000000
      8285        72  OSM       H11T            4.8965139230      -23.4984293700       -8.9239672992  MEMB      72              0.0000000000
      8286        72  OSM       C12S            5.4828324490      -21.6255698719       -8.0137218657  MEMB      72              0.0000000000
      8287        72  OSM       H12S            4.4208061972      -21.5189331167       -7.7019354988  MEMB      72              0.0000000000
      8288        72  OSM       H12T            5.6004519533      -21.0437164832       -8.9547736069  MEMB      72              0.0000000000
      8289        72  OSM       C13S            6.3813854802      -21.0091016792       -6.9302150576  MEMB      72              0.0000000000
      8290        72  OSM       H13S            5.9748826837      -19.9968614719       -6.7112821890  MEMB      72              0.0000000000
      8291        72  OSM       H13T            7.4122485885      -20.8675982338       -7.3224748741  MEMB      72              0.0000000000
      8292        72  OSM       C14S            6.4697025228      -21.8466658972       -5.6442142345  MEMB      72              0.0000000000
      8293        72  OSM       H14S            7.0966354107      -22.7439995214       -5.8462112870  MEMB      72              0.0000000000
      8294        72  OSM       H14T            5.4614902994      -22.2094100003       -5.3662329764  MEMB      72              0.0000000000
      8295        72  OSM       C15S            7.0792927950      -21.0939828419       -4.4574712611  MEMB      72              0.0000000000
      8296        72  OSM       H15S            8.0677610837      -20.7140248323       -4.7704238424  MEMB      72              0.0000000000
      8297        72  OSM       H15T            7.2667038911      -21.7999407683       -3.6174450164  MEMB      72              0.0000000000
      8298        72  OSM       C16S            6.2264517392      -19.9171131259       -3.9680369310  MEMB      72              0.0000000000
      8299        72  OSM       H16S            5.5012315496      -19.6253755234       -4.7484862546  MEMB      72              0.0000000000
      8300        72  OSM       H16T            6.8518426448      -19.0148972357       -3.8068121589  MEMB      72              0.0000000000
      8301        72  OSM       C17S            5.4987392991      -20.2409590055       -2.6659562519  MEMB      72              0.0000000000
      8302        72  OSM       H17S            5.1977714795      -21.3109295566       -2.6675100936  MEMB      72              0.0000000000
      8303        72  OSM       H17T            4.5649988924      -19.6384666142       -2.6105572297  MEMB      72              0.0000000000
      8304        72  OSM       C18S            6.3600858977      -19.9401743888       -1.4446790132  MEMB      72              0.0000000000
      8305        72  OSM       H18S            6.7369001138      -18.8955613682       -1.4738957476  MEMB      72              0.0000000000
      8306        72  OSM       H18T            7.2307070071      -20.6279693017       -1.4025776309  MEMB      72              0.0000000000
      8307        72  OSM       H18U            5.7656472819      -20.0621344399       -0.5277193319  MEMB      72              0.0000000000
      8308        72  OSM       C1F             8.3426132010      -20.0735685883      -16.9037937525  MEMB      72              0.0000000000
      8309        72  OSM       OF              7.7831273582      -19.0353897422      -17.2263513177  MEMB      72              0.0000000000
      8310        72  OSM       C2F             9.6559281470      -20.0726555473      -16.1770139816  MEMB      72              0.0000000000
      8311        72  OSM       H2F            10.3422030970      -19.3651545008      -16.6935248995  MEMB      72              0.0000000000
      8312        72  OSM       H2G            10.0770045857      -21.0999653048      -16.2286956192  MEMB      72              0.0000000000
      8313        72  OSM       C3F             9.5756320316      -19.6725980690      -14.6851886319  MEMB      72              0.0000000000
      8314        72  OSM       H3F             9.1369408925      -18.6610697240      -14.5529950129  MEMB      72              0.0000000000
      8315        72  OSM       H3G            10.6105230156      -19.6550217013      -14.2774182876  MEMB      72              0.0000000000
      8316        72  OSM       C4F             8.8110073034      -20.6841822123      -13.8327937223  MEMB      72              0.0000000000
      8317        72  OSM       H4F             9.1320521275      -21.7117016977      -14.1297814661  MEMB      72              0.0000000000
      8318        72  OSM       H4G             7.7296289345      -20.5898186076      -14.0620675682  MEMB      72              0.0000000000
      8319        72  OSM       C5F             9.0957875389      -20.5509894862      -12.3236519170  MEMB      72              0.0000000000
      8320        72  OSM       H5F            10.1971692364      -20.4891050772      -12.1766968005  MEMB      72              0.0000000000
      8321        72  OSM       H5G             8.7846835825      -21.4912700206      -11.8312847258  MEMB      72              0.0000000000
      8322        72  OSM       C6F             8.4387313811      -19.3487459003      -11.6192197317  MEMB      72              0.0000000000
      8323        72  OSM       H6F             8.9125402089      -18.4486822110      -12.0674917785  MEMB      72              0.0000000000
      8324        72  OSM       H6G             8.7071790132      -19.3825268953      -10.5398911815  MEMB      72              0.0000000000
      8325        72  OSM       C7F             6.8984878429      -19.2247430932      -11.7209890463  MEMB      72              0.0000000000
      8326        72  OSM       H7F             6.4184078726      -20.1314282753      -11.2921834479  MEMB      72              0.0000000000
      8327        72  OSM       H7G             6.6089578839      -19.1827344067      -12.7944704730  MEMB      72              0.0000000000
      8328        72  OSM       C8F             6.2872700623      -17.9930538542      -11.0070336884  MEMB      72              0.0000000000
      8329        72  OSM       H8F             5.9841773275      -18.3071388084       -9.9833388390  MEMB      72              0.0000000000
      8330        72  OSM       H8G             5.3483773274      -17.7120780214      -11.5385346110  MEMB      72              0.0000000000
      8331        72  OSM       C9F             7.2624755740      -16.8440203891      -10.9720042508  MEMB      72              0.0000000000
      8332        72  OSM       H9F             7.5122148031      -16.4351043327      -11.9635714144  MEMB      72              0.0000000000
      8333        72  OSM       C10F            7.8609100325      -16.3407044509       -9.8758391501  MEMB      72              0.0000000000
      8334        72  OSM       H10F            8.6030535913      -15.5382490025      -10.0055848960  MEMB      72              0.0000000000
      8335        72  OSM       C11F            7.6775725699      -16.8058823790       -8.4488521189  MEMB      72              0.0000000000
      8336        72  OSM       H11F            6.6444510455      -17.1829732290       -8.2943406910  MEMB      72              0.0000000000
      8337        72  OSM       H11G            7.7870842445      -15.9172188489       -7.7888649310  MEMB      72              0.0000000000
      8338        72  OSM       C12F            8.6137426879      -17.9076051645       -7.9037293470  MEMB      72              0.0000000000
      8339        72  OSM       H12F            9.6249227223      -17.7867187467       -8.3402581210  MEMB      72              0.0000000000
      8340        72  OSM       H12G            8.2366754064      -18.9030785770       -8.2262201980  MEMB      72              0.0000000000
      8341        72  OSM       C13F            8.7433928522      -17.8630247270       -6.3649117697  MEMB      72              0.0000000000
      8342        72  OSM       H13F            7.7604907402      -18.0727539114       -5.8906266435  MEMB      72              0.0000000000
      8343        72  OSM       H13G            9.0465620558      -16.8315933990       -6.0744057098  MEMB      72              0.0000000000
      8344        72  OSM       C14F            9.8008671351      -18.8360886391       -5.8261170774  MEMB      72              0.0000000000
      8345        72  OSM       H14F           10.6892869606      -18.7638800679       -6.4975162389  MEMB      72              0.0000000000
      8346        72  OSM       H14G            9.4485694975      -19.8810053051       -5.9176150322  MEMB      72              0.0000000000
      8347        72  OSM       C15F           10.3171001238      -18.5482661914       -4.3990088965  MEMB      72              0.0000000000
      8348        72  OSM       H15F           10.8020406679      -17.5494534102       -4.4029169945  MEMB      72              0.0000000000
      8349        72  OSM       H15G           11.0898056713      -19.3225388617       -4.1935692023  MEMB      72              0.0000000000
      8350        72  OSM       C16F            9.3579373533      -18.5347241242       -3.1944570863  MEMB      72              0.0000000000
      8351        72  OSM       H16F            8.8212799432      -19.4987139588       -3.1287432942  MEMB      72              0.0000000000
      8352        72  OSM       H16G            8.6083239579      -17.7249780236       -3.3087222237  MEMB      72              0.0000000000
      8353        72  OSM       C17F           10.1494977691      -18.3333689158       -1.8861175737  MEMB      72              0.0000000000
      8354        72  OSM       H17F           10.6771565399      -17.3561406030       -1.9391056781  MEMB      72              0.0000000000
      8355        72  OSM       H17G           10.9257752333      -19.1277304491       -1.8594192543  MEMB      72              0.0000000000
      8356        72  OSM       C18F            9.3838437479      -18.4095329324       -0.5627188905  MEMB      72              0.0000000000
      8357        72  OSM       H18F           10.0982735060      -18.3343712178        0.2883171787  MEMB      72              0.0000000000
      8358        72  OSM       H18G            8.8592424927      -19.3813361127       -0.4705848073  MEMB      72              0.0000000000
      8359        72  OSM       H18H            8.6438686026      -17.5878878214       -0.4765055163  MEMB      72              0.0000000000
      8360        73  SLPC      N              -2.0116229118      -18.6059025751      -18.5151464489  MEMB      73              0.0000000000
      8361        73  SLPC      C13            -0.6458536034      -18.7944461472      -19.1143616764  MEMB      73              0.0000000000
      8362        73  SLPC      H13A           -0.6834234529      -18.7385758844      -20.2002408426  MEMB      73              0.0000000000
      8363        73  SLPC      H13B            0.0786831772      -18.0599356075      -18.7754327803  MEMB      73              0.0000000000
      8364        73  SLPC      H13C           -0.2742712667      -19.7833936947      -18.8563791268  MEMB      73              0.0000000000
      8365        73  SLPC      C14            -2.8642164855      -19.6189096413      -19.2169135294  MEMB      73              0.0000000000
      8366        73  SLPC      H14A           -2.7556007649      -19.5483947814      -20.2942295133  MEMB      73              0.0000000000
      8367        73  SLPC      H14B           -2.4892539838      -20.6133552335      -18.9379724657  MEMB      73              0.0000000000
      8368        73  SLPC      H14C           -3.8966784443      -19.5886271011      -18.9193232806  MEMB      73              0.0000000000
      8369        73  SLPC      C15            -2.4378183557      -17.2044010731      -18.7880455959  MEMB      73              0.0000000000
      8370        73  SLPC      H15A           -3.4076489641      -17.0107926297      -18.3658969109  MEMB      73              0.0000000000
      8371        73  SLPC      H15B           -1.7576670658      -16.4726748681      -18.3530149882  MEMB      73              0.0000000000
      8372        73  SLPC      H15C           -2.4549580944      -17.0217751080      -19.8531567462  MEMB      73              0.0000000000
      8373        73  SLPC      C12            -1.9977842849      -18.8938956289      -17.0208482409  MEMB      73              0.0000000000
      8374        73  SLPC      H12A           -2.5576544706      -18.1581984022      -16.4611333855  MEMB      73              0.0000000000
      8375        73  SLPC      H12B           -0.9670956990      -18.8002947702      -16.6756590217  MEMB      73              0.0000000000
      8376        73  SLPC      C11            -2.4220475757      -20.3110513099      -16.5844182087  MEMB      73              0.0000000000
      8377        73  SLPC      H11A           -3.4482728245      -20.5760725522      -16.9169778689  MEMB      73              0.0000000000
      8378        73  SLPC      H11B           -2.4734117870      -20.3579190770      -15.4664417472  MEMB      73              0.0000000000
      8379        73  SLPC      P              -0.2605709546      -21.6397614292      -16.2092130206  MEMB      73              0.0000000000
      8380        73  SLPC      O13            -0.7990228290      -22.3677231952      -15.0382803618  MEMB      73              0.0000000000
      8381        73  SLPC      O14             0.7662564349      -22.2710557861      -17.0565630728  MEMB      73              0.0000000000
      8382        73  SLPC      O12            -1.4850896176      -21.2407019373      -17.1320462855  MEMB      73              0.0000000000
      8383        73  SLPC      O11             0.2142161500      -20.1847061722      -15.7761860000  MEMB      73              0.0000000000
      8384        73  SLPC      C1              1.1970489743      -19.3839079542      -16.4531910299  MEMB      73              0.0000000000
      8385        73  SLPC      HA              1.5872157751      -19.8842664708      -17.3741978283  MEMB      73              0.0000000000
      8386        73  SLPC      HB              0.7546033303      -18.4158474415      -16.7658050895  MEMB      73              0.0000000000
      8387        73  SLPC      C2              2.4200143918      -19.0276463319      -15.5627724329  MEMB      73              0.0000000000
      8388        73  SLPC      HS              3.1042813611      -18.3683446825      -16.1384905724  MEMB      73              0.0000000000
      8389        73  SLPC      O21             3.0336256232      -20.3033706250      -15.3728762216  MEMB      73              0.0000000000
      8390        73  SLPC      C21             3.3409652780      -20.7901298545      -14.2156184413  MEMB      73              0.0000000000
      8391        73  SLPC      O22             3.9381942049      -20.2286357885      -13.3090810901  MEMB      73              0.0000000000
      8392        73  SLPC      C22             2.8756589217      -22.2494515929      -14.2090687216  MEMB      73              0.0000000000
      8393        73  SLPC      H2R             2.4662659854      -22.4953214194      -15.2129304862  MEMB      73              0.0000000000
      8394        73  SLPC      H2S             3.7069476895      -22.9526670592      -14.0787657178  MEMB      73              0.0000000000
      8395        73  SLPC      C3              2.0185212061      -18.2680245709      -14.2327086689  MEMB      73              0.0000000000
      8396        73  SLPC      HX              1.6134340668      -17.2893715288      -14.5808869125  MEMB      73              0.0000000000
      8397        73  SLPC      HY              2.9394321031      -18.0532877116      -13.6472449508  MEMB      73              0.0000000000
      8398        73  SLPC      O31             1.0250925881      -18.9329892557      -13.4174069073  MEMB      73              0.0000000000
      8399        73  SLPC      C31             0.5589850843      -18.2023368692      -12.4040663212  MEMB      73              0.0000000000
      8400        73  SLPC      O32             1.0214520071      -17.1315573085      -12.0456524960  MEMB      73              0.0000000000
      8401        73  SLPC      C32            -0.6836304396      -18.8594051625      -11.7665717139  MEMB      73              0.0000000000
      8402        73  SLPC      H2X            -1.2684661226      -18.0613434436      -11.2721230385  MEMB      73              0.0000000000
      8403        73  SLPC      H2Y            -0.3080237466      -19.5279242124      -10.9740655423  MEMB      73              0.0000000000
      8404        73  SLPC      C23             1.8113203206      -22.5078053660      -13.1344889294  MEMB      73              0.0000000000
      8405        73  SLPC      H3R             1.5677885443      -23.5952951493      -13.1949456420  MEMB      73              0.0000000000
      8406        73  SLPC      H3S             0.8815910735      -21.9545232445      -13.3954805150  MEMB      73              0.0000000000
      8407        73  SLPC      C24             2.1777950911      -22.1333360393      -11.6854998481  MEMB      73              0.0000000000
      8408        73  SLPC      H4R             2.0946297470      -21.0293255881      -11.5650973175  MEMB      73              0.0000000000
      8409        73  SLPC      H4S             3.2166801586      -22.4298856222      -11.4438080773  MEMB      73              0.0000000000
      8410        73  SLPC      C25             1.2007463649      -22.8445799284      -10.7525935796  MEMB      73              0.0000000000
      8411        73  SLPC      H5R             1.6035240310      -23.8271161700      -10.4276057755  MEMB      73              0.0000000000
      8412        73  SLPC      H5S             0.3231886544      -23.0256670492      -11.4212468499  MEMB      73              0.0000000000
      8413        73  SLPC      C26             0.6100731693      -22.0684565150       -9.5755811650  MEMB      73              0.0000000000
      8414        73  SLPC      H6R             0.4473415007      -21.0243811142       -9.9107934328  MEMB      73              0.0000000000
      8415        73  SLPC      H6S             1.2974842383      -22.0330375087       -8.7078776822  MEMB      73              0.0000000000
      8416        73  SLPC      C27            -0.7774781588      -22.6326910923       -9.2102777357  MEMB      73              0.0000000000
      8417        73  SLPC      H7R            -1.2935019176      -22.9472854786      -10.1472145922  MEMB      73              0.0000000000
      8418        73  SLPC      H7S            -1.4004375281      -21.8250582920       -8.7915837865  MEMB      73              0.0000000000
      8419        73  SLPC      C28            -0.7602699835      -23.8618050363       -8.2934619257  MEMB      73              0.0000000000
      8420        73  SLPC      H8R             0.0112192235      -24.5457981042       -8.6930703423  MEMB      73              0.0000000000
      8421        73  SLPC      H8S            -1.7429298834      -24.3783246670       -8.3803813045  MEMB      73              0.0000000000
      8422        73  SLPC      C29            -0.4325807752      -23.5564696439       -6.8622874785  MEMB      73              0.0000000000
      8423        73  SLPC      H9R             0.5686191274      -23.1278812481       -6.7121218784  MEMB      73              0.0000000000
      8424        73  SLPC      C210           -1.2341295348      -23.6946743284       -5.7921814237  MEMB      73              0.0000000000
      8425        73  SLPC      H10R           -0.8181268268      -23.4005098088       -4.8162969425  MEMB      73              0.0000000000
      8426        73  SLPC      C211           -2.6638860109      -24.1876423110       -5.7450775511  MEMB      73              0.0000000000
      8427        73  SLPC      H11R           -2.8151161364      -24.9767988986       -6.5154956713  MEMB      73              0.0000000000
      8428        73  SLPC      H11S           -3.3455676940      -23.3579294085       -6.0394690602  MEMB      73              0.0000000000
      8429        73  SLPC      C212           -3.1212670870      -24.7221555485       -4.4026209618  MEMB      73              0.0000000000
      8430        73  SLPC      H12R           -3.5669840544      -25.7288196219       -4.4534466595  MEMB      73              0.0000000000
      8431        73  SLPC      C213           -3.0261691234      -24.1357657414       -3.1871115095  MEMB      73              0.0000000000
      8432        73  SLPC      H13R           -3.3889237427      -24.6981650876       -2.3152262095  MEMB      73              0.0000000000
      8433        73  SLPC      C214           -2.4311548589      -22.7822295698       -2.8591261607  MEMB      73              0.0000000000
      8434        73  SLPC      H14R           -2.2241376098      -22.2029945882       -3.7837100331  MEMB      73              0.0000000000
      8435        73  SLPC      H14S           -1.4517323164      -22.9125333861       -2.3490984032  MEMB      73              0.0000000000
      8436        73  SLPC      C215           -3.3134232251      -21.8752075263       -1.9798469259  MEMB      73              0.0000000000
      8437        73  SLPC      H15R           -3.3440409666      -22.2619274507       -0.9380726735  MEMB      73              0.0000000000
      8438        73  SLPC      H15S           -4.3532057894      -21.8946799740       -2.3800707641  MEMB      73              0.0000000000
      8439        73  SLPC      C216           -2.8519287278      -20.4042223762       -1.9917868356  MEMB      73              0.0000000000
      8440        73  SLPC      H16R           -3.5700623678      -19.8032031653       -1.3904546406  MEMB      73              0.0000000000
      8441        73  SLPC      H16S           -2.8979671951      -20.0312740210       -3.0411944655  MEMB      73              0.0000000000
      8442        73  SLPC      C217           -1.4310515141      -20.1425672530       -1.4651595947  MEMB      73              0.0000000000
      8443        73  SLPC      H17R           -1.2153872856      -19.0547320564       -1.5903280164  MEMB      73              0.0000000000
      8444        73  SLPC      H17S           -0.6950803077      -20.6878476154       -2.0957969939  MEMB      73              0.0000000000
      8445        73  SLPC      C218           -1.2280671077      -20.5085418730        0.0049011507  MEMB      73              0.0000000000
      8446        73  SLPC      H18R           -0.2650775326      -20.0982680829        0.3790464478  MEMB      73              0.0000000000
      8447        73  SLPC      H18S           -1.2249128799      -21.6105401020        0.1495098007  MEMB      73              0.0000000000
      8448        73  SLPC      H18T           -2.0399289312      -20.0766196066        0.6175039268  MEMB      73              0.0000000000
      8449        73  SLPC      C33            -1.6053591743      -19.6689568773      -12.7200298880  MEMB      73              0.0000000000
      8450        73  SLPC      H3X            -0.9607239549      -20.2077081825      -13.4560347291  MEMB      73              0.0000000000
      8451        73  SLPC      H3Y            -2.2705166979      -19.0088153429      -13.3101991738  MEMB      73              0.0000000000
      8452        73  SLPC      C34            -2.4310504717      -20.7747441883      -12.0271606800  MEMB      73              0.0000000000
      8453        73  SLPC      H4X            -1.8675676583      -21.1935473325      -11.1734232346  MEMB      73              0.0000000000
      8454        73  SLPC      H4Y            -2.5221911211      -21.5950700877      -12.7811470695  MEMB      73              0.0000000000
      8455        73  SLPC      C35            -3.8618074802      -20.3993861791      -11.5919717107  MEMB      73              0.0000000000
      8456        73  SLPC      H5X            -4.5012333274      -21.3101736818      -11.6630734825  MEMB      73              0.0000000000
      8457        73  SLPC      H5Y            -4.2689669123      -19.6550725662      -12.3106305614  MEMB      73              0.0000000000
      8458        73  SLPC      C36            -3.9738344491      -19.8514771823      -10.1537984625  MEMB      73              0.0000000000
      8459        73  SLPC      H6X            -4.8082202496      -19.1114235372      -10.1273132601  MEMB      73              0.0000000000
      8460        73  SLPC      H6Y            -3.0348495370      -19.3147660339       -9.9036514938  MEMB      73              0.0000000000
      8461        73  SLPC      C37            -4.2985333989      -20.9291370354       -9.0945330876  MEMB      73              0.0000000000
      8462        73  SLPC      H7X            -3.5132169870      -21.7118304417       -9.0987612796  MEMB      73              0.0000000000
      8463        73  SLPC      H7Y            -5.2509942904      -21.4235505755       -9.3996605320  MEMB      73              0.0000000000
      8464        73  SLPC      C38            -4.5057147581      -20.4004276122       -7.6542856654  MEMB      73              0.0000000000
      8465        73  SLPC      H8X            -4.7426146139      -21.2522754182       -6.9784303711  MEMB      73              0.0000000000
      8466        73  SLPC      H8Y            -5.3985205727      -19.7349623325       -7.6743081321  MEMB      73              0.0000000000
      8467        73  SLPC      C39            -3.3413087631      -19.5983948906       -7.0373310058  MEMB      73              0.0000000000
      8468        73  SLPC      H9X            -3.7582333868      -18.8991337062       -6.2780370730  MEMB      73              0.0000000000
      8469        73  SLPC      H9Y            -2.8705844904      -18.9916476449       -7.8317828838  MEMB      73              0.0000000000
      8470        73  SLPC      C310           -2.2788730439      -20.4543686884       -6.3275780977  MEMB      73              0.0000000000
      8471        73  SLPC      H10X           -1.9166921138      -21.2085812862       -7.0436519219  MEMB      73              0.0000000000
      8472        73  SLPC      H10Y           -2.7442510917      -21.0115660739       -5.4887847288  MEMB      73              0.0000000000
      8473        73  SLPC      C311           -1.0554988342      -19.6740476489       -5.8142373523  MEMB      73              0.0000000000
      8474        73  SLPC      H11X           -1.2479709801      -19.3134854027       -4.7819510344  MEMB      73              0.0000000000
      8475        73  SLPC      H11Y           -0.8812587661      -18.7949778849       -6.4534535445  MEMB      73              0.0000000000
      8476        73  SLPC      C312            0.2526188609      -20.4752164550       -5.8509305563  MEMB      73              0.0000000000
      8477        73  SLPC      H12X            0.4587822695      -20.8043188075       -6.8934958151  MEMB      73              0.0000000000
      8478        73  SLPC      H12Y            0.1024333817      -21.3748110310       -5.2222163273  MEMB      73              0.0000000000
      8479        73  SLPC      C313            1.4544819070      -19.6861116438       -5.3246615359  MEMB      73              0.0000000000
      8480        73  SLPC      H13X            1.2057430837      -19.3127350150       -4.3057591614  MEMB      73              0.0000000000
      8481        73  SLPC      H13Y            1.6194779397      -18.7932988451       -5.9683859368  MEMB      73              0.0000000000
      8482        73  SLPC      C314            2.7680806097      -20.4889953213       -5.2674209608  MEMB      73              0.0000000000
      8483        73  SLPC      H14X            3.5037246283      -19.8372454001       -4.7497293919  MEMB      73              0.0000000000
      8484        73  SLPC      H14Y            3.1422515079      -20.6748197910       -6.2936922224  MEMB      73              0.0000000000
      8485        73  SLPC      C315            2.7029071710      -21.8194886826       -4.5022713188  MEMB      73              0.0000000000
      8486        73  SLPC      H15X            3.7294639176      -22.2004859403       -4.3164305942  MEMB      73              0.0000000000
      8487        73  SLPC      H15Y            2.1780055448      -22.5918496397       -5.1076799599  MEMB      73              0.0000000000
      8488        73  SLPC      C316            1.9899616310      -21.6467271940       -3.1669965775  MEMB      73              0.0000000000
      8489        73  SLPC      H16X            0.9034713005      -21.8327614190       -3.3313204717  MEMB      73              0.0000000000
      8490        73  SLPC      H16Y            2.1040644140      -20.5980331182       -2.8075867566  MEMB      73              0.0000000000
      8491        73  SLPC      C317            2.4821687504      -22.5484978742       -2.0453040638  MEMB      73              0.0000000000
      8492        73  SLPC      H17X            3.3624730090      -22.0766214418       -1.5588928454  MEMB      73              0.0000000000
      8493        73  SLPC      H17Y            2.8241118144      -23.5376911317       -2.4136622974  MEMB      73              0.0000000000
      8494        73  SLPC      C318            1.3448640020      -22.7099347233       -1.0519583335  MEMB      73              0.0000000000
      8495        73  SLPC      H18X            0.9628767223      -21.7046950102       -0.7868711989  MEMB      73              0.0000000000
      8496        73  SLPC      H18Y            1.6794622206      -23.2201895711       -0.1262226260  MEMB      73              0.0000000000
      8497        73  SLPC      H18Z            0.5006889456      -23.2713234201       -1.5016228740  MEMB      73              0.0000000000
      8498        74  SAPS      N             -17.1835276504       15.2403325608      -21.2408243404  MEMB      74              0.0000000000
      8499        74  SAPS      HN1           -17.1959412986       16.0537752203      -21.8906434659  MEMB      74              0.0000000000
      8500        74  SAPS      HN2           -18.1444462668       14.8748061532      -21.0711829237  MEMB      74              0.0000000000
      8501        74  SAPS      HN3           -16.6962407413       15.4553291875      -20.3322313246  MEMB      74              0.0000000000
      8502        74  SAPS      C12           -16.2869159396       14.2452349576      -21.8974656954  MEMB      74              0.0000000000
      8503        74  SAPS      H12A          -16.7839844791       13.2815330600      -21.9014142453  MEMB      74              0.0000000000
      8504        74  SAPS      C13           -15.8471519771       14.6024661563      -23.3510835633  MEMB      74              0.0000000000
      8505        74  SAPS      O13A          -15.7729034076       15.8284105563      -23.6605871334  MEMB      74              0.0000000000
      8506        74  SAPS      O13B          -15.0811183868       13.7482931045      -23.8687104157  MEMB      74              0.0000000000
      8507        74  SAPS      C11           -14.9633745606       14.1786439311      -21.0671284837  MEMB      74              0.0000000000
      8508        74  SAPS      H11A          -14.2210993982       14.9036433645      -21.4752749051  MEMB      74              0.0000000000
      8509        74  SAPS      H11B          -14.5340459680       13.1571125049      -21.2373631662  MEMB      74              0.0000000000
      8510        74  SAPS      P             -14.1698463072       13.8669727243      -18.6164092682  MEMB      74              0.0000000000
      8511        74  SAPS      O13           -13.0185220497       13.2370663204      -19.3170607365  MEMB      74              0.0000000000
      8512        74  SAPS      O14           -13.9374548074       14.8710706465      -17.5691344203  MEMB      74              0.0000000000
      8513        74  SAPS      O12           -15.1716844185       14.4940420136      -19.6806360474  MEMB      74              0.0000000000
      8514        74  SAPS      O11           -15.1335618688       12.7357865567      -18.0887141527  MEMB      74              0.0000000000
      8515        74  SAPS      C1            -16.2580777600       13.1143225171      -17.2800414209  MEMB      74              0.0000000000
      8516        74  SAPS      HA            -16.4527227511       14.2122258332      -17.2612664490  MEMB      74              0.0000000000
      8517        74  SAPS      HB            -17.1775487235       12.6608254904      -17.7054195333  MEMB      74              0.0000000000
      8518        74  SAPS      C2            -16.1320889719       12.5959985835      -15.8168336040  MEMB      74              0.0000000000
      8519        74  SAPS      HS            -17.0941648234       12.0962162059      -15.5826832344  MEMB      74              0.0000000000
      8520        74  SAPS      O21           -15.9275993042       13.6504725768      -14.8798742826  MEMB      74              0.0000000000
      8521        74  SAPS      C21           -16.9637676349       14.3997773764      -14.6146397592  MEMB      74              0.0000000000
      8522        74  SAPS      O22           -17.9969535555       14.4614317698      -15.2638887718  MEMB      74              0.0000000000
      8523        74  SAPS      C22           -16.6393356768       15.1562233276      -13.3324340605  MEMB      74              0.0000000000
      8524        74  SAPS      H2R           -15.7348223955       14.7035429942      -12.8665837581  MEMB      74              0.0000000000
      8525        74  SAPS      H2S           -16.4242451206       16.2037876823      -13.5852243895  MEMB      74              0.0000000000
      8526        74  SAPS      C3            -14.9829200103       11.5632630616      -15.6132700755  MEMB      74              0.0000000000
      8527        74  SAPS      HX            -14.0150455252       12.1106912997      -15.5760841960  MEMB      74              0.0000000000
      8528        74  SAPS      HY            -14.9641403785       10.9208917859      -16.5202985703  MEMB      74              0.0000000000
      8529        74  SAPS      O31           -15.1839052831       10.7167452972      -14.4527471614  MEMB      74              0.0000000000
      8530        74  SAPS      C31           -15.0444698885       11.3111329253      -13.2660725825  MEMB      74              0.0000000000
      8531        74  SAPS      O32           -14.4134967259       12.3255290371      -13.0498533261  MEMB      74              0.0000000000
      8532        74  SAPS      C32           -15.7822980107       10.5384062100      -12.1755144365  MEMB      74              0.0000000000
      8533        74  SAPS      H2X           -15.1103103863       10.5422414584      -11.2906024334  MEMB      74              0.0000000000
      8534        74  SAPS      H2Y           -15.9517321151        9.4965876977      -12.5083380728  MEMB      74              0.0000000000
      8535        74  SAPS      C23           -17.7984641493       15.0727477586      -12.3397501043  MEMB      74              0.0000000000
      8536        74  SAPS      H3R           -17.3741588938       15.2760799987      -11.3295036876  MEMB      74              0.0000000000
      8537        74  SAPS      H3S           -18.2104682378       14.0359904958      -12.3197141975  MEMB      74              0.0000000000
      8538        74  SAPS      C24           -18.9002627498       16.0858137407      -12.6646820326  MEMB      74              0.0000000000
      8539        74  SAPS      H4R           -19.2755760607       15.9283069081      -13.7003891188  MEMB      74              0.0000000000
      8540        74  SAPS      H4S           -18.5082788880       17.1245112332      -12.6014006970  MEMB      74              0.0000000000
      8541        74  SAPS      C25           -20.0127381493       15.8533107054      -11.6995566260  MEMB      74              0.0000000000
      8542        74  SAPS      H5R           -20.8863282756       15.3277435646      -12.1173584297  MEMB      74              0.0000000000
      8543        74  SAPS      C26           -19.9681545033       16.1454249219      -10.3926365800  MEMB      74              0.0000000000
      8544        74  SAPS      H6R           -20.8290123799       15.8920513808       -9.7741522875  MEMB      74              0.0000000000
      8545        74  SAPS      C27           -18.8319867234       16.7562509711       -9.6206003014  MEMB      74              0.0000000000
      8546        74  SAPS      H7R           -19.2407180858       17.6006611937       -9.0407960424  MEMB      74              0.0000000000
      8547        74  SAPS      H7S           -18.0522077205       17.1836114948      -10.2873176411  MEMB      74              0.0000000000
      8548        74  SAPS      C28           -18.2605881426       15.7651871864       -8.6436110459  MEMB      74              0.0000000000
      8549        74  SAPS      H8R           -18.9397506156       14.9451858366       -8.3582091725  MEMB      74              0.0000000000
      8550        74  SAPS      C29           -17.0503312990       15.8187536230       -8.0616781257  MEMB      74              0.0000000000
      8551        74  SAPS      H9R           -16.7938656723       14.9970616183       -7.3756396230  MEMB      74              0.0000000000
      8552        74  SAPS      C210          -15.9789329703       16.8777590465       -8.2448190413  MEMB      74              0.0000000000
      8553        74  SAPS      H10R          -16.1954892001       17.7497273313       -7.5935701723  MEMB      74              0.0000000000
      8554        74  SAPS      H10S          -16.0142333102       17.2686074637       -9.2877241170  MEMB      74              0.0000000000
      8555        74  SAPS      C211          -14.6066366344       16.3167065310       -7.9354853473  MEMB      74              0.0000000000
      8556        74  SAPS      H11R          -14.3658071840       15.4537913591       -8.5834036308  MEMB      74              0.0000000000
      8557        74  SAPS      C212          -13.6263940202       16.7655090600       -7.1048762301  MEMB      74              0.0000000000
      8558        74  SAPS      H12R          -12.7157826226       16.1532870045       -7.0949483204  MEMB      74              0.0000000000
      8559        74  SAPS      C213          -13.5277726699       17.9851192964       -6.1776444984  MEMB      74              0.0000000000
      8560        74  SAPS      H13R          -14.5342420571       18.4580760604       -6.1524166368  MEMB      74              0.0000000000
      8561        74  SAPS      H13S          -12.9596091049       18.5861309638       -6.8898213099  MEMB      74              0.0000000000
      8562        74  SAPS      C214          -12.6958984446       18.2030872091       -4.8519272374  MEMB      74              0.0000000000
      8563        74  SAPS      H14R          -11.6176226622       18.0731924467       -5.1024842968  MEMB      74              0.0000000000
      8564        74  SAPS      C215          -12.9421677674       18.3514832941       -3.4893500008  MEMB      74              0.0000000000
      8565        74  SAPS      H15R          -12.0208465534       18.4437573581       -2.8610930326  MEMB      74              0.0000000000
      8566        74  SAPS      C216          -14.1380884779       18.4127124836       -2.4817577039  MEMB      74              0.0000000000
      8567        74  SAPS      H16R          -15.0513286311       18.9078821208       -2.8485884267  MEMB      74              0.0000000000
      8568        74  SAPS      H16S          -13.8234425632       19.1887746975       -1.7534869509  MEMB      74              0.0000000000
      8569        74  SAPS      C217          -14.5097126934       17.2599967289       -1.4388403709  MEMB      74              0.0000000000
      8570        74  SAPS      H17R          -14.0521948649       17.5658682143       -0.4743169528  MEMB      74              0.0000000000
      8571        74  SAPS      H17S          -13.9670476388       16.3724063590       -1.7907767662  MEMB      74              0.0000000000
      8572        74  SAPS      C218          -15.9926337461       16.8205751330       -1.1044321466  MEMB      74              0.0000000000
      8573        74  SAPS      H18R          -16.4657472925       16.4127407556       -2.0139630578  MEMB      74              0.0000000000
      8574        74  SAPS      H18S          -16.6085459091       17.6929933539       -0.8126868310  MEMB      74              0.0000000000
      8575        74  SAPS      C219          -16.2504788424       15.7235037434       -0.0168473417  MEMB      74              0.0000000000
      8576        74  SAPS      H19R          -16.6097974461       16.1806076658        0.9214607710  MEMB      74              0.0000000000
      8577        74  SAPS      H19S          -15.2955262146       15.2595858463        0.2680496249  MEMB      74              0.0000000000
      8578        74  SAPS      C220          -17.3077665907       14.6379671027       -0.3210589199  MEMB      74              0.0000000000
      8579        74  SAPS      H20R          -17.7716134329       14.7843500736       -1.3178448446  MEMB      74              0.0000000000
      8580        74  SAPS      H20S          -18.1241769104       14.6500605032        0.4343487947  MEMB      74              0.0000000000
      8581        74  SAPS      H20T          -16.8557238431       13.6243987511       -0.2735956096  MEMB      74              0.0000000000
      8582        74  SAPS      C33           -17.1181811188       11.2315044479      -11.8182743277  MEMB      74              0.0000000000
      8583        74  SAPS      H3X           -17.8524851037       11.0818358615      -12.6439346649  MEMB      74              0.0000000000
      8584        74  SAPS      H3Y           -16.9570577902       12.3308633302      -11.7135350866  MEMB      74              0.0000000000
      8585        74  SAPS      C34           -17.7471806109       10.7539566019      -10.5038154685  MEMB      74              0.0000000000
      8586        74  SAPS      H4X           -17.0616847839       11.0211923632       -9.6711396528  MEMB      74              0.0000000000
      8587        74  SAPS      H4Y           -17.8707054037        9.6479782021      -10.5039989950  MEMB      74              0.0000000000
      8588        74  SAPS      C35           -19.1131469563       11.4230688059      -10.2807460762  MEMB      74              0.0000000000
      8589        74  SAPS      H5X           -19.8273973698       11.0309253011      -11.0407346805  MEMB      74              0.0000000000
      8590        74  SAPS      H5Y           -19.0158448708       12.5180285046      -10.4622135428  MEMB      74              0.0000000000
      8591        74  SAPS      C36           -19.7036273398       11.2046275408       -8.8830379710  MEMB      74              0.0000000000
      8592        74  SAPS      H6X           -19.7740037431       10.1199226609       -8.6747564197  MEMB      74              0.0000000000
      8593        74  SAPS      H6Y           -20.7336989071       11.6227389627       -8.8767849150  MEMB      74              0.0000000000
      8594        74  SAPS      C37           -18.9102599151       11.8942709620       -7.7733325363  MEMB      74              0.0000000000
      8595        74  SAPS      H7X           -18.6764121484       12.9267173822       -8.1087671736  MEMB      74              0.0000000000
      8596        74  SAPS      H7Y           -17.9419156035       11.3715678351       -7.6207631744  MEMB      74              0.0000000000
      8597        74  SAPS      C38           -19.6876901934       11.9666263275       -6.4499866338  MEMB      74              0.0000000000
      8598        74  SAPS      H8X           -19.5735667905       11.0054914631       -5.9012626702  MEMB      74              0.0000000000
      8599        74  SAPS      H8Y           -20.7675585456       12.1054707892       -6.6803512343  MEMB      74              0.0000000000
      8600        74  SAPS      C39           -19.2250661879       13.1282417998       -5.5651647251  MEMB      74              0.0000000000
      8601        74  SAPS      H9X           -19.8596130401       13.2249983027       -4.6574848596  MEMB      74              0.0000000000
      8602        74  SAPS      H9Y           -19.3657953368       14.0641999240       -6.1587555274  MEMB      74              0.0000000000
      8603        74  SAPS      C310          -17.7435658332       12.9979987798       -5.1778688167  MEMB      74              0.0000000000
      8604        74  SAPS      H10X          -17.2942574559       13.9964386386       -5.2764866328  MEMB      74              0.0000000000
      8605        74  SAPS      H10Y          -17.2052818388       12.3656814920       -5.9116367095  MEMB      74              0.0000000000
      8606        74  SAPS      C311          -17.4687644242       12.4543212625       -3.7622871505  MEMB      74              0.0000000000
      8607        74  SAPS      H11X          -18.1953537930       11.6354549412       -3.5679681082  MEMB      74              0.0000000000
      8608        74  SAPS      H11Y          -17.6740167395       13.2611856070       -3.0260627925  MEMB      74              0.0000000000
      8609        74  SAPS      C312          -16.0225908534       11.9088404487       -3.6024403848  MEMB      74              0.0000000000
      8610        74  SAPS      H12X          -15.4605757130       12.1399072575       -4.5359825549  MEMB      74              0.0000000000
      8611        74  SAPS      H12Y          -16.0109724963       10.8138106554       -3.5289661617  MEMB      74              0.0000000000
      8612        74  SAPS      C313          -15.1985723886       12.4590296198       -2.4205951887  MEMB      74              0.0000000000
      8613        74  SAPS      H13X          -15.7533352433       13.2772831771       -1.9323778071  MEMB      74              0.0000000000
      8614        74  SAPS      H13Y          -14.2862274121       12.9192638485       -2.8653767192  MEMB      74              0.0000000000
      8615        74  SAPS      C314          -14.6869735683       11.4475221012       -1.3813283842  MEMB      74              0.0000000000
      8616        74  SAPS      H14X          -14.4369061266       10.5011563319       -1.9094708173  MEMB      74              0.0000000000
      8617        74  SAPS      H14Y          -15.4642112418       11.2401620523       -0.6168168412  MEMB      74              0.0000000000
      8618        74  SAPS      C315          -13.4225157214       11.9379805736       -0.6648978653  MEMB      74              0.0000000000
      8619        74  SAPS      H15X          -12.6861522605       12.2135882587       -1.4455089514  MEMB      74              0.0000000000
      8620        74  SAPS      H15Y          -12.9770926004       11.1305744269       -0.0461453727  MEMB      74              0.0000000000
      8621        74  SAPS      C316          -13.6379513323       13.2099259872        0.1500913394  MEMB      74              0.0000000000
      8622        74  SAPS      H16X          -14.3003235182       13.0606966517        1.0266472526  MEMB      74              0.0000000000
      8623        74  SAPS      H16Y          -14.1519851544       13.9177353075       -0.5333589371  MEMB      74              0.0000000000
      8624        74  SAPS      C317          -12.3224130818       13.8610059891        0.5698834386  MEMB      74              0.0000000000
      8625        74  SAPS      H17X          -11.5764704913       13.0944897441        0.8775801889  MEMB      74              0.0000000000
      8626        74  SAPS      H17Y          -12.5101660231       14.5093987486        1.4509168444  MEMB      74              0.0000000000
      8627        74  SAPS      C318          -11.7736640578       14.7195956599       -0.5600253661  MEMB      74              0.0000000000
      8628        74  SAPS      H18X          -12.6126107745       15.1545140773       -1.1249874702  MEMB      74              0.0000000000
      8629        74  SAPS      H18Y          -11.1819417195       14.0942022734       -1.2619329965  MEMB      74              0.0000000000
      8630        74  SAPS      H18Z          -11.1503350903       15.5582271211       -0.1926283504  MEMB      74              0.0000000000
      8631        75  SAPS      N              16.6386172947       -9.6329142348      -20.8983868102  MEMB      75              0.0000000000
      8632        75  SAPS      HN1            17.3683814120       -8.8904829263      -20.7962953170  MEMB      75              0.0000000000
      8633        75  SAPS      HN2            16.1107095770       -9.5755277944      -21.7991351899  MEMB      75              0.0000000000
      8634        75  SAPS      HN3            15.9635323021       -9.6594632319      -20.1190766283  MEMB      75              0.0000000000
      8635        75  SAPS      C12            17.3573110211      -10.9440674548      -20.9952289609  MEMB      75              0.0000000000
      8636        75  SAPS      H12A           17.2603761659      -11.4750584883      -20.0579201233  MEMB      75              0.0000000000
      8637        75  SAPS      C13            16.7589318068      -11.8223808951      -22.1137295964  MEMB      75              0.0000000000
      8638        75  SAPS      O13A           15.7974601035      -11.3137648462      -22.7430344537  MEMB      75              0.0000000000
      8639        75  SAPS      O13B           17.0438470313      -13.0459279099      -22.1800374503  MEMB      75              0.0000000000
      8640        75  SAPS      C11            18.8423229471      -10.6036609686      -21.2770388116  MEMB      75              0.0000000000
      8641        75  SAPS      H11A           18.9346368973      -10.1149561327      -22.2732163131  MEMB      75              0.0000000000
      8642        75  SAPS      H11B           19.4317585546      -11.5511647809      -21.3444179914  MEMB      75              0.0000000000
      8643        75  SAPS      P              19.9443928335      -10.3088176329      -18.9463453509  MEMB      75              0.0000000000
      8644        75  SAPS      O13            20.7087219354      -11.5293798525      -19.3027672787  MEMB      75              0.0000000000
      8645        75  SAPS      O14            20.6455785079       -9.2379197216      -18.2139439679  MEMB      75              0.0000000000
      8646        75  SAPS      O12            19.3429080535       -9.6961452805      -20.2785860945  MEMB      75              0.0000000000
      8647        75  SAPS      O11            18.5833440410      -10.6193171303      -18.2075148144  MEMB      75              0.0000000000
      8648        75  SAPS      C1             17.7720813108       -9.5226609479      -17.7415913292  MEMB      75              0.0000000000
      8649        75  SAPS      HA             18.2374927060       -8.5138496478      -17.8820721173  MEMB      75              0.0000000000
      8650        75  SAPS      HB             16.7972981996       -9.5017264031      -18.2750650962  MEMB      75              0.0000000000
      8651        75  SAPS      C2             17.4157770903       -9.6768244312      -16.2464022096  MEMB      75              0.0000000000
      8652        75  SAPS      HS             16.7774089759       -8.8053800861      -15.9631285089  MEMB      75              0.0000000000
      8653        75  SAPS      O21            18.5874487928       -9.7339956654      -15.4340676645  MEMB      75              0.0000000000
      8654        75  SAPS      C21            19.1837407482       -8.5914960801      -15.1937189867  MEMB      75              0.0000000000
      8655        75  SAPS      O22            18.8052777041       -7.4882530392      -15.5541788312  MEMB      75              0.0000000000
      8656        75  SAPS      C22            20.4069888501       -8.8830129863      -14.3357229695  MEMB      75              0.0000000000
      8657        75  SAPS      H2R            20.2408612762       -9.8911523524      -13.8914552461  MEMB      75              0.0000000000
      8658        75  SAPS      H2S            21.2959849612       -8.9477425212      -14.9945878222  MEMB      75              0.0000000000
      8659        75  SAPS      C3             16.6137166283      -10.9781432602      -15.9953655131  MEMB      75              0.0000000000
      8660        75  SAPS      HX             17.2875312726      -11.8315678671      -16.2361718293  MEMB      75              0.0000000000
      8661        75  SAPS      HY             15.7394786113      -11.0356079368      -16.6802458717  MEMB      75              0.0000000000
      8662        75  SAPS      O31            16.2187573765      -11.0658095636      -14.6129331543  MEMB      75              0.0000000000
      8663        75  SAPS      C31            15.2876665251      -10.1712363020      -14.2933744297  MEMB      75              0.0000000000
      8664        75  SAPS      O32            14.5934436403       -9.5596554358      -15.0851124436  MEMB      75              0.0000000000
      8665        75  SAPS      C32            15.2969195716       -9.9458663251      -12.7897320754  MEMB      75              0.0000000000
      8666        75  SAPS      H2X            15.2628283971      -10.9200378485      -12.2648545587  MEMB      75              0.0000000000
      8667        75  SAPS      H2Y            14.3686416869       -9.3871054205      -12.5491656635  MEMB      75              0.0000000000
      8668        75  SAPS      C23            20.6389657402       -7.8823299177      -13.1749255579  MEMB      75              0.0000000000
      8669        75  SAPS      H3R            19.6876245458       -7.3738777637      -12.8958760743  MEMB      75              0.0000000000
      8670        75  SAPS      H3S            21.3565338314       -7.1014857020      -13.5105350743  MEMB      75              0.0000000000
      8671        75  SAPS      C24            21.1701579014       -8.5908385694      -11.9138568626  MEMB      75              0.0000000000
      8672        75  SAPS      H4R            20.3187991447       -9.1386249721      -11.4565704413  MEMB      75              0.0000000000
      8673        75  SAPS      H4S            21.4964801797       -7.8389787692      -11.1629809545  MEMB      75              0.0000000000
      8674        75  SAPS      C25            22.3025699677       -9.5233670328      -12.2615005040  MEMB      75              0.0000000000
      8675        75  SAPS      H5R            23.1616478692       -9.0310286424      -12.7397531175  MEMB      75              0.0000000000
      8676        75  SAPS      C26            22.3382619352      -10.8616684618      -12.1085728610  MEMB      75              0.0000000000
      8677        75  SAPS      H6R            23.2599940656      -11.3889886710      -12.4082433700  MEMB      75              0.0000000000
      8678        75  SAPS      C27            21.2628830803      -11.7597064050      -11.5488535380  MEMB      75              0.0000000000
      8679        75  SAPS      H7R            20.8899200747      -12.4221377350      -12.3604666600  MEMB      75              0.0000000000
      8680        75  SAPS      H7S            20.3750437470      -11.1876841937      -11.1964050800  MEMB      75              0.0000000000
      8681        75  SAPS      C28            21.8264966013      -12.6125516258      -10.4380554148  MEMB      75              0.0000000000
      8682        75  SAPS      H8R            22.8915498912      -12.8865007850      -10.5389544652  MEMB      75              0.0000000000
      8683        75  SAPS      C29            21.1498788340      -13.0717894481       -9.3691882004  MEMB      75              0.0000000000
      8684        75  SAPS      H9R            21.7126054809      -13.6322460605       -8.6108358289  MEMB      75              0.0000000000
      8685        75  SAPS      C210           19.6967437418      -12.8549667845       -9.0262427655  MEMB      75              0.0000000000
      8686        75  SAPS      H10R           19.5516238798      -11.7844285722       -8.7603233028  MEMB      75              0.0000000000
      8687        75  SAPS      H10S           19.4909980698      -13.4255093438       -8.0937632372  MEMB      75              0.0000000000
      8688        75  SAPS      C211           18.6694034453      -13.2550817901      -10.0611913796  MEMB      75              0.0000000000
      8689        75  SAPS      H11R           19.0541851410      -13.4567103927      -11.0738341602  MEMB      75              0.0000000000
      8690        75  SAPS      C212           17.3417388589      -13.3063784610       -9.8340542837  MEMB      75              0.0000000000
      8691        75  SAPS      H12R           16.6618456806      -13.6117555340      -10.6443942755  MEMB      75              0.0000000000
      8692        75  SAPS      C213           16.6773348394      -12.9740836458       -8.5218896501  MEMB      75              0.0000000000
      8693        75  SAPS      H13R           15.6570153598      -12.5821061440       -8.7205027600  MEMB      75              0.0000000000
      8694        75  SAPS      H13S           17.2160275159      -12.1248959786       -8.0444996492  MEMB      75              0.0000000000
      8695        75  SAPS      C214           16.5765089387      -14.1586288052       -7.5891830854  MEMB      75              0.0000000000
      8696        75  SAPS      H14R           16.0442619791      -15.0310795806       -7.9993190599  MEMB      75              0.0000000000
      8697        75  SAPS      C215           17.0709881449      -14.2422052239       -6.3412456868  MEMB      75              0.0000000000
      8698        75  SAPS      H15R           16.8961409894      -15.1598763162       -5.7580188026  MEMB      75              0.0000000000
      8699        75  SAPS      C216           17.8338400220      -13.1767534466       -5.6010662553  MEMB      75              0.0000000000
      8700        75  SAPS      H16R           18.4507480099      -12.5479464177       -6.2812023949  MEMB      75              0.0000000000
      8701        75  SAPS      H16S           18.5525650434      -13.6673386063       -4.9072017407  MEMB      75              0.0000000000
      8702        75  SAPS      C217           16.9117921799      -12.2580996228       -4.7796276571  MEMB      75              0.0000000000
      8703        75  SAPS      H17R           17.5119785406      -11.8677596682       -3.9340745787  MEMB      75              0.0000000000
      8704        75  SAPS      H17S           16.0571721310      -12.8209296678       -4.3462136207  MEMB      75              0.0000000000
      8705        75  SAPS      C218           16.4338195187      -11.0160205813       -5.5424669229  MEMB      75              0.0000000000
      8706        75  SAPS      H18R           15.8760279383      -11.3217649458       -6.4546337600  MEMB      75              0.0000000000
      8707        75  SAPS      H18S           17.3293843694      -10.4489412532       -5.8715671043  MEMB      75              0.0000000000
      8708        75  SAPS      C219           15.5302798871      -10.0939154809       -4.7118897883  MEMB      75              0.0000000000
      8709        75  SAPS      H19R           14.5569442352      -10.6044252831       -4.6386812675  MEMB      75              0.0000000000
      8710        75  SAPS      H19S           15.3548320312       -9.1589911918       -5.2836136538  MEMB      75              0.0000000000
      8711        75  SAPS      C220           15.9879561612       -9.7611821134       -3.2862418460  MEMB      75              0.0000000000
      8712        75  SAPS      H20R           16.9500238583       -9.2118611444       -3.2945916256  MEMB      75              0.0000000000
      8713        75  SAPS      H20S           16.1058868718      -10.6877974564       -2.6862902946  MEMB      75              0.0000000000
      8714        75  SAPS      H20T           15.2376520209       -9.1212117582       -2.7746292367  MEMB      75              0.0000000000
      8715        75  SAPS      C33            16.5391430622       -9.1393734862      -12.3440769749  MEMB      75              0.0000000000
      8716        75  SAPS      H3X            16.7796331617       -8.3423519770      -13.0871036466  MEMB      75              0.0000000000
      8717        75  SAPS      H3Y            17.4187870744       -9.8194155826      -12.2830673262  MEMB      75              0.0000000000
      8718        75  SAPS      C34            16.2950963550       -8.4523508131      -10.9976533790  MEMB      75              0.0000000000
      8719        75  SAPS      H4X            15.7807119821       -9.1616990750      -10.3112287732  MEMB      75              0.0000000000
      8720        75  SAPS      H4Y            15.6060817779       -7.5956110574      -11.1792753752  MEMB      75              0.0000000000
      8721        75  SAPS      C35            17.5628512275       -7.9260690673      -10.3097298425  MEMB      75              0.0000000000
      8722        75  SAPS      H5X            17.2665220289       -7.1046900294       -9.6163539964  MEMB      75              0.0000000000
      8723        75  SAPS      H5Y            18.2572802644       -7.4937123446      -11.0599930842  MEMB      75              0.0000000000
      8724        75  SAPS      C36            18.2568551262       -9.0036679973       -9.4704630007  MEMB      75              0.0000000000
      8725        75  SAPS      H6X            18.6365908350       -9.8311285205      -10.1077644754  MEMB      75              0.0000000000
      8726        75  SAPS      H6Y            17.4850347091       -9.4476946755       -8.7981462238  MEMB      75              0.0000000000
      8727        75  SAPS      C37            19.3820123059       -8.4626827494       -8.5747150090  MEMB      75              0.0000000000
      8728        75  SAPS      H7X            19.3098984372       -7.3536076125       -8.5064315267  MEMB      75              0.0000000000
      8729        75  SAPS      H7Y            20.3703086579       -8.7111071408       -9.0224620984  MEMB      75              0.0000000000
      8730        75  SAPS      C38            19.2853018515       -9.0542686448       -7.1627315053  MEMB      75              0.0000000000
      8731        75  SAPS      H8X            19.2896910041      -10.1644637508       -7.2241717913  MEMB      75              0.0000000000
      8732        75  SAPS      H8Y            18.3201403083       -8.7574030774       -6.7102527211  MEMB      75              0.0000000000
      8733        75  SAPS      C39            20.3918890424       -8.6027554420       -6.2157437941  MEMB      75              0.0000000000
      8734        75  SAPS      H9X            20.5855359786       -7.5154551618       -6.3518522223  MEMB      75              0.0000000000
      8735        75  SAPS      H9Y            21.3066751582       -9.1629141024       -6.4782178561  MEMB      75              0.0000000000
      8736        75  SAPS      C310           20.0591544039       -8.8594199541       -4.7446089113  MEMB      75              0.0000000000
      8737        75  SAPS      H10X           19.0350387013       -8.4895120080       -4.5170916680  MEMB      75              0.0000000000
      8738        75  SAPS      H10Y           20.7683841921       -8.2894996893       -4.1020252981  MEMB      75              0.0000000000
      8739        75  SAPS      C311           20.1330924207      -10.3313122226       -4.3467970068  MEMB      75              0.0000000000
      8740        75  SAPS      H11X           21.1505718604      -10.7395839782       -4.5129426365  MEMB      75              0.0000000000
      8741        75  SAPS      H11Y           19.4252553700      -10.9276392959       -4.9613653160  MEMB      75              0.0000000000
      8742        75  SAPS      C312           19.7878269073      -10.4609411410       -2.8723320655  MEMB      75              0.0000000000
      8743        75  SAPS      H12X           18.7715839308      -10.0424208405       -2.7046239950  MEMB      75              0.0000000000
      8744        75  SAPS      H12Y           20.4964337804       -9.8506719982       -2.2682190838  MEMB      75              0.0000000000
      8745        75  SAPS      C313           19.8015176274      -11.8946035085       -2.3708285805  MEMB      75              0.0000000000
      8746        75  SAPS      H13X           20.8024524825      -12.3266521912       -2.3790946006  MEMB      75              0.0000000000
      8747        75  SAPS      H13Y           19.2144656564      -12.5593104465       -3.0372877763  MEMB      75              0.0000000000
      8748        75  SAPS      C314           19.2641437141      -11.9369470652       -0.9535141783  MEMB      75              0.0000000000
      8749        75  SAPS      H14X           19.2166376638      -10.9057437533       -0.5426855245  MEMB      75              0.0000000000
      8750        75  SAPS      H14Y           19.9295455557      -12.5331341646       -0.2875570208  MEMB      75              0.0000000000
      8751        75  SAPS      C315           17.8928302794      -12.5713980299       -0.9881181906  MEMB      75              0.0000000000
      8752        75  SAPS      H15X           17.3542451371      -12.3443309356       -1.9308749673  MEMB      75              0.0000000000
      8753        75  SAPS      H15Y           17.2643371941      -12.1985695270       -0.1689557772  MEMB      75              0.0000000000
      8754        75  SAPS      C316           18.0461451042      -14.0623728984       -0.8078790905  MEMB      75              0.0000000000
      8755        75  SAPS      H16X           18.4277208021      -14.2296407639        0.2261909266  MEMB      75              0.0000000000
      8756        75  SAPS      H16Y           18.7933725673      -14.4820312325       -1.5180223890  MEMB      75              0.0000000000
      8757        75  SAPS      C317           16.7147025696      -14.7423892280       -0.9806429147  MEMB      75              0.0000000000
      8758        75  SAPS      H17X           16.5737398074      -14.9488757989       -2.0659887485  MEMB      75              0.0000000000
      8759        75  SAPS      H17Y           15.8941871143      -14.0602972566       -0.6515840804  MEMB      75              0.0000000000
      8760        75  SAPS      C318           16.6724990926      -16.0089696133       -0.1505737511  MEMB      75              0.0000000000
      8761        75  SAPS      H18X           17.2617063631      -16.8144438845       -0.6431291500  MEMB      75              0.0000000000
      8762        75  SAPS      H18Y           15.6358626051      -16.3515488165        0.0093489287  MEMB      75              0.0000000000
      8763        75  SAPS      H18Z           17.0884980822      -15.7968126584        0.8524166422  MEMB      75              0.0000000000
      8764        76  POPC      N              21.4883753351       -5.6161169626      -19.3939482023  MEMB      76              0.0000000000
      8765        76  POPC      C12            20.4720042893       -4.5376475146      -19.0690797347  MEMB      76              0.0000000000
      8766        76  POPC      H12A           20.7841431246       -3.9696287176      -18.1892848723  MEMB      76              0.0000000000
      8767        76  POPC      H12B           19.5167161678       -4.9920111814      -18.8229029819  MEMB      76              0.0000000000
      8768        76  POPC      C13            21.5805440679       -6.6298952299      -18.3049530345  MEMB      76              0.0000000000
      8769        76  POPC      H13A           20.6387390000       -7.1662271800      -18.1532303104  MEMB      76              0.0000000000
      8770        76  POPC      H13B           22.2473287804       -7.4423463936      -18.5885656894  MEMB      76              0.0000000000
      8771        76  POPC      H13C           21.9061509104       -6.2283865449      -17.3587594042  MEMB      76              0.0000000000
      8772        76  POPC      C14            21.0838461063       -6.3108679535      -20.6731041062  MEMB      76              0.0000000000
      8773        76  POPC      H14A           20.1171236591       -6.7970561848      -20.5675678086  MEMB      76              0.0000000000
      8774        76  POPC      H14B           20.9803551565       -5.5845845119      -21.4753540791  MEMB      76              0.0000000000
      8775        76  POPC      H14C           21.7799716378       -7.0837590317      -20.9805722744  MEMB      76              0.0000000000
      8776        76  POPC      C15            22.8325411952       -4.9897543771      -19.5926375960  MEMB      76              0.0000000000
      8777        76  POPC      H15A           23.2084508998       -4.5356374333      -18.6863210874  MEMB      76              0.0000000000
      8778        76  POPC      H15B           22.7518463610       -4.1633827694      -20.2936108496  MEMB      76              0.0000000000
      8779        76  POPC      H15C           23.5562604745       -5.6966932253      -19.9664026216  MEMB      76              0.0000000000
      8780        76  POPC      C11            20.2710046853       -3.4647216546      -20.1671484445  MEMB      76              0.0000000000
      8781        76  POPC      H11A           19.3167082892       -2.9184966657      -19.9662992820  MEMB      76              0.0000000000
      8782        76  POPC      H11B           20.1302516240       -3.9473524382      -21.1570408326  MEMB      76              0.0000000000
      8783        76  POPC      P              21.4581517285       -1.4066776548      -19.1554345688  MEMB      76              0.0000000000
      8784        76  POPC      O13            20.8018913873       -1.9008558851      -17.9370012647  MEMB      76              0.0000000000
      8785        76  POPC      O14            20.8814074109       -0.2148713637      -19.8146095436  MEMB      76              0.0000000000
      8786        76  POPC      O12            21.3985254684       -2.5752997848      -20.2351204789  MEMB      76              0.0000000000
      8787        76  POPC      O11            22.9843195488       -1.2970597247      -18.9242281455  MEMB      76              0.0000000000
      8788        76  POPC      C1             23.8681335878       -0.7290421189      -19.8865055235  MEMB      76              0.0000000000
      8789        76  POPC      HA             23.4361292726        0.1869600580      -20.3556201288  MEMB      76              0.0000000000
      8790        76  POPC      HB             24.0846498153       -1.4669884852      -20.6863021016  MEMB      76              0.0000000000
      8791        76  POPC      C2             25.1898481051       -0.3277474487      -19.1716705558  MEMB      76              0.0000000000
      8792        76  POPC      HS             26.0239894942       -0.2948636948      -19.9056137346  MEMB      76              0.0000000000
      8793        76  POPC      O21            25.5135216418       -1.2235008388      -18.0936828464  MEMB      76              0.0000000000
      8794        76  POPC      C21            25.4368601667       -2.5144314247      -18.3132899348  MEMB      76              0.0000000000
      8795        76  POPC      O22            25.4306269294       -3.0877819891      -19.3923563769  MEMB      76              0.0000000000
      8796        76  POPC      C22            25.3090492967       -3.1945707598      -16.9566847263  MEMB      76              0.0000000000
      8797        76  POPC      H2R            24.3746597123       -2.7746842200      -16.5260724394  MEMB      76              0.0000000000
      8798        76  POPC      H2S            26.1695902123       -2.8671056396      -16.3389880718  MEMB      76              0.0000000000
      8799        76  POPC      C3             25.0046066785        1.0988032931      -18.5844828458  MEMB      76              0.0000000000
      8800        76  POPC      HX             25.0237813727        1.8071677961      -19.4380077892  MEMB      76              0.0000000000
      8801        76  POPC      HY             25.8438558907        1.3809595714      -17.9099128866  MEMB      76              0.0000000000
      8802        76  POPC      O31            23.7111963704        1.2156326897      -17.9635079587  MEMB      76              0.0000000000
      8803        76  POPC      C31            23.6622280855        1.1029707071      -16.6601312314  MEMB      76              0.0000000000
      8804        76  POPC      O32            24.6088937862        1.0309961903      -15.8972771847  MEMB      76              0.0000000000
      8805        76  POPC      C32            22.1850235571        1.1726942844      -16.2427622014  MEMB      76              0.0000000000
      8806        76  POPC      H2X            21.5726140795        1.3171917497      -17.1585323451  MEMB      76              0.0000000000
      8807        76  POPC      H2Y            22.0896479595        2.0865418286      -15.6318159607  MEMB      76              0.0000000000
      8808        76  POPC      C23            25.2550396891       -4.7449399812      -16.9481150061  MEMB      76              0.0000000000
      8809        76  POPC      H3R            26.1905305417       -5.1564307453      -17.3943142917  MEMB      76              0.0000000000
      8810        76  POPC      H3S            24.3980196276       -5.1304762011      -17.5278969161  MEMB      76              0.0000000000
      8811        76  POPC      C24            25.1303057262       -5.2790655433      -15.5133297254  MEMB      76              0.0000000000
      8812        76  POPC      H4R            26.0092351893       -4.8675240339      -14.9843691846  MEMB      76              0.0000000000
      8813        76  POPC      H4S            25.2268843412       -6.3881450435      -15.4934432196  MEMB      76              0.0000000000
      8814        76  POPC      C25            23.8569785877       -4.8344021771      -14.7711265563  MEMB      76              0.0000000000
      8815        76  POPC      H5R            23.2239723555       -5.7299000846      -14.5836166862  MEMB      76              0.0000000000
      8816        76  POPC      H5S            23.2602180089       -4.1574392955      -15.4183728986  MEMB      76              0.0000000000
      8817        76  POPC      C26            24.1074888735       -4.1286429201      -13.4257254507  MEMB      76              0.0000000000
      8818        76  POPC      H6R            24.5213332389       -4.8672676728      -12.7176059774  MEMB      76              0.0000000000
      8819        76  POPC      H6S            23.1244952847       -3.8224653536      -13.0051962718  MEMB      76              0.0000000000
      8820        76  POPC      C27            25.0127663560       -2.8808110546      -13.4970755668  MEMB      76              0.0000000000
      8821        76  POPC      H7R            24.6450036482       -2.2502227079      -14.3401397994  MEMB      76              0.0000000000
      8822        76  POPC      H7S            26.0650210826       -3.1492292111      -13.7349823223  MEMB      76              0.0000000000
      8823        76  POPC      C28            24.9538909168       -1.9894267654      -12.2344652798  MEMB      76              0.0000000000
      8824        76  POPC      H8R            23.9226920444       -2.0589787417      -11.8290267057  MEMB      76              0.0000000000
      8825        76  POPC      H8S            25.0946091488       -0.9408867444      -12.5810733032  MEMB      76              0.0000000000
      8826        76  POPC      C29            25.9533424923       -2.2709461500      -11.1446253171  MEMB      76              0.0000000000
      8827        76  POPC      H91            26.8153754665       -2.8915773027      -11.4309774608  MEMB      76              0.0000000000
      8828        76  POPC      C210           25.9066514257       -1.7534665452       -9.9040554414  MEMB      76              0.0000000000
      8829        76  POPC      H101           26.6972391886       -2.0195037298       -9.1841756479  MEMB      76              0.0000000000
      8830        76  POPC      C211           24.8594558823       -0.8031068579       -9.3775094498  MEMB      76              0.0000000000
      8831        76  POPC      H11R           24.0685585026       -0.6209003681      -10.1291230459  MEMB      76              0.0000000000
      8832        76  POPC      H11S           25.3095990168        0.1926445469       -9.1766887419  MEMB      76              0.0000000000
      8833        76  POPC      C212           24.1761095929       -1.2892619348       -8.0894392342  MEMB      76              0.0000000000
      8834        76  POPC      H12R           23.6464802496       -2.2458276274       -8.2921732395  MEMB      76              0.0000000000
      8835        76  POPC      H12S           23.4124964095       -0.5303586381       -7.7990487097  MEMB      76              0.0000000000
      8836        76  POPC      C213           25.1439010022       -1.4762417076       -6.9137391250  MEMB      76              0.0000000000
      8837        76  POPC      H13R           25.7520523542       -0.5579072258       -6.8149280065  MEMB      76              0.0000000000
      8838        76  POPC      H13S           25.8391143210       -2.3116315365       -7.1287580859  MEMB      76              0.0000000000
      8839        76  POPC      C214           24.4517626814       -1.7169584597       -5.5682808100  MEMB      76              0.0000000000
      8840        76  POPC      H14R           23.7327131707       -0.8824541106       -5.4053636733  MEMB      76              0.0000000000
      8841        76  POPC      H14S           25.2071896646       -1.6766550421       -4.7512180246  MEMB      76              0.0000000000
      8842        76  POPC      C215           23.7154579217       -3.0565047160       -5.5013263130  MEMB      76              0.0000000000
      8843        76  POPC      H15R           24.3977711121       -3.8280051931       -5.0828359998  MEMB      76              0.0000000000
      8844        76  POPC      H15S           23.4635066367       -3.3830555929       -6.5335408893  MEMB      76              0.0000000000
      8845        76  POPC      C216           22.3923941796       -2.9628714684       -4.7321563406  MEMB      76              0.0000000000
      8846        76  POPC      H16R           21.7400945223       -3.8118206351       -5.0433053530  MEMB      76              0.0000000000
      8847        76  POPC      H16S           21.8723337842       -2.0225831882       -5.0148712543  MEMB      76              0.0000000000
      8848        76  POPC      C217           22.5538665182       -3.0304202516       -3.2138688920  MEMB      76              0.0000000000
      8849        76  POPC      H17R           21.5450829832       -2.9720614470       -2.7465732601  MEMB      76              0.0000000000
      8850        76  POPC      H17S           23.1378776306       -2.1537341722       -2.8498396410  MEMB      76              0.0000000000
      8851        76  POPC      C218           23.2192770507       -4.3285316773       -2.7701872238  MEMB      76              0.0000000000
      8852        76  POPC      H18R           23.1822725232       -5.0781322514       -3.5871461748  MEMB      76              0.0000000000
      8853        76  POPC      H18S           22.6918788318       -4.7568763577       -1.8922344633  MEMB      76              0.0000000000
      8854        76  POPC      H18T           24.2849273692       -4.1440729068       -2.5111969156  MEMB      76              0.0000000000
      8855        76  POPC      C33            21.6509540278       -0.0600785311      -15.4583211000  MEMB      76              0.0000000000
      8856        76  POPC      H3X            21.9225070316       -1.0114142437      -15.9608946993  MEMB      76              0.0000000000
      8857        76  POPC      H3Y            20.5383515197        0.0138288072      -15.4643730466  MEMB      76              0.0000000000
      8858        76  POPC      C34            22.1278434231       -0.0717361065      -14.0053238683  MEMB      76              0.0000000000
      8859        76  POPC      H4X            21.8697743284        0.9112566742      -13.5806760280  MEMB      76              0.0000000000
      8860        76  POPC      H4Y            23.2348561276       -0.1712858480      -13.9814122522  MEMB      76              0.0000000000
      8861        76  POPC      C35            21.5041304075       -1.1150236150      -13.0744636941  MEMB      76              0.0000000000
      8862        76  POPC      H5X            22.0575173208       -2.0629392304      -13.2214444274  MEMB      76              0.0000000000
      8863        76  POPC      H5Y            20.4426486894       -1.2878604999      -13.3460265334  MEMB      76              0.0000000000
      8864        76  POPC      C36            21.5443250790       -0.6623610842      -11.6022201649  MEMB      76              0.0000000000
      8865        76  POPC      H6X            20.7935286191        0.1483473276      -11.4733719793  MEMB      76              0.0000000000
      8866        76  POPC      H6Y            22.5321920500       -0.2095583530      -11.3803605758  MEMB      76              0.0000000000
      8867        76  POPC      C37            21.2453437800       -1.7926091296      -10.6011418416  MEMB      76              0.0000000000
      8868        76  POPC      H7X            22.1550818314       -2.4081246985      -10.4313389045  MEMB      76              0.0000000000
      8869        76  POPC      H7Y            20.4882262802       -2.4571601366      -11.0712925013  MEMB      76              0.0000000000
      8870        76  POPC      C38            20.6955999759       -1.2926326011       -9.2506332397  MEMB      76              0.0000000000
      8871        76  POPC      H8X            20.6292099597       -0.1907284986       -9.2949104655  MEMB      76              0.0000000000
      8872        76  POPC      H8Y            21.4054675174       -1.5236334741       -8.4277758181  MEMB      76              0.0000000000
      8873        76  POPC      C39            19.3263898666       -1.9061361781       -8.9029694976  MEMB      76              0.0000000000
      8874        76  POPC      H9X            19.5018001013       -2.8285974053       -8.3059476971  MEMB      76              0.0000000000
      8875        76  POPC      H9Y            18.8267694340       -2.2033211198       -9.8501312468  MEMB      76              0.0000000000
      8876        76  POPC      C310           18.3111469207       -1.0103043406       -8.1674093837  MEMB      76              0.0000000000
      8877        76  POPC      H10X           17.5461258959       -1.6642032528       -7.7056908817  MEMB      76              0.0000000000
      8878        76  POPC      H10Y           17.7464823162       -0.3925712228       -8.8917569610  MEMB      76              0.0000000000
      8879        76  POPC      C311           18.8787602394       -0.1553847327       -7.0394237339  MEMB      76              0.0000000000
      8880        76  POPC      H11X           18.0846203928        0.5511872456       -6.7024557755  MEMB      76              0.0000000000
      8881        76  POPC      H11Y           19.7520779328        0.4493148200       -7.3608314847  MEMB      76              0.0000000000
      8882        76  POPC      C312           19.2441264014       -1.0675872510       -5.8832825043  MEMB      76              0.0000000000
      8883        76  POPC      H12X           20.0781472597       -1.7420795730       -6.1720443255  MEMB      76              0.0000000000
      8884        76  POPC      H12Y           18.3578059794       -1.7188638519       -5.6858493199  MEMB      76              0.0000000000
      8885        76  POPC      C313           19.5717244252       -0.3247084883       -4.5957523345  MEMB      76              0.0000000000
      8886        76  POPC      H13X           18.9526459049        0.5974155673       -4.5065934061  MEMB      76              0.0000000000
      8887        76  POPC      H13Y           20.6497999168       -0.0584756095       -4.5666222174  MEMB      76              0.0000000000
      8888        76  POPC      C314           19.2431754217       -1.2479118353       -3.4517055103  MEMB      76              0.0000000000
      8889        76  POPC      H14X           19.6852469651       -2.2360050392       -3.6939593308  MEMB      76              0.0000000000
      8890        76  POPC      H14Y           18.1446536149       -1.3197630548       -3.3846390380  MEMB      76              0.0000000000
      8891        76  POPC      C315           19.7089321956       -0.8398835396       -2.0825675294  MEMB      76              0.0000000000
      8892        76  POPC      H15X           19.2969274199        0.1626418064       -1.8309735855  MEMB      76              0.0000000000
      8893        76  POPC      H15Y           20.8143154674       -0.7936422500       -2.0884411156  MEMB      76              0.0000000000
      8894        76  POPC      C316           19.2156178994       -1.8801176660       -1.0896058361  MEMB      76              0.0000000000
      8895        76  POPC      H16X           19.8088953877       -2.8168572325       -1.1435376728  MEMB      76              0.0000000000
      8896        76  POPC      H16Y           18.1545687854       -2.1208389219       -1.2980089179  MEMB      76              0.0000000000
      8897        76  POPC      H16Z           19.2519877581       -1.4797157983       -0.0666416535  MEMB      76              0.0000000000
      8898        77  OSM       N              10.7167351023       21.2712755577      -21.2398782829  MEMB      77              0.0000000000
      8899        77  OSM       C15            10.8543199959       21.2126146440      -19.7617095889  MEMB      77              0.0000000000
      8900        77  OSM       H15A           10.7148197527       22.2063929238      -19.3236871256  MEMB      77              0.0000000000
      8901        77  OSM       H15B           11.8103049307       20.8494854133      -19.4483834817  MEMB      77              0.0000000000
      8902        77  OSM       H15C           10.0535115737       20.6080725805      -19.3224593228  MEMB      77              0.0000000000
      8903        77  OSM       C14             9.5249207712       22.1408411988      -21.4324307255  MEMB      77              0.0000000000
      8904        77  OSM       H14A            8.6170390836       21.6222798227      -21.1064439395  MEMB      77              0.0000000000
      8905        77  OSM       H14B            9.3441287749       22.4379612157      -22.4548819660  MEMB      77              0.0000000000
      8906        77  OSM       H14C            9.6007002234       23.0647799072      -20.8668332495  MEMB      77              0.0000000000
      8907        77  OSM       C13            11.9050708268       21.9443529030      -21.8500819262  MEMB      77              0.0000000000
      8908        77  OSM       H13A           12.8128789492       21.3647986636      -21.7958189059  MEMB      77              0.0000000000
      8909        77  OSM       H13B           12.0728498783       22.9031464717      -21.3833445158  MEMB      77              0.0000000000
      8910        77  OSM       H13C           11.7192104087       22.1817146086      -22.9029843347  MEMB      77              0.0000000000
      8911        77  OSM       C12            10.4845824746       19.9075228005      -21.8686631147  MEMB      77              0.0000000000
      8912        77  OSM       H12A           11.4058050123       19.3512436062      -21.8038959531  MEMB      77              0.0000000000
      8913        77  OSM       H12B           10.2211690165       20.0208922307      -22.9168921423  MEMB      77              0.0000000000
      8914        77  OSM       C11             9.3828761606       18.9988722083      -21.2802532850  MEMB      77              0.0000000000
      8915        77  OSM       H11A            9.6301416407       18.7888654460      -20.2138310682  MEMB      77              0.0000000000
      8916        77  OSM       H11B            9.4339090245       18.0130776097      -21.8108922107  MEMB      77              0.0000000000
      8917        77  OSM       P               6.8810995322       18.6245583784      -20.9473492231  MEMB      77              0.0000000000
      8918        77  OSM       O13             5.5868171383       19.3259848940      -21.0181489366  MEMB      77              0.0000000000
      8919        77  OSM       O14             6.9894763581       17.4224079055      -21.8054744680  MEMB      77              0.0000000000
      8920        77  OSM       O11             7.3572036336       18.3742408002      -19.4449990783  MEMB      77              0.0000000000
      8921        77  OSM       O12             8.0769986891       19.5887303496      -21.4188036245  MEMB      77              0.0000000000
      8922        77  OSM       C1S             7.6175110836       19.4565803238      -18.5467003190  MEMB      77              0.0000000000
      8923        77  OSM       H1S             6.6444423190       19.9581663544      -18.3438527338  MEMB      77              0.0000000000
      8924        77  OSM       H1T             8.2922611654       20.2197417895      -18.9854438395  MEMB      77              0.0000000000
      8925        77  OSM       NF              9.6379576157       19.1848275964      -16.9484892641  MEMB      77              0.0000000000
      8926        77  OSM       HNF            10.1666104530       18.3467863779      -17.0003709686  MEMB      77              0.0000000000
      8927        77  OSM       C2S             8.1798252391       19.0139568295      -17.1387106300  MEMB      77              0.0000000000
      8928        77  OSM       H2S             7.6765604619       19.6703664785      -16.3967963063  MEMB      77              0.0000000000
      8929        77  OSM       C3S             7.8149866643       17.5378460886      -16.8202095588  MEMB      77              0.0000000000
      8930        77  OSM       H3S             8.4397076297       16.8492151061      -17.4349075298  MEMB      77              0.0000000000
      8931        77  OSM       O3              6.4572706574       17.1753426828      -16.9869213206  MEMB      77              0.0000000000
      8932        77  OSM       HO3             6.4104492554       16.8415350922      -17.8988420967  MEMB      77              0.0000000000
      8933        77  OSM       C4S             8.1176909754       17.3075512136      -15.3642322365  MEMB      77              0.0000000000
      8934        77  OSM       H4S             7.8543254436       18.1783893782      -14.7523617908  MEMB      77              0.0000000000
      8935        77  OSM       C5S             8.6214989898       16.2149468889      -14.7583283241  MEMB      77              0.0000000000
      8936        77  OSM       H5S             8.8170781477       15.3116187351      -15.3646824603  MEMB      77              0.0000000000
      8937        77  OSM       C6S             8.8690532256       16.0985058562      -13.2697437690  MEMB      77              0.0000000000
      8938        77  OSM       H6S             9.9407736154       15.8720249567      -13.0816556382  MEMB      77              0.0000000000
      8939        77  OSM       H6T             8.3216979921       15.2000165696      -12.9118821061  MEMB      77              0.0000000000
      8940        77  OSM       C7S             8.4363592074       17.2850088207      -12.3546518149  MEMB      77              0.0000000000
      8941        77  OSM       H7S             7.4366766196       17.6653450452      -12.6454584433  MEMB      77              0.0000000000
      8942        77  OSM       H7T             9.1380998687       18.1360303080      -12.4791268996  MEMB      77              0.0000000000
      8943        77  OSM       C8S             8.3496460274       16.8899137482      -10.8649654930  MEMB      77              0.0000000000
      8944        77  OSM       H8S             9.3248041158       16.4712671323      -10.5919684300  MEMB      77              0.0000000000
      8945        77  OSM       H8T             7.6423404634       16.0466124218      -10.7563751810  MEMB      77              0.0000000000
      8946        77  OSM       C9S             7.9892659033       18.0479802190       -9.8977814894  MEMB      77              0.0000000000
      8947        77  OSM       H9S             6.9392314234       18.3604334053      -10.0814894653  MEMB      77              0.0000000000
      8948        77  OSM       H9T             8.6370599855       18.9154602012      -10.1531767673  MEMB      77              0.0000000000
      8949        77  OSM       C10S            8.1757734428       17.7240753288       -8.3904556842  MEMB      77              0.0000000000
      8950        77  OSM       H10S            9.2150467557       17.3766980294       -8.2317002981  MEMB      77              0.0000000000
      8951        77  OSM       H10T            7.5027862458       16.8875098985       -8.1021968197  MEMB      77              0.0000000000
      8952        77  OSM       C11S            7.9457735164       18.9131127945       -7.4256588279  MEMB      77              0.0000000000
      8953        77  OSM       H11S            6.8513064108       19.1163564221       -7.4146100851  MEMB      77              0.0000000000
      8954        77  OSM       H11T            8.4484927689       19.8248844981       -7.8129066847  MEMB      77              0.0000000000
      8955        77  OSM       C12S            8.4007753328       18.6609712996       -5.9602564537  MEMB      77              0.0000000000
      8956        77  OSM       H12S            8.3042916755       17.5861622998       -5.7433416214  MEMB      77              0.0000000000
      8957        77  OSM       H12T            7.6977287449       19.1951896290       -5.2832642559  MEMB      77              0.0000000000
      8958        77  OSM       C13S            9.8209810746       19.1632986326       -5.6159285905  MEMB      77              0.0000000000
      8959        77  OSM       H13S            9.7404081424       20.2286746488       -5.3680888607  MEMB      77              0.0000000000
      8960        77  OSM       H13T           10.4192865768       19.0980153305       -6.5561276644  MEMB      77              0.0000000000
      8961        77  OSM       C14S           10.6312898460       18.4470801240       -4.5032769771  MEMB      77              0.0000000000
      8962        77  OSM       H14S           11.6933709693       18.6838086490       -4.6983146193  MEMB      77              0.0000000000
      8963        77  OSM       H14T           10.5614109474       17.3562216603       -4.6121203083  MEMB      77              0.0000000000
      8964        77  OSM       C15S           10.4395523469       18.7843804596       -3.0088591512  MEMB      77              0.0000000000
      8965        77  OSM       H15S            9.3620934142       18.8162590863       -2.7497827203  MEMB      77              0.0000000000
      8966        77  OSM       H15T           10.8735099083       19.7859649042       -2.7969687002  MEMB      77              0.0000000000
      8967        77  OSM       C16S           11.1554133988       17.7117684302       -2.1469603291  MEMB      77              0.0000000000
      8968        77  OSM       H16S           11.8385936621       17.1436540384       -2.8193639561  MEMB      77              0.0000000000
      8969        77  OSM       H16T           10.4323078111       16.9707071057       -1.7552844376  MEMB      77              0.0000000000
      8970        77  OSM       C17S           11.9908873462       18.2060547683       -0.9578027869  MEMB      77              0.0000000000
      8971        77  OSM       H17S           12.5062903581       19.1544000559       -1.2231512859  MEMB      77              0.0000000000
      8972        77  OSM       H17T           12.7787405616       17.4401203932       -0.7537169868  MEMB      77              0.0000000000
      8973        77  OSM       C18S           11.1772860099       18.3748390548        0.3172262060  MEMB      77              0.0000000000
      8974        77  OSM       H18S           11.8300513639       18.6290584990        1.1794607882  MEMB      77              0.0000000000
      8975        77  OSM       H18T           10.6258233828       17.4390827790        0.5609428577  MEMB      77              0.0000000000
      8976        77  OSM       H18U           10.4452479438       19.1945579328        0.1668221026  MEMB      77              0.0000000000
      8977        77  OSM       C1F            10.2176963560       20.3807935542      -16.8185890927  MEMB      77              0.0000000000
      8978        77  OSM       OF              9.6032413348       21.3963237881      -17.0828874855  MEMB      77              0.0000000000
      8979        77  OSM       C2F            11.6772446813       20.4449048624      -16.4633967820  MEMB      77              0.0000000000
      8980        77  OSM       H2F            12.1515261446       21.1626103275      -17.1706416131  MEMB      77              0.0000000000
      8981        77  OSM       H2G            12.1432046069       19.4505699938      -16.6061340143  MEMB      77              0.0000000000
      8982        77  OSM       C3F            11.9670770564       20.9676631439      -15.0323972429  MEMB      77              0.0000000000
      8983        77  OSM       H3F            11.7099183577       20.1766612791      -14.2961628159  MEMB      77              0.0000000000
      8984        77  OSM       H3G            11.3258951075       21.8518001834      -14.8060623857  MEMB      77              0.0000000000
      8985        77  OSM       C4F            13.4426976865       21.3955551787      -14.8664319302  MEMB      77              0.0000000000
      8986        77  OSM       H4F            13.5448941223       22.4298174965      -15.2758567511  MEMB      77              0.0000000000
      8987        77  OSM       H4G            14.0896872999       20.7302175388      -15.4807606876  MEMB      77              0.0000000000
      8988        77  OSM       C5F            14.0024366780       21.3748778648      -13.4283031810  MEMB      77              0.0000000000
      8989        77  OSM       H5F            14.9855059383       21.8985771271      -13.4245252228  MEMB      77              0.0000000000
      8990        77  OSM       H5G            14.1986211107       20.3241279781      -13.1185929988  MEMB      77              0.0000000000
      8991        77  OSM       C6F            13.0887551946       22.0261485213      -12.3824902858  MEMB      77              0.0000000000
      8992        77  OSM       H6F            12.1201206112       21.4769404294      -12.3765400792  MEMB      77              0.0000000000
      8993        77  OSM       H6G            12.8728911926       23.0789500372      -12.6694574971  MEMB      77              0.0000000000
      8994        77  OSM       C7F            13.6646130616       21.9877704165      -10.9550259134  MEMB      77              0.0000000000
      8995        77  OSM       H7F            14.4920463635       22.7247184087      -10.8576671340  MEMB      77              0.0000000000
      8996        77  OSM       H7G            14.0895271309       20.9741910613      -10.7717227861  MEMB      77              0.0000000000
      8997        77  OSM       C8F            12.5656927464       22.2795399777       -9.9155331755  MEMB      77              0.0000000000
      8998        77  OSM       H8F            11.6784272192       21.6723069411      -10.2086960223  MEMB      77              0.0000000000
      8999        77  OSM       H8G            12.2686535625       23.3482922789      -10.0071456138  MEMB      77              0.0000000000
      9000        77  OSM       C9F            12.9326420162       21.9591418323       -8.4899372124  MEMB      77              0.0000000000
      9001        77  OSM       H9F            13.9958583125       21.7538814246       -8.2909037219  MEMB      77              0.0000000000
      9002        77  OSM       C10F           12.0495411993       21.9208332509       -7.4754372410  MEMB      77              0.0000000000
      9003        77  OSM       H10F           12.4011750944       21.6536809573       -6.4664172742  MEMB      77              0.0000000000
      9004        77  OSM       C11F           10.5669515025       22.1889220713       -7.5869900677  MEMB      77              0.0000000000
      9005        77  OSM       H11F            9.9944210803       21.3973731123       -7.0680494154  MEMB      77              0.0000000000
      9006        77  OSM       H11G           10.2215819358       22.1580487539       -8.6453348309  MEMB      77              0.0000000000
      9007        77  OSM       C12F           10.1434272939       23.5543158387       -7.0076686186  MEMB      77              0.0000000000
      9008        77  OSM       H12F            9.0395140812       23.6504769983       -7.1132946218  MEMB      77              0.0000000000
      9009        77  OSM       H12G           10.5972197204       24.3548132074       -7.6329004619  MEMB      77              0.0000000000
      9010        77  OSM       C13F           10.5254820856       23.8200270685       -5.5366386798  MEMB      77              0.0000000000
      9011        77  OSM       H13F           10.0496163574       24.7756692933       -5.2282136499  MEMB      77              0.0000000000
      9012        77  OSM       H13G           11.6284168389       23.9538957959       -5.4709437889  MEMB      77              0.0000000000
      9013        77  OSM       C14F           10.0954493216       22.7512042211       -4.5171049937  MEMB      77              0.0000000000
      9014        77  OSM       H14F           10.4723492819       23.0658235834       -3.5203088529  MEMB      77              0.0000000000
      9015        77  OSM       H14G           10.6281353719       21.8127641472       -4.7499113070  MEMB      77              0.0000000000
      9016        77  OSM       C15F            8.5628751529       22.5855477345       -4.4430802201  MEMB      77              0.0000000000
      9017        77  OSM       H15F            8.1555063940       22.3042432721       -5.4386327156  MEMB      77              0.0000000000
      9018        77  OSM       H15G            8.1659606550       23.5916851225       -4.1840184263  MEMB      77              0.0000000000
      9019        77  OSM       C16F            8.0148110909       21.6138980242       -3.3797456106  MEMB      77              0.0000000000
      9020        77  OSM       H16F            8.2322634195       20.5603021737       -3.6462234578  MEMB      77              0.0000000000
      9021        77  OSM       H16G            6.9089143402       21.7232185324       -3.3503964833  MEMB      77              0.0000000000
      9022        77  OSM       C17F            8.5584915206       21.9041375631       -1.9829932582  MEMB      77              0.0000000000
      9023        77  OSM       H17F            8.3773032364       22.9782093502       -1.7627515765  MEMB      77              0.0000000000
      9024        77  OSM       H17G            9.6577632373       21.7230303189       -1.9863706634  MEMB      77              0.0000000000
      9025        77  OSM       C18F            7.9377789645       21.0969909720       -0.8507758991  MEMB      77              0.0000000000
      9026        77  OSM       H18F            8.1811115879       20.0209202425       -0.9720603930  MEMB      77              0.0000000000
      9027        77  OSM       H18G            8.3464222505       21.4407763175        0.1239931243  MEMB      77              0.0000000000
      9028        77  OSM       H18H            6.8348710380       21.2243898768       -0.8296643528  MEMB      77              0.0000000000
      9029        78  SAPE      N             -20.2719049158       -1.5429000581      -22.2920184348  MEMB      78              0.0000000000
      9030        78  SAPE      HN1           -20.4785308022       -1.4559915339      -23.3061058835  MEMB      78              0.0000000000
      9031        78  SAPE      HN2           -19.2869076939       -1.8159494771      -22.1116074720  MEMB      78              0.0000000000
      9032        78  SAPE      HN3           -20.8899350438       -2.2485348813      -21.8205696353  MEMB      78              0.0000000000
      9033        78  SAPE      C12           -20.6654706022       -0.3234632498      -21.5151877931  MEMB      78              0.0000000000
      9034        78  SAPE      H12A          -21.6052152832        0.0664251072      -21.9628829223  MEMB      78              0.0000000000
      9035        78  SAPE      H12B          -19.8704632566        0.4372496229      -21.5928956951  MEMB      78              0.0000000000
      9036        78  SAPE      C11           -20.9109375468       -0.7876191522      -20.0746847633  MEMB      78              0.0000000000
      9037        78  SAPE      H11A          -21.4643428894       -0.0226185150      -19.4841444853  MEMB      78              0.0000000000
      9038        78  SAPE      H11B          -19.9223346879       -0.9213434914      -19.5784481345  MEMB      78              0.0000000000
      9039        78  SAPE      P             -23.1575797734       -2.1296192335      -20.0295015245  MEMB      78              0.0000000000
      9040        78  SAPE      O13           -23.6663901049       -0.8860759023      -20.6738282433  MEMB      78              0.0000000000
      9041        78  SAPE      O14           -23.5568406958       -3.3969023120      -20.6794489945  MEMB      78              0.0000000000
      9042        78  SAPE      O12           -21.5893893034       -2.0481186987      -20.0964184118  MEMB      78              0.0000000000
      9043        78  SAPE      O11           -23.3153706941       -2.1657296291      -18.4538962297  MEMB      78              0.0000000000
      9044        78  SAPE      C1            -23.0114008366       -3.3414188590      -17.6825860966  MEMB      78              0.0000000000
      9045        78  SAPE      HA            -23.8694781317       -4.0435046114      -17.7454849501  MEMB      78              0.0000000000
      9046        78  SAPE      HB            -22.1142131111       -3.8924133016      -18.0533267048  MEMB      78              0.0000000000
      9047        78  SAPE      C2            -22.7851249980       -2.9948360511      -16.1760083472  MEMB      78              0.0000000000
      9048        78  SAPE      HS            -21.6872628444       -2.9615759712      -16.0017848810  MEMB      78              0.0000000000
      9049        78  SAPE      O21           -23.4636722922       -3.9650263085      -15.3238165848  MEMB      78              0.0000000000
      9050        78  SAPE      C21           -22.6755819073       -4.8710030899      -14.7073454083  MEMB      78              0.0000000000
      9051        78  SAPE      O22           -21.4697888348       -4.9353303614      -14.8351648835  MEMB      78              0.0000000000
      9052        78  SAPE      C22           -23.4613028775       -5.7540476222      -13.7335981621  MEMB      78              0.0000000000
      9053        78  SAPE      H2R           -24.5402681514       -5.6120863119      -13.8584346046  MEMB      78              0.0000000000
      9054        78  SAPE      H2S           -23.2397032421       -6.8026501570      -14.0236449755  MEMB      78              0.0000000000
      9055        78  SAPE      C3            -23.2962719571       -1.5326982415      -15.8926832192  MEMB      78              0.0000000000
      9056        78  SAPE      HX            -24.2483996944       -1.3643290560      -16.4380117540  MEMB      78              0.0000000000
      9057        78  SAPE      HY            -22.5487360614       -0.8362786245      -16.3341693931  MEMB      78              0.0000000000
      9058        78  SAPE      O31           -23.5433098815       -1.2806234019      -14.5011143483  MEMB      78              0.0000000000
      9059        78  SAPE      C31           -23.0607099864       -0.1812392408      -13.9371385983  MEMB      78              0.0000000000
      9060        78  SAPE      O32           -22.3520441762        0.6649312983      -14.4545949839  MEMB      78              0.0000000000
      9061        78  SAPE      C32           -23.5599393551       -0.2000301057      -12.4814035224  MEMB      78              0.0000000000
      9062        78  SAPE      H2X           -23.4236161656       -1.2454851852      -12.1276650543  MEMB      78              0.0000000000
      9063        78  SAPE      H2Y           -24.6480260534        0.0145703451      -12.5379075246  MEMB      78              0.0000000000
      9064        78  SAPE      C23           -23.0823142791       -5.5243185692      -12.2453391900  MEMB      78              0.0000000000
      9065        78  SAPE      H3R           -23.1231428745       -4.4352183969      -12.0083269323  MEMB      78              0.0000000000
      9066        78  SAPE      H3S           -22.0285224545       -5.8490902984      -12.0914604428  MEMB      78              0.0000000000
      9067        78  SAPE      C24           -24.0130389270       -6.3055542355      -11.2858261560  MEMB      78              0.0000000000
      9068        78  SAPE      H4R           -23.5032247228       -6.4514534591      -10.3180462088  MEMB      78              0.0000000000
      9069        78  SAPE      H4S           -24.1741246271       -7.3182940507      -11.7209378060  MEMB      78              0.0000000000
      9070        78  SAPE      C25           -25.3137385230       -5.5548247966      -11.1363881641  MEMB      78              0.0000000000
      9071        78  SAPE      H5R           -25.5462458285       -4.9887365955      -12.0471642834  MEMB      78              0.0000000000
      9072        78  SAPE      C26           -26.1671993401       -5.4198306469      -10.0984145298  MEMB      78              0.0000000000
      9073        78  SAPE      H6R           -27.0577518512       -4.7826864526      -10.2481633533  MEMB      78              0.0000000000
      9074        78  SAPE      C27           -26.0841836622       -6.0083233545       -8.7140855507  MEMB      78              0.0000000000
      9075        78  SAPE      H7R           -25.3532052856       -6.8460101949       -8.7047043995  MEMB      78              0.0000000000
      9076        78  SAPE      H7S           -27.0747660034       -6.4311830527       -8.4702631916  MEMB      78              0.0000000000
      9077        78  SAPE      C28           -25.8244112653       -5.0737810125       -7.5696548039  MEMB      78              0.0000000000
      9078        78  SAPE      H8R           -26.7238372400       -4.7083636650       -7.0559547640  MEMB      78              0.0000000000
      9079        78  SAPE      C29           -24.6330259001       -4.6592417196       -7.1261185410  MEMB      78              0.0000000000
      9080        78  SAPE      H9R           -24.6056893781       -3.9331983789       -6.2968777025  MEMB      78              0.0000000000
      9081        78  SAPE      C210          -23.2932470462       -5.0391528290       -7.6894550065  MEMB      78              0.0000000000
      9082        78  SAPE      H10R          -23.3642337886       -5.8303740660       -8.4573248564  MEMB      78              0.0000000000
      9083        78  SAPE      H10S          -22.6307831145       -5.4476940397       -6.8967776720  MEMB      78              0.0000000000
      9084        78  SAPE      C211          -22.7780288198       -3.7590540922       -8.2829735502  MEMB      78              0.0000000000
      9085        78  SAPE      H11R          -23.1784612698       -3.5035334293       -9.2758057704  MEMB      78              0.0000000000
      9086        78  SAPE      C212          -21.9599173020       -2.8902093820       -7.6729929430  MEMB      78              0.0000000000
      9087        78  SAPE      H12R          -21.7391132741       -1.9528580706       -8.2055652453  MEMB      78              0.0000000000
      9088        78  SAPE      C213          -21.3863067379       -3.0206610791       -6.2795965645  MEMB      78              0.0000000000
      9089        78  SAPE      H13R          -20.2956406211       -2.8156584614       -6.2828798155  MEMB      78              0.0000000000
      9090        78  SAPE      H13S          -21.4486169503       -4.0639286128       -5.8992708974  MEMB      78              0.0000000000
      9091        78  SAPE      C214          -22.0610343955       -2.0493491078       -5.3520543342  MEMB      78              0.0000000000
      9092        78  SAPE      H14R          -21.8711062441       -0.9852542475       -5.5581200714  MEMB      78              0.0000000000
      9093        78  SAPE      C215          -22.8404777677       -2.3790729365       -4.3129290557  MEMB      78              0.0000000000
      9094        78  SAPE      H15R          -23.2483925501       -1.5810546443       -3.6737837256  MEMB      78              0.0000000000
      9095        78  SAPE      C216          -23.1856247831       -3.7747274515       -3.8793927602  MEMB      78              0.0000000000
      9096        78  SAPE      H16R          -23.2873412801       -4.4717338782       -4.7411548370  MEMB      78              0.0000000000
      9097        78  SAPE      H16S          -24.1728372400       -3.7678627770       -3.3676765444  MEMB      78              0.0000000000
      9098        78  SAPE      C217          -22.1341780791       -4.3980171816       -2.9512351631  MEMB      78              0.0000000000
      9099        78  SAPE      H17R          -21.3628046839       -4.9376757072       -3.5502113315  MEMB      78              0.0000000000
      9100        78  SAPE      H17S          -22.6947145840       -5.1347680651       -2.3424456425  MEMB      78              0.0000000000
      9101        78  SAPE      C218          -21.4128816816       -3.4604910351       -1.9815791274  MEMB      78              0.0000000000
      9102        78  SAPE      H18R          -20.8403407655       -2.6758883582       -2.5229252092  MEMB      78              0.0000000000
      9103        78  SAPE      H18S          -20.6610097473       -4.0553873214       -1.4183265272  MEMB      78              0.0000000000
      9104        78  SAPE      C219          -22.3645100327       -2.8237737840       -0.9767948083  MEMB      78              0.0000000000
      9105        78  SAPE      H19R          -23.0531144285       -3.5986282029       -0.5674787795  MEMB      78              0.0000000000
      9106        78  SAPE      H19S          -22.9861981288       -2.0586678963       -1.4921621881  MEMB      78              0.0000000000
      9107        78  SAPE      C220          -21.6134328290       -2.1735370482        0.1717481165  MEMB      78              0.0000000000
      9108        78  SAPE      H20R          -20.5835774548       -1.8853766371       -0.1326195356  MEMB      78              0.0000000000
      9109        78  SAPE      H20S          -21.5393144743       -2.8607561106        1.0433068324  MEMB      78              0.0000000000
      9110        78  SAPE      H20T          -22.1606121413       -1.2596765903        0.4801974426  MEMB      78              0.0000000000
      9111        78  SAPE      C33           -22.9096181979        0.7541081800      -11.4328255731  MEMB      78              0.0000000000
      9112        78  SAPE      H3X           -23.1325860711        1.8074825445      -11.7015587598  MEMB      78              0.0000000000
      9113        78  SAPE      H3Y           -21.8116610348        0.6268521915      -11.4267898714  MEMB      78              0.0000000000
      9114        78  SAPE      C34           -23.4701547283        0.4094653364      -10.0362947490  MEMB      78              0.0000000000
      9115        78  SAPE      H4X           -23.2465798045       -0.6629470813       -9.8299972586  MEMB      78              0.0000000000
      9116        78  SAPE      H4Y           -24.5751005782        0.5153113508      -10.1232352735  MEMB      78              0.0000000000
      9117        78  SAPE      C35           -23.0720868125        1.2152922614       -8.7806089510  MEMB      78              0.0000000000
      9118        78  SAPE      H5X           -23.2755065593        2.2977119049       -8.9193997134  MEMB      78              0.0000000000
      9119        78  SAPE      H5Y           -21.9941637752        1.0946603637       -8.5426467788  MEMB      78              0.0000000000
      9120        78  SAPE      C36           -23.9237889648        0.6920859074       -7.6034422697  MEMB      78              0.0000000000
      9121        78  SAPE      H6X           -23.6300770508       -0.3627336923       -7.4095446888  MEMB      78              0.0000000000
      9122        78  SAPE      H6Y           -24.9856114150        0.6988055357       -7.9270607790  MEMB      78              0.0000000000
      9123        78  SAPE      C37           -23.8716249640        1.4640665017       -6.2842783065  MEMB      78              0.0000000000
      9124        78  SAPE      H7X           -24.4325792359        2.4135014449       -6.3879813030  MEMB      78              0.0000000000
      9125        78  SAPE      H7Y           -22.8140024740        1.7263210165       -6.0613354880  MEMB      78              0.0000000000
      9126        78  SAPE      C38           -24.4377409920        0.6643064307       -5.0875516940  MEMB      78              0.0000000000
      9127        78  SAPE      H8X           -23.6468040777        0.7073786380       -4.3078180091  MEMB      78              0.0000000000
      9128        78  SAPE      H8Y           -24.5487132050       -0.4074539748       -5.3535462325  MEMB      78              0.0000000000
      9129        78  SAPE      C39           -25.7798210803        1.1727410538       -4.5104832240  MEMB      78              0.0000000000
      9130        78  SAPE      H9X           -26.6204064319        0.8545153052       -5.1599326885  MEMB      78              0.0000000000
      9131        78  SAPE      H9Y           -25.7987019124        2.2806908155       -4.5316362434  MEMB      78              0.0000000000
      9132        78  SAPE      C310          -26.0403057933        0.7505728980       -3.0461864914  MEMB      78              0.0000000000
      9133        78  SAPE      H10X          -26.2407141779       -0.3417150456       -2.9799439231  MEMB      78              0.0000000000
      9134        78  SAPE      H10Y          -26.9554850158        1.2755282922       -2.6939879816  MEMB      78              0.0000000000
      9135        78  SAPE      C311          -24.8569149354        1.0943163425       -2.1252315791  MEMB      78              0.0000000000
      9136        78  SAPE      H11X          -24.2148252471        1.8238388131       -2.6643570178  MEMB      78              0.0000000000
      9137        78  SAPE      H11Y          -24.2335332143        0.1900363827       -1.9718042364  MEMB      78              0.0000000000
      9138        78  SAPE      C312          -25.1985346771        1.7941089230       -0.8024899065  MEMB      78              0.0000000000
      9139        78  SAPE      H12X          -25.8987169731        2.6335003328       -1.0066246889  MEMB      78              0.0000000000
      9140        78  SAPE      H12Y          -24.2582728299        2.2356027456       -0.4044000333  MEMB      78              0.0000000000
      9141        78  SAPE      C313          -25.7855195691        0.8932104717        0.2820333243  MEMB      78              0.0000000000
      9142        78  SAPE      H13X          -26.7197952590        0.4419644024       -0.1117043119  MEMB      78              0.0000000000
      9143        78  SAPE      H13Y          -26.0535534736        1.5113587724        1.1696030569  MEMB      78              0.0000000000
      9144        78  SAPE      C314          -24.8662217900       -0.2460904091        0.7376491921  MEMB      78              0.0000000000
      9145        78  SAPE      H14X          -24.0881505601        0.1299753394        1.4379171572  MEMB      78              0.0000000000
      9146        78  SAPE      H14Y          -24.3407785800       -0.6881906632       -0.1340774490  MEMB      78              0.0000000000
      9147        78  SAPE      C315          -25.6912057671       -1.3602072257        1.3809673914  MEMB      78              0.0000000000
      9148        78  SAPE      H15X          -25.0984155518       -2.2968389929        1.4179729686  MEMB      78              0.0000000000
      9149        78  SAPE      H15Y          -26.5437341380       -1.5827995525        0.7008564009  MEMB      78              0.0000000000
      9150        78  SAPE      C316          -26.2547791287       -0.9666731295        2.7567463760  MEMB      78              0.0000000000
      9151        78  SAPE      H16X          -27.0727184596       -1.6611605922        3.0293988832  MEMB      78              0.0000000000
      9152        78  SAPE      H16Y          -26.6816622135        0.0585740079        2.7219090388  MEMB      78              0.0000000000
      9153        78  SAPE      C317          -25.2496112713       -1.0706456817        3.8986288089  MEMB      78              0.0000000000
      9154        78  SAPE      H17X          -25.7794529684       -0.8941490685        4.8622504448  MEMB      78              0.0000000000
      9155        78  SAPE      H17Y          -24.5138011919       -0.2551359375        3.7708905293  MEMB      78              0.0000000000
      9156        78  SAPE      C318          -24.5552277683       -2.4295920090        3.9350171970  MEMB      78              0.0000000000
      9157        78  SAPE      H18X          -23.9696755080       -2.5668807543        4.8645308642  MEMB      78              0.0000000000
      9158        78  SAPE      H18Y          -23.8589626903       -2.5529604667        3.0787795743  MEMB      78              0.0000000000
      9159        78  SAPE      H18Z          -25.3183472547       -3.2243581659        3.8760594734  MEMB      78              0.0000000000
      9160        79  CHL1      C3             15.2951859165      -17.1724249351      -17.6671353789  MEMB      79              0.0000000000
      9161        79  CHL1      H3             16.2296410163      -16.6288770126      -17.3980536614  MEMB      79              0.0000000000
      9162        79  CHL1      O3             15.1880609418      -17.2199680878      -19.0711089489  MEMB      79              0.0000000000
      9163        79  CHL1      H3'            15.3906034739      -16.3024178922      -19.3443510103  MEMB      79              0.0000000000
      9164        79  CHL1      C4             15.3629854882      -18.5993564300      -17.1099918381  MEMB      79              0.0000000000
      9165        79  CHL1      H4A            14.5252100448      -19.1856978902      -17.5414452504  MEMB      79              0.0000000000
      9166        79  CHL1      H4B            16.3006742501      -19.0650979941      -17.4920073585  MEMB      79              0.0000000000
      9167        79  CHL1      C5             15.2989281135      -18.6219520464      -15.6004120384  MEMB      79              0.0000000000
      9168        79  CHL1      C6             16.2258477000      -19.2468283180      -14.8593288481  MEMB      79              0.0000000000
      9169        79  CHL1      H6             17.0387856231      -19.7942684413      -15.3629668491  MEMB      79              0.0000000000
      9170        79  CHL1      C7             16.1451758067      -19.4013595971      -13.3675609383  MEMB      79              0.0000000000
      9171        79  CHL1      H7A            16.3387141547      -20.4603980967      -13.0801273885  MEMB      79              0.0000000000
      9172        79  CHL1      H7B            16.9298537250      -18.7773547855      -12.8866436561  MEMB      79              0.0000000000
      9173        79  CHL1      C8             14.7583128459      -18.9917830587      -12.8012388030  MEMB      79              0.0000000000
      9174        79  CHL1      H8             14.0379881209      -19.8199557289      -12.9760654033  MEMB      79              0.0000000000
      9175        79  CHL1      C14            14.8753551735      -18.7286285162      -11.3140487080  MEMB      79              0.0000000000
      9176        79  CHL1      H14            15.6149492663      -17.8888017450      -11.2308954562  MEMB      79              0.0000000000
      9177        79  CHL1      C15            15.4409119874      -19.8416700225      -10.4130310586  MEMB      79              0.0000000000
      9178        79  CHL1      H15A           14.9223652894      -20.7989632363      -10.6276363787  MEMB      79              0.0000000000
      9179        79  CHL1      H15B           16.5310359407      -19.9828117788      -10.5503705905  MEMB      79              0.0000000000
      9180        79  CHL1      C16            15.0782357251      -19.3461969892       -9.0075993887  MEMB      79              0.0000000000
      9181        79  CHL1      H16A           14.5170849099      -20.1360032104       -8.4651045541  MEMB      79              0.0000000000
      9182        79  CHL1      H16B           15.9794977304      -19.0860302912       -8.4248982443  MEMB      79              0.0000000000
      9183        79  CHL1      C17            14.1838852384      -18.0813894965       -9.2199733500  MEMB      79              0.0000000000
      9184        79  CHL1      H17            14.8795365711      -17.2053955244       -9.2800163398  MEMB      79              0.0000000000
      9185        79  CHL1      C13            13.6074465342      -18.2282662151      -10.6241923236  MEMB      79              0.0000000000
      9186        79  CHL1      C18            12.5002861944      -19.3169019898      -10.6227672951  MEMB      79              0.0000000000
      9187        79  CHL1      H18A           12.2899350707      -19.6687991401      -11.6508493850  MEMB      79              0.0000000000
      9188        79  CHL1      H18B           12.7724071279      -20.1982345552      -10.0123494937  MEMB      79              0.0000000000
      9189        79  CHL1      H18C           11.5562067566      -18.9016323761      -10.2155842902  MEMB      79              0.0000000000
      9190        79  CHL1      C12            13.1480712864      -16.9341625818      -11.3135879876  MEMB      79              0.0000000000
      9191        79  CHL1      H12A           12.1819453379      -16.5733023953      -10.9114879894  MEMB      79              0.0000000000
      9192        79  CHL1      H12B           13.9143558917      -16.1428939824      -11.1575429112  MEMB      79              0.0000000000
      9193        79  CHL1      C11            12.9577921422      -17.1733799247      -12.8077193785  MEMB      79              0.0000000000
      9194        79  CHL1      H11A           12.1212405925      -17.8940493356      -12.9242834300  MEMB      79              0.0000000000
      9195        79  CHL1      H11B           12.6511760733      -16.2199655826      -13.2779199197  MEMB      79              0.0000000000
      9196        79  CHL1      C9             14.2430548210      -17.7169883162      -13.4767964877  MEMB      79              0.0000000000
      9197        79  CHL1      H9             15.0340285976      -16.9475623823      -13.2890548420  MEMB      79              0.0000000000
      9198        79  CHL1      C10            14.1221071271      -17.8405107944      -15.0052684307  MEMB      79              0.0000000000
      9199        79  CHL1      C19            12.8115364804      -18.5839591275      -15.3331808867  MEMB      79              0.0000000000
      9200        79  CHL1      H19A           12.7286932282      -18.8336223880      -16.4067994724  MEMB      79              0.0000000000
      9201        79  CHL1      H19B           12.7489668432      -19.5148094307      -14.7400169852  MEMB      79              0.0000000000
      9202        79  CHL1      H19C           11.9281330973      -17.9628474100      -15.0849246718  MEMB      79              0.0000000000
      9203        79  CHL1      C1             14.0700100398      -16.4187221046      -15.6185391272  MEMB      79              0.0000000000
      9204        79  CHL1      H1A            13.1483294345      -15.9049316624      -15.2813191190  MEMB      79              0.0000000000
      9205        79  CHL1      H1B            14.9426457211      -15.8366391296      -15.2478596862  MEMB      79              0.0000000000
      9206        79  CHL1      C2             14.0840313301      -16.4029905455      -17.1460587412  MEMB      79              0.0000000000
      9207        79  CHL1      H2A            14.1160234189      -15.3536435376      -17.5139817917  MEMB      79              0.0000000000
      9208        79  CHL1      H2B            13.1475071523      -16.8668099598      -17.5262513025  MEMB      79              0.0000000000
      9209        79  CHL1      C20            13.2787326365      -17.8044389892       -8.0377625635  MEMB      79              0.0000000000
      9210        79  CHL1      H20            12.7545675606      -18.7423333843       -7.7401112398  MEMB      79              0.0000000000
      9211        79  CHL1      C21            12.2232150204      -16.7181877981       -8.3205769156  MEMB      79              0.0000000000
      9212        79  CHL1      H21A           11.4669675956      -17.0773223441       -9.0427882607  MEMB      79              0.0000000000
      9213        79  CHL1      H21B           12.7166635553      -15.8165721710       -8.7341695205  MEMB      79              0.0000000000
      9214        79  CHL1      H21C           11.6821474493      -16.4257064795       -7.3975576639  MEMB      79              0.0000000000
      9215        79  CHL1      C22            14.1513629577      -17.3240582419       -6.8746769706  MEMB      79              0.0000000000
      9216        79  CHL1      H22A           15.1335857397      -17.8407091799       -6.8300149131  MEMB      79              0.0000000000
      9217        79  CHL1      H22B           14.3587907683      -16.2393287807       -7.0161741585  MEMB      79              0.0000000000
      9218        79  CHL1      C23            13.4481993908      -17.5620748128       -5.5591569621  MEMB      79              0.0000000000
      9219        79  CHL1      H23A           12.3663887185      -17.3489585407       -5.6677826737  MEMB      79              0.0000000000
      9220        79  CHL1      H23B           13.5745452973      -18.6330319761       -5.2849240842  MEMB      79              0.0000000000
      9221        79  CHL1      C24            13.9974655633      -16.6450554343       -4.4982270205  MEMB      79              0.0000000000
      9222        79  CHL1      H24A           15.0904364919      -16.7874877040       -4.4028949349  MEMB      79              0.0000000000
      9223        79  CHL1      H24B           13.8381752823      -15.5801930873       -4.7920202854  MEMB      79              0.0000000000
      9224        79  CHL1      C25            13.3575881644      -16.8897696937       -3.1421040177  MEMB      79              0.0000000000
      9225        79  CHL1      H25            12.2965568930      -16.5524281156       -3.1605924246  MEMB      79              0.0000000000
      9226        79  CHL1      C26            13.4342375168      -18.3454932960       -2.6665588266  MEMB      79              0.0000000000
      9227        79  CHL1      H26A           14.4934160059      -18.6698101559       -2.6047024601  MEMB      79              0.0000000000
      9228        79  CHL1      H26B           12.9855880565      -18.4012420787       -1.6528250467  MEMB      79              0.0000000000
      9229        79  CHL1      H26C           12.8916411481      -19.0620534832       -3.3077660005  MEMB      79              0.0000000000
      9230        79  CHL1      C27            14.1550646239      -16.0589627154       -2.1755659822  MEMB      79              0.0000000000
      9231        79  CHL1      H27A           14.1725705676      -14.9888338499       -2.4720098844  MEMB      79              0.0000000000
      9232        79  CHL1      H27B           13.7707853930      -16.1848448154       -1.1422778219  MEMB      79              0.0000000000
      9233        79  CHL1      H27C           15.1972424520      -16.4409620653       -2.2325177368  MEMB      79              0.0000000000
      9234        80  CHL1      C3             -9.4329196522      -22.0801845235      -17.4476807898  MEMB      80              0.0000000000
      9235        80  CHL1      H3            -10.2854291314      -21.3593185030      -17.4037320387  MEMB      80              0.0000000000
      9236        80  CHL1      O3             -8.7282043639      -21.8590489320      -18.6510457613  MEMB      80              0.0000000000
      9237        80  CHL1      H3'            -9.4271140670      -21.6949078620      -19.3059731227  MEMB      80              0.0000000000
      9238        80  CHL1      C4             -8.4878222382      -21.8268353197      -16.2701107557  MEMB      80              0.0000000000
      9239        80  CHL1      H4A            -7.6159278101      -22.5094145571      -16.3620957307  MEMB      80              0.0000000000
      9240        80  CHL1      H4B            -8.0921722432      -20.7897201230      -16.3483271514  MEMB      80              0.0000000000
      9241        80  CHL1      C5             -9.2550397693      -22.0644286950      -14.9892343682  MEMB      80              0.0000000000
      9242        80  CHL1      C6             -9.4965067760      -21.0590824632      -14.1389419636  MEMB      80              0.0000000000
      9243        80  CHL1      H6             -9.0893063414      -20.0601467979      -14.3534920512  MEMB      80              0.0000000000
      9244        80  CHL1      C7            -10.2785229223      -21.2208739849      -12.8684843114  MEMB      80              0.0000000000
      9245        80  CHL1      H7A            -9.8747853935      -20.5788809011      -12.0622807813  MEMB      80              0.0000000000
      9246        80  CHL1      H7B           -11.3384510827      -20.9220692000      -13.0338541558  MEMB      80              0.0000000000
      9247        80  CHL1      C8            -10.2498884303      -22.6839608995      -12.3937110598  MEMB      80              0.0000000000
      9248        80  CHL1      H8             -9.1961402344      -22.9259443471      -12.1271919335  MEMB      80              0.0000000000
      9249        80  CHL1      C14           -11.1420953720      -22.8589542492      -11.1682278803  MEMB      80              0.0000000000
      9250        80  CHL1      H14           -12.1859552323      -22.6257272149      -11.4996490707  MEMB      80              0.0000000000
      9251        80  CHL1      C15           -10.8874800893      -21.9545817117       -9.9401660917  MEMB      80              0.0000000000
      9252        80  CHL1      H15A           -9.7997637274      -21.7588995337       -9.8303466226  MEMB      80              0.0000000000
      9253        80  CHL1      H15B          -11.4251901868      -20.9905332505      -10.0411077323  MEMB      80              0.0000000000
      9254        80  CHL1      C16           -11.3987714805      -22.7683162570       -8.7376179237  MEMB      80              0.0000000000
      9255        80  CHL1      H16A          -10.5446247435      -23.0072746501       -8.0661825731  MEMB      80              0.0000000000
      9256        80  CHL1      H16B          -12.1608153064      -22.2187856705       -8.1539730116  MEMB      80              0.0000000000
      9257        80  CHL1      C17           -11.9680541946      -24.0902984678       -9.3331270660  MEMB      80              0.0000000000
      9258        80  CHL1      H17           -13.0131299053      -23.8613017231       -9.6322900298  MEMB      80              0.0000000000
      9259        80  CHL1      C13           -11.1683021052      -24.2832725385      -10.6384730363  MEMB      80              0.0000000000
      9260        80  CHL1      C18            -9.7194048153      -24.6866492139      -10.2535124602  MEMB      80              0.0000000000
      9261        80  CHL1      H18A           -9.7221556754      -25.6467113006       -9.7251393508  MEMB      80              0.0000000000
      9262        80  CHL1      H18B           -9.0687747861      -24.8067196091      -11.1386912239  MEMB      80              0.0000000000
      9263        80  CHL1      H18C           -9.2292751108      -23.9472434177       -9.5937801103  MEMB      80              0.0000000000
      9264        80  CHL1      C12           -11.7817533610      -25.1579787840      -11.7557592468  MEMB      80              0.0000000000
      9265        80  CHL1      H12A          -11.8246961721      -26.2241557377      -11.4728191393  MEMB      80              0.0000000000
      9266        80  CHL1      H12B          -12.8152644227      -24.8059888071      -11.9733365944  MEMB      80              0.0000000000
      9267        80  CHL1      C11           -10.9471632551      -25.0660560657      -13.0446316456  MEMB      80              0.0000000000
      9268        80  CHL1      H11A           -9.9865358081      -25.5750423415      -12.8331738301  MEMB      80              0.0000000000
      9269        80  CHL1      H11B          -11.4418847518      -25.6387315372      -13.8501680692  MEMB      80              0.0000000000
      9270        80  CHL1      C9            -10.7049215279      -23.6102881946      -13.5313771822  MEMB      80              0.0000000000
      9271        80  CHL1      H9            -11.7164560217      -23.2281178183      -13.8184191876  MEMB      80              0.0000000000
      9272        80  CHL1      C10            -9.8209026187      -23.4895836862      -14.8114310208  MEMB      80              0.0000000000
      9273        80  CHL1      C19            -8.6480311965      -24.5026054879      -14.7125085053  MEMB      80              0.0000000000
      9274        80  CHL1      H19A           -8.0705919764      -24.3462933907      -13.7796732266  MEMB      80              0.0000000000
      9275        80  CHL1      H19B           -9.0308278428      -25.5435224496      -14.7248228158  MEMB      80              0.0000000000
      9276        80  CHL1      H19C           -7.9581669844      -24.4297118394      -15.5761136153  MEMB      80              0.0000000000
      9277        80  CHL1      C1            -10.6758150392      -23.8188373020      -16.0736878056  MEMB      80              0.0000000000
      9278        80  CHL1      H1A           -10.9606654296      -24.8918527423      -16.0453807654  MEMB      80              0.0000000000
      9279        80  CHL1      H1B           -11.6123012979      -23.2178852854      -16.0396127025  MEMB      80              0.0000000000
      9280        80  CHL1      C2             -9.9732665770      -23.5171885358      -17.4137541104  MEMB      80              0.0000000000
      9281        80  CHL1      H2A           -10.6796992254      -23.6716687506      -18.2556185894  MEMB      80              0.0000000000
      9282        80  CHL1      H2B            -9.1201316438      -24.2181748685      -17.5585035694  MEMB      80              0.0000000000
      9283        80  CHL1      C20           -12.0668846219      -25.2359788035       -8.3155421799  MEMB      80              0.0000000000
      9284        80  CHL1      H20           -11.0481173897      -25.5873656493       -8.0408732156  MEMB      80              0.0000000000
      9285        80  CHL1      C21           -12.8439520641      -26.4112267362       -8.9491436389  MEMB      80              0.0000000000
      9286        80  CHL1      H21A          -13.7615177329      -26.0518176006       -9.4612396726  MEMB      80              0.0000000000
      9287        80  CHL1      H21B          -13.1415114695      -27.1593263296       -8.1942775918  MEMB      80              0.0000000000
      9288        80  CHL1      H21C          -12.2022926776      -26.9545560601       -9.6683139797  MEMB      80              0.0000000000
      9289        80  CHL1      C22           -12.7287619823      -24.7661275228       -6.9914770717  MEMB      80              0.0000000000
      9290        80  CHL1      H22A          -12.0454874319      -24.0515608756       -6.4831104567  MEMB      80              0.0000000000
      9291        80  CHL1      H22B          -13.6657511262      -24.2259355651       -7.2394479856  MEMB      80              0.0000000000
      9292        80  CHL1      C23           -13.0681328273      -25.8945731237       -6.0046827623  MEMB      80              0.0000000000
      9293        80  CHL1      H23A          -14.0593335710      -26.3164710142       -6.2955398515  MEMB      80              0.0000000000
      9294        80  CHL1      H23B          -12.3246659525      -26.7103021634       -6.1159766710  MEMB      80              0.0000000000
      9295        80  CHL1      C24           -13.1586555170      -25.4574002440       -4.5297484681  MEMB      80              0.0000000000
      9296        80  CHL1      H24A          -13.6948533641      -24.4849469648       -4.4831698154  MEMB      80              0.0000000000
      9297        80  CHL1      H24B          -13.7785283464      -26.1950253296       -3.9723008625  MEMB      80              0.0000000000
      9298        80  CHL1      C25           -11.8127951715      -25.3192250474       -3.7783719188  MEMB      80              0.0000000000
      9299        80  CHL1      H25           -11.2427883265      -24.4834109325       -4.2479829732  MEMB      80              0.0000000000
      9300        80  CHL1      C26           -12.0714119072      -24.9579191914       -2.3058122774  MEMB      80              0.0000000000
      9301        80  CHL1      H26A          -12.7054748504      -25.7347933481       -1.8266812406  MEMB      80              0.0000000000
      9302        80  CHL1      H26B          -11.1143132377      -24.8921057544       -1.7478908085  MEMB      80              0.0000000000
      9303        80  CHL1      H26C          -12.5941782856      -23.9822547502       -2.2289265553  MEMB      80              0.0000000000
      9304        80  CHL1      C27           -10.9442627330      -26.5895916193       -3.8478686313  MEMB      80              0.0000000000
      9305        80  CHL1      H27A          -11.5025559005      -27.4620220545       -3.4467785545  MEMB      80              0.0000000000
      9306        80  CHL1      H27B          -10.6413698214      -26.8116770419       -4.8918093486  MEMB      80              0.0000000000
      9307        80  CHL1      H27C          -10.0167024495      -26.4608443368       -3.2508301239  MEMB      80              0.0000000000
      9308        81  SAPI      C12            -4.2855607679       22.1762303857      -24.7816109840  MEMB      81              0.0000000000
      9309        81  SAPI      H2             -4.2766258205       23.2773659277      -24.6016811071  MEMB      81              0.0000000000
      9310        81  SAPI      O2             -5.5912510220       21.7116863607      -24.5022213765  MEMB      81              0.0000000000
      9311        81  SAPI      HO2            -5.7143030343       21.8219239352      -23.5509701362  MEMB      81              0.0000000000
      9312        81  SAPI      C13            -4.0379403860       21.9146886451      -26.2368338698  MEMB      81              0.0000000000
      9313        81  SAPI      H3             -3.0104589857       22.2453601813      -26.4981098026  MEMB      81              0.0000000000
      9314        81  SAPI      O3             -4.9353100534       22.6793611483      -27.0352851136  MEMB      81              0.0000000000
      9315        81  SAPI      HO3            -5.8284783652       22.4223431221      -26.7820694944  MEMB      81              0.0000000000
      9316        81  SAPI      C14            -4.0882314992       20.4032731490      -26.4882321122  MEMB      81              0.0000000000
      9317        81  SAPI      H4             -5.0244194475       19.9957437353      -26.0421670925  MEMB      81              0.0000000000
      9318        81  SAPI      O4             -4.2290533030       20.0481431018      -27.8543541926  MEMB      81              0.0000000000
      9319        81  SAPI      HO4            -5.1677055116       20.1620596650      -28.0281523549  MEMB      81              0.0000000000
      9320        81  SAPI      C15            -2.9464697317       19.7497668183      -25.7055423894  MEMB      81              0.0000000000
      9321        81  SAPI      H5             -2.0005917536       20.2685743629      -25.9946400818  MEMB      81              0.0000000000
      9322        81  SAPI      O5             -2.7096315055       18.3650417127      -25.9701382347  MEMB      81              0.0000000000
      9323        81  SAPI      HO5            -2.7666618779       17.9156407278      -25.1123180573  MEMB      81              0.0000000000
      9324        81  SAPI      C16            -3.2091544907       20.0009641036      -24.2254036641  MEMB      81              0.0000000000
      9325        81  SAPI      H6             -4.2118869575       19.5753467029      -23.9769154248  MEMB      81              0.0000000000
      9326        81  SAPI      O6             -2.2662705451       19.3214765938      -23.4059284475  MEMB      81              0.0000000000
      9327        81  SAPI      HO6            -2.5839294292       19.5689369740      -22.5249291661  MEMB      81              0.0000000000
      9328        81  SAPI      C11            -3.2317176381       21.4915058083      -23.9211807816  MEMB      81              0.0000000000
      9329        81  SAPI      H1             -2.2189117167       21.9125233675      -24.1438056066  MEMB      81              0.0000000000
      9330        81  SAPI      P              -3.4819505546       23.0535613980      -21.7212714002  MEMB      81              0.0000000000
      9331        81  SAPI      O13            -4.5799123977       23.9260963690      -22.1871840115  MEMB      81              0.0000000000
      9332        81  SAPI      O14            -2.1338288163       23.6466801016      -21.8447601002  MEMB      81              0.0000000000
      9333        81  SAPI      O12            -3.5270168283       21.6239046563      -22.5265922237  MEMB      81              0.0000000000
      9334        81  SAPI      O11            -3.7365786252       22.5380670585      -20.2481260360  MEMB      81              0.0000000000
      9335        81  SAPI      C1             -4.6235049803       23.1673596625      -19.3320958685  MEMB      81              0.0000000000
      9336        81  SAPI      HA             -5.4316232733       23.7439493059      -19.8426503245  MEMB      81              0.0000000000
      9337        81  SAPI      HB             -5.1330302026       22.3825212518      -18.7294390765  MEMB      81              0.0000000000
      9338        81  SAPI      C2             -3.8360357922       24.0841293952      -18.3660234677  MEMB      81              0.0000000000
      9339        81  SAPI      HS             -3.2338838747       24.8012116327      -18.9759162233  MEMB      81              0.0000000000
      9340        81  SAPI      O21            -3.0081503348       23.2762715434      -17.5080380983  MEMB      81              0.0000000000
      9341        81  SAPI      C21            -1.7674098381       23.0583191034      -17.8991311679  MEMB      81              0.0000000000
      9342        81  SAPI      O22            -1.1967666442       23.5488203731      -18.8573540164  MEMB      81              0.0000000000
      9343        81  SAPI      C22            -1.1330196142       22.0634373475      -16.9170869445  MEMB      81              0.0000000000
      9344        81  SAPI      H2R            -1.7538104519       22.0103091315      -15.9988836835  MEMB      81              0.0000000000
      9345        81  SAPI      H2S            -1.1807328390       21.0807457207      -17.4222294020  MEMB      81              0.0000000000
      9346        81  SAPI      C3             -4.7884033698       24.9331639707      -17.4866474022  MEMB      81              0.0000000000
      9347        81  SAPI      HX             -5.4228101306       24.2518347989      -16.8692798866  MEMB      81              0.0000000000
      9348        81  SAPI      HY             -5.4805128041       25.4990811542      -18.1497018159  MEMB      81              0.0000000000
      9349        81  SAPI      O31            -3.9986588087       25.8712340224      -16.7249875099  MEMB      81              0.0000000000
      9350        81  SAPI      C31            -3.7575670315       25.5187953656      -15.4819643366  MEMB      81              0.0000000000
      9351        81  SAPI      O32            -4.3236381836       24.6491352663      -14.8459035307  MEMB      81              0.0000000000
      9352        81  SAPI      C32            -2.6156861495       26.3659123569      -14.9568573331  MEMB      81              0.0000000000
      9353        81  SAPI      H2X            -2.9620923428       27.4143107267      -14.8492979138  MEMB      81              0.0000000000
      9354        81  SAPI      H2Y            -1.7839070648       26.3532643628      -15.6908688761  MEMB      81              0.0000000000
      9355        81  SAPI      C23             0.3336649000       22.3931384459      -16.5303749689  MEMB      81              0.0000000000
      9356        81  SAPI      H3R             0.9668334774       22.4367204821      -17.4413602413  MEMB      81              0.0000000000
      9357        81  SAPI      H3S             0.7154516771       21.5382426002      -15.9282030829  MEMB      81              0.0000000000
      9358        81  SAPI      C24             0.4637999912       23.7228097369      -15.7474249915  MEMB      81              0.0000000000
      9359        81  SAPI      H4R            -0.5465877737       24.0203617650      -15.3913619036  MEMB      81              0.0000000000
      9360        81  SAPI      H4S             0.7622203970       24.5123829429      -16.4755663239  MEMB      81              0.0000000000
      9361        81  SAPI      C25             1.4019771764       23.7496248302      -14.5627004521  MEMB      81              0.0000000000
      9362        81  SAPI      H5R             2.1102205999       24.5968062893      -14.5583389920  MEMB      81              0.0000000000
      9363        81  SAPI      C26             1.3669437095       22.9230312379      -13.4951493188  MEMB      81              0.0000000000
      9364        81  SAPI      H6R             2.1069535557       23.0675232818      -12.6917797528  MEMB      81              0.0000000000
      9365        81  SAPI      C27             0.3823128097       21.8013620608      -13.2644575940  MEMB      81              0.0000000000
      9366        81  SAPI      H7R             0.8257193425       20.8646053776      -13.6658570240  MEMB      81              0.0000000000
      9367        81  SAPI      H7S            -0.5354319989       21.9819401313      -13.8635574872  MEMB      81              0.0000000000
      9368        81  SAPI      C28             0.0296513297       21.5493572035      -11.8127558725  MEMB      81              0.0000000000
      9369        81  SAPI      H8R             0.8814115105       21.2660109566      -11.1740164603  MEMB      81              0.0000000000
      9370        81  SAPI      C29            -1.1903523375       21.6320635279      -11.2328807204  MEMB      81              0.0000000000
      9371        81  SAPI      H9R            -1.2652878183       21.3929553669      -10.1627659613  MEMB      81              0.0000000000
      9372        81  SAPI      C210           -2.4992593154       22.0050045678      -11.9050204399  MEMB      81              0.0000000000
      9373        81  SAPI      H10R           -2.4198099988       21.8188814185      -12.9965573595  MEMB      81              0.0000000000
      9374        81  SAPI      H10S           -2.6330929749       23.1051737298      -11.8318050907  MEMB      81              0.0000000000
      9375        81  SAPI      C211           -3.8022490676       21.3895825894      -11.4480247943  MEMB      81              0.0000000000
      9376        81  SAPI      H11R           -4.3871887502       20.9469578379      -12.2706424142  MEMB      81              0.0000000000
      9377        81  SAPI      C212           -4.3306051862       21.3353676883      -10.2055438898  MEMB      81              0.0000000000
      9378        81  SAPI      H12R           -5.3160367018       20.8571913899      -10.0864484850  MEMB      81              0.0000000000
      9379        81  SAPI      C213           -3.7597134269       21.8759178999       -8.9163262728  MEMB      81              0.0000000000
      9380        81  SAPI      H13R           -2.7343030781       21.4779224817       -8.7644211367  MEMB      81              0.0000000000
      9381        81  SAPI      H13S           -4.3310841833       21.4305362688       -8.0732014171  MEMB      81              0.0000000000
      9382        81  SAPI      C214           -3.7027738743       23.3824149432       -8.7994667260  MEMB      81              0.0000000000
      9383        81  SAPI      H14R           -3.0713470402       23.8851796075       -9.5524513308  MEMB      81              0.0000000000
      9384        81  SAPI      C215           -4.3570795083       24.1342480518       -7.8907981508  MEMB      81              0.0000000000
      9385        81  SAPI      H15R           -4.1978267292       25.2238869778       -7.8920250557  MEMB      81              0.0000000000
      9386        81  SAPI      C216           -5.2825799234       23.6127917791       -6.8154643590  MEMB      81              0.0000000000
      9387        81  SAPI      H16R           -5.7947615590       22.6909735967       -7.1744481927  MEMB      81              0.0000000000
      9388        81  SAPI      H16S           -6.0875017954       24.3518544450       -6.6044684596  MEMB      81              0.0000000000
      9389        81  SAPI      C217           -4.6413444738       23.1857574099       -5.4883529404  MEMB      81              0.0000000000
      9390        81  SAPI      H17R           -4.2825305372       24.0703155344       -4.9230516467  MEMB      81              0.0000000000
      9391        81  SAPI      H17S           -3.7699130869       22.5472508635       -5.7370218538  MEMB      81              0.0000000000
      9392        81  SAPI      C218           -5.6280194374       22.3525660547       -4.6506550020  MEMB      81              0.0000000000
      9393        81  SAPI      H18R           -5.9374115445       21.4713930873       -5.2601107585  MEMB      81              0.0000000000
      9394        81  SAPI      H18S           -6.5449909204       22.9525972410       -4.4562582186  MEMB      81              0.0000000000
      9395        81  SAPI      C219           -5.0722370239       21.8343376486       -3.3175863113  MEMB      81              0.0000000000
      9396        81  SAPI      H19R           -4.1183918959       21.2912709405       -3.5018682622  MEMB      81              0.0000000000
      9397        81  SAPI      H19S           -5.7961654638       21.0907505160       -2.9071115279  MEMB      81              0.0000000000
      9398        81  SAPI      C220           -4.8582413294       22.9270160385       -2.2683625063  MEMB      81              0.0000000000
      9399        81  SAPI      H20R           -5.8108216954       23.4655318482       -2.0724204720  MEMB      81              0.0000000000
      9400        81  SAPI      H20S           -4.0984906185       23.6597711336       -2.6158853730  MEMB      81              0.0000000000
      9401        81  SAPI      H20T           -4.5027423780       22.4821013704       -1.3141513147  MEMB      81              0.0000000000
      9402        81  SAPI      C33            -2.1523128665       25.8051914169      -13.6075061603  MEMB      81              0.0000000000
      9403        81  SAPI      H3X            -1.8256826328       24.7440132430      -13.7007667563  MEMB      81              0.0000000000
      9404        81  SAPI      H3Y            -3.0089901326       25.8303328610      -12.8933678994  MEMB      81              0.0000000000
      9405        81  SAPI      C34            -1.0174897731       26.6266657760      -13.0163385296  MEMB      81              0.0000000000
      9406        81  SAPI      H4X            -1.2828508396       27.7086926927      -13.1123687080  MEMB      81              0.0000000000
      9407        81  SAPI      H4Y            -0.0782108138       26.4671983826      -13.5885927527  MEMB      81              0.0000000000
      9408        81  SAPI      C35            -0.8449545790       26.3033851899      -11.5408137564  MEMB      81              0.0000000000
      9409        81  SAPI      H5X            -1.8276831499       26.3911639359      -11.0254147286  MEMB      81              0.0000000000
      9410        81  SAPI      H5Y            -0.1757529846       27.0436064404      -11.0824701548  MEMB      81              0.0000000000
      9411        81  SAPI      C36            -0.2043303763       24.9568929519      -11.2133158058  MEMB      81              0.0000000000
      9412        81  SAPI      H6X             0.7428871633       24.8302097995      -11.7757203185  MEMB      81              0.0000000000
      9413        81  SAPI      H6Y            -0.9092577243       24.1578953878      -11.4838072370  MEMB      81              0.0000000000
      9414        81  SAPI      C37             0.0761042085       24.9772343103       -9.7204120018  MEMB      81              0.0000000000
      9415        81  SAPI      H7X            -0.8663008225       25.3307330074       -9.2449080037  MEMB      81              0.0000000000
      9416        81  SAPI      H7Y             0.8746722709       25.7389945064       -9.5591751924  MEMB      81              0.0000000000
      9417        81  SAPI      C38             0.5206279094       23.7226915585       -8.9809342625  MEMB      81              0.0000000000
      9418        81  SAPI      H8X             1.3527180163       23.2263915454       -9.5246454747  MEMB      81              0.0000000000
      9419        81  SAPI      H8Y            -0.3159927835       22.9980112065       -8.8869312693  MEMB      81              0.0000000000
      9420        81  SAPI      C39             0.9818614642       24.1849829788       -7.5919577872  MEMB      81              0.0000000000
      9421        81  SAPI      H9X             1.7775005105       24.9549746462       -7.7236199578  MEMB      81              0.0000000000
      9422        81  SAPI      H9Y             1.4259747146       23.3718852361       -6.9986901341  MEMB      81              0.0000000000
      9423        81  SAPI      C310           -0.1307344279       24.8146503016       -6.7474793158  MEMB      81              0.0000000000
      9424        81  SAPI      H10X           -0.6634750028       25.6176319296       -7.2846785169  MEMB      81              0.0000000000
      9425        81  SAPI      H10Y            0.3776232943       25.2978861539       -5.8931551155  MEMB      81              0.0000000000
      9426        81  SAPI      C311           -1.1582224689       23.8187540480       -6.2111002350  MEMB      81              0.0000000000
      9427        81  SAPI      H11X           -1.6365291796       23.2554228679       -7.0389563245  MEMB      81              0.0000000000
      9428        81  SAPI      H11Y           -1.9550164794       24.3984893409       -5.6921339032  MEMB      81              0.0000000000
      9429        81  SAPI      C312           -0.5085547246       22.8428075228       -5.2329650983  MEMB      81              0.0000000000
      9430        81  SAPI      H12X            0.2244590346       23.4256312323       -4.6325892193  MEMB      81              0.0000000000
      9431        81  SAPI      H12Y            0.0515223826       22.0695748510       -5.8057692729  MEMB      81              0.0000000000
      9432        81  SAPI      C313           -1.4944626977       22.1531500084       -4.2898539495  MEMB      81              0.0000000000
      9433        81  SAPI      H13X           -2.2399904541       21.5956325022       -4.8954057234  MEMB      81              0.0000000000
      9434        81  SAPI      H13Y           -2.0321261910       22.9068835664       -3.6731070574  MEMB      81              0.0000000000
      9435        81  SAPI      C314           -0.8097872332       21.1230778712       -3.3964389783  MEMB      81              0.0000000000
      9436        81  SAPI      H14X           -0.2713206692       20.4169096496       -4.0694766309  MEMB      81              0.0000000000
      9437        81  SAPI      H14Y           -1.5835355275       20.5503535553       -2.8368889143  MEMB      81              0.0000000000
      9438        81  SAPI      C315            0.2169157156       21.7164793111       -2.4301650203  MEMB      81              0.0000000000
      9439        81  SAPI      H15X            0.9091468896       22.3887715821       -2.9839442709  MEMB      81              0.0000000000
      9440        81  SAPI      H15Y            0.8482729483       20.8973872802       -2.0284220739  MEMB      81              0.0000000000
      9441        81  SAPI      C316           -0.3958412449       22.5341970122       -1.2905248322  MEMB      81              0.0000000000
      9442        81  SAPI      H16X           -1.1175887781       23.2797969865       -1.6825843880  MEMB      81              0.0000000000
      9443        81  SAPI      H16Y            0.4524071048       23.0741214261       -0.8246883080  MEMB      81              0.0000000000
      9444        81  SAPI      C317           -1.0762638000       21.7272067579       -0.1899183015  MEMB      81              0.0000000000
      9445        81  SAPI      H17X           -2.0207908295       21.3061491904       -0.5917421727  MEMB      81              0.0000000000
      9446        81  SAPI      H17Y           -1.3541920518       22.4185377624        0.6403234674  MEMB      81              0.0000000000
      9447        81  SAPI      C318           -0.1947969912       20.6156250267        0.3667911599  MEMB      81              0.0000000000
      9448        81  SAPI      H18X            0.8246561501       20.9909194512        0.5785884841  MEMB      81              0.0000000000
      9449        81  SAPI      H18Y           -0.1051659739       19.7754483023       -0.3362852022  MEMB      81              0.0000000000
      9450        81  SAPI      H18Z           -0.6261287890       20.2264896802        1.3060024123  MEMB      81              0.0000000000
      9451        82  CHL1      C3             20.7193260400       12.5340703529      -17.4673756770  MEMB      82              0.0000000000
      9452        82  CHL1      H3             20.3713098290       13.5883782751      -17.5801456425  MEMB      82              0.0000000000
      9453        82  CHL1      O3             20.9802477728       11.9624183379      -18.7426213680  MEMB      82              0.0000000000
      9454        82  CHL1      H3'            21.7225683272       12.4608421869      -19.1204468151  MEMB      82              0.0000000000
      9455        82  CHL1      C4             22.0020753209       12.5345551487      -16.5911025912  MEMB      82              0.0000000000
      9456        82  CHL1      H4A            22.5608214249       11.5993807478      -16.8005880912  MEMB      82              0.0000000000
      9457        82  CHL1      H4B            22.6614960689       13.3523709335      -16.9600084558  MEMB      82              0.0000000000
      9458        82  CHL1      C5             21.7258038918       12.6883207801      -15.0993357066  MEMB      82              0.0000000000
      9459        82  CHL1      C6             22.2283658694       13.6509751653      -14.3284125127  MEMB      82              0.0000000000
      9460        82  CHL1      H6             22.9559635825       14.3677911232      -14.7341561435  MEMB      82              0.0000000000
      9461        82  CHL1      C7             21.8476437134       13.8249872574      -12.8855333348  MEMB      82              0.0000000000
      9462        82  CHL1      H7A            22.7448058863       14.1047297971      -12.2968495444  MEMB      82              0.0000000000
      9463        82  CHL1      H7B            21.0854038789       14.6304311325      -12.8049614175  MEMB      82              0.0000000000
      9464        82  CHL1      C8             21.2310242901       12.6125270021      -12.1904406818  MEMB      82              0.0000000000
      9465        82  CHL1      H8             22.0977760244       11.9509191507      -11.9788427036  MEMB      82              0.0000000000
      9466        82  CHL1      C14            20.4065168800       12.9664115643      -10.9520905036  MEMB      82              0.0000000000
      9467        82  CHL1      H14            19.4027026449       13.2973818796      -11.3193414032  MEMB      82              0.0000000000
      9468        82  CHL1      C15            20.7936934080       14.1388946966      -10.0796376354  MEMB      82              0.0000000000
      9469        82  CHL1      H15A           21.8629014896       14.0037509307       -9.8552659600  MEMB      82              0.0000000000
      9470        82  CHL1      H15B           20.6156939866       15.1193734561      -10.5637894200  MEMB      82              0.0000000000
      9471        82  CHL1      C16            19.9026732608       13.9757469269       -8.8419736486  MEMB      82              0.0000000000
      9472        82  CHL1      H16A           20.4084954354       14.3891538702       -7.9569841609  MEMB      82              0.0000000000
      9473        82  CHL1      H16B           18.9750158433       14.5710542477       -8.9677462522  MEMB      82              0.0000000000
      9474        82  CHL1      C17            19.5138986062       12.4662311032       -8.7514747216  MEMB      82              0.0000000000
      9475        82  CHL1      H17            18.4100828647       12.4113174933       -8.8867721676  MEMB      82              0.0000000000
      9476        82  CHL1      C13            20.1555132614       11.7955334253      -10.0155715711  MEMB      82              0.0000000000
      9477        82  CHL1      C18            21.5059925188       11.1579323773       -9.5945919019  MEMB      82              0.0000000000
      9478        82  CHL1      H18A           22.0682578067       10.7461102081      -10.4491828387  MEMB      82              0.0000000000
      9479        82  CHL1      H18B           22.1486133982       11.9015950698       -9.0828081541  MEMB      82              0.0000000000
      9480        82  CHL1      H18C           21.3544369132       10.2994898056       -8.9133638118  MEMB      82              0.0000000000
      9481        82  CHL1      C12            19.2819618135       10.8265274087      -10.8419001383  MEMB      82              0.0000000000
      9482        82  CHL1      H12A           19.2797991636        9.8559229588      -10.3321936667  MEMB      82              0.0000000000
      9483        82  CHL1      H12B           18.2398449203       11.1978639229      -10.9114682423  MEMB      82              0.0000000000
      9484        82  CHL1      C11            19.8238413893       10.5828759725      -12.2759310760  MEMB      82              0.0000000000
      9485        82  CHL1      H11A           20.7359820080        9.9809101745      -12.1142637521  MEMB      82              0.0000000000
      9486        82  CHL1      H11B           19.1024085687        9.9771693419      -12.8644573650  MEMB      82              0.0000000000
      9487        82  CHL1      C9             20.2617878571       11.8610254389      -13.0577542042  MEMB      82              0.0000000000
      9488        82  CHL1      H9             19.3441600003       12.4890639391      -13.1479459926  MEMB      82              0.0000000000
      9489        82  CHL1      C10            20.7554588378       11.6732252525      -14.5142280864  MEMB      82              0.0000000000
      9490        82  CHL1      C19            21.6056139960       10.3918770872      -14.5030366443  MEMB      82              0.0000000000
      9491        82  CHL1      H19A           22.1334482843       10.1583075143      -15.4422828182  MEMB      82              0.0000000000
      9492        82  CHL1      H19B           22.3868595010       10.4599536996      -13.7132152682  MEMB      82              0.0000000000
      9493        82  CHL1      H19C           20.9800786730        9.5250529206      -14.2523614192  MEMB      82              0.0000000000
      9494        82  CHL1      C1             19.4706982105       11.7626217176      -15.3818423922  MEMB      82              0.0000000000
      9495        82  CHL1      H1A            18.7245173616       11.0165951160      -15.0291885798  MEMB      82              0.0000000000
      9496        82  CHL1      H1B            19.0588804975       12.7800418405      -15.1904713149  MEMB      82              0.0000000000
      9497        82  CHL1      C2             19.5753037981       11.7022328208      -16.8982938393  MEMB      82              0.0000000000
      9498        82  CHL1      H2A            18.6287880321       12.0820766085      -17.3464614669  MEMB      82              0.0000000000
      9499        82  CHL1      H2B            19.6329075749       10.6495534346      -17.2023226029  MEMB      82              0.0000000000
      9500        82  CHL1      C20            19.8035305315       11.8579558683       -7.3593105998  MEMB      82              0.0000000000
      9501        82  CHL1      H20            20.9045571364       11.7407729307       -7.2373381957  MEMB      82              0.0000000000
      9502        82  CHL1      C21            19.1417008911       10.4699098702       -7.2709766059  MEMB      82              0.0000000000
      9503        82  CHL1      H21A           18.0368137545       10.5657391933       -7.2979138891  MEMB      82              0.0000000000
      9504        82  CHL1      H21B           19.4341187301        9.9550158377       -6.3328440053  MEMB      82              0.0000000000
      9505        82  CHL1      H21C           19.4645452183        9.8356031397       -8.1137464267  MEMB      82              0.0000000000
      9506        82  CHL1      C22            19.3556853229       12.7155994790       -6.1412719269  MEMB      82              0.0000000000
      9507        82  CHL1      H22A           19.8551044380       13.7057540530       -6.1636158078  MEMB      82              0.0000000000
      9508        82  CHL1      H22B           18.2596193803       12.8894761222       -6.1740906305  MEMB      82              0.0000000000
      9509        82  CHL1      C23            19.7478625818       12.0838931196       -4.7895995520  MEMB      82              0.0000000000
      9510        82  CHL1      H23A           19.0431953304       11.2596541932       -4.5478795664  MEMB      82              0.0000000000
      9511        82  CHL1      H23B           20.7679235126       11.6458569055       -4.8862468060  MEMB      82              0.0000000000
      9512        82  CHL1      C24            19.7807446626       13.0972242158       -3.6340104748  MEMB      82              0.0000000000
      9513        82  CHL1      H24A           20.5055342814       13.9022588900       -3.8932812828  MEMB      82              0.0000000000
      9514        82  CHL1      H24B           18.7814157716       13.5706434447       -3.5222835346  MEMB      82              0.0000000000
      9515        82  CHL1      C25            20.2026998729       12.4926490460       -2.2773748530  MEMB      82              0.0000000000
      9516        82  CHL1      H25            21.1452843823       11.9117951247       -2.4272336562  MEMB      82              0.0000000000
      9517        82  CHL1      C26            20.5000024871       13.6134442359       -1.2715979530  MEMB      82              0.0000000000
      9518        82  CHL1      H26A           20.7864978984       13.1863046133       -0.2873166292  MEMB      82              0.0000000000
      9519        82  CHL1      H26B           21.3303373173       14.2549052795       -1.6362158779  MEMB      82              0.0000000000
      9520        82  CHL1      H26C           19.6004050258       14.2490297529       -1.1273919245  MEMB      82              0.0000000000
      9521        82  CHL1      C27            19.1362327211       11.5416954520       -1.7083625408  MEMB      82              0.0000000000
      9522        82  CHL1      H27A           18.9977616636       10.6574366759       -2.3653628726  MEMB      82              0.0000000000
      9523        82  CHL1      H27B           19.4388253846       11.1836751664       -0.7013814795  MEMB      82              0.0000000000
      9524        82  CHL1      H27C           18.1620198672       12.0668177942       -1.6146503365  MEMB      82              0.0000000000
      9525        83  SOPE      N             -12.4629038352       21.6330788651      -19.8008745492  MEMB      83              0.0000000000
      9526        83  SOPE      HN1           -11.8836925088       22.4414733253      -19.4625434507  MEMB      83              0.0000000000
      9527        83  SOPE      HN2           -12.9527052200       22.0070251785      -20.6572482471  MEMB      83              0.0000000000
      9528        83  SOPE      HN3           -13.1631870469       21.3882797041      -19.0780805055  MEMB      83              0.0000000000
      9529        83  SOPE      C12           -11.4923289279       20.5535569418      -20.2254284867  MEMB      83              0.0000000000
      9530        83  SOPE      H12A          -12.0662779163       19.7833500760      -20.7810753472  MEMB      83              0.0000000000
      9531        83  SOPE      H12B          -11.0387082983       20.1144184954      -19.3143333829  MEMB      83              0.0000000000
      9532        83  SOPE      C11           -10.3706408483       21.1116729974      -21.1327319845  MEMB      83              0.0000000000
      9533        83  SOPE      H11A           -9.7440389675       20.2817526404      -21.5211841904  MEMB      83              0.0000000000
      9534        83  SOPE      H11B           -9.6545931563       21.7441786976      -20.5573533890  MEMB      83              0.0000000000
      9535        83  SOPE      P             -11.2747800094       23.3216918988      -22.1245203700  MEMB      83              0.0000000000
      9536        83  SOPE      O13           -12.7512743836       23.4112762236      -22.1085809098  MEMB      83              0.0000000000
      9537        83  SOPE      O14           -10.5478572152       24.1358569176      -23.1059601707  MEMB      83              0.0000000000
      9538        83  SOPE      O12           -10.9158121134       21.7977883258      -22.2544745113  MEMB      83              0.0000000000
      9539        83  SOPE      O11           -10.8767863311       23.6973885963      -20.6231695630  MEMB      83              0.0000000000
      9540        83  SOPE      C1            -11.4843981530       24.7703467271      -19.8756381973  MEMB      83              0.0000000000
      9541        83  SOPE      HA            -12.5116577708       25.0052496392      -20.2350923302  MEMB      83              0.0000000000
      9542        83  SOPE      HB            -10.8727481308       25.6967568648      -19.9957426594  MEMB      83              0.0000000000
      9543        83  SOPE      C2            -11.6237018416       24.4926426510      -18.3289544830  MEMB      83              0.0000000000
      9544        83  SOPE      HS            -11.1708107029       25.3504128649      -17.7736810301  MEMB      83              0.0000000000
      9545        83  SOPE      O21           -10.9881773127       23.2455770857      -17.9729882631  MEMB      83              0.0000000000
      9546        83  SOPE      C21            -9.6661686114       23.3808685994      -17.8878376559  MEMB      83              0.0000000000
      9547        83  SOPE      O22            -9.0450033185       24.4171922747      -18.0101075087  MEMB      83              0.0000000000
      9548        83  SOPE      C22            -9.0382478149       22.0214724448      -17.6371798262  MEMB      83              0.0000000000
      9549        83  SOPE      H2R            -8.3914726486       21.8172817761      -18.5154735684  MEMB      83              0.0000000000
      9550        83  SOPE      H2S            -9.8221499962       21.2413260570      -17.5627420669  MEMB      83              0.0000000000
      9551        83  SOPE      C3            -13.1191200304       24.4475642703      -17.8648890758  MEMB      83              0.0000000000
      9552        83  SOPE      HX            -13.7030138734       23.9985310297      -18.6911270780  MEMB      83              0.0000000000
      9553        83  SOPE      HY            -13.5204871713       25.4810913595      -17.7577281008  MEMB      83              0.0000000000
      9554        83  SOPE      O31           -13.3390783293       23.6336222332      -16.6836730839  MEMB      83              0.0000000000
      9555        83  SOPE      C31           -13.2996556589       24.3072104098      -15.5249829499  MEMB      83              0.0000000000
      9556        83  SOPE      O32           -13.0353528164       25.4887816868      -15.4275119136  MEMB      83              0.0000000000
      9557        83  SOPE      C32           -13.6942215028       23.4124763259      -14.3361259535  MEMB      83              0.0000000000
      9558        83  SOPE      H2X           -12.7727621010       23.2398567579      -13.7451229871  MEMB      83              0.0000000000
      9559        83  SOPE      H2Y           -14.0743769479       22.4349794237      -14.6992092514  MEMB      83              0.0000000000
      9560        83  SOPE      C23            -8.1708966001       22.0477074124      -16.3664452002  MEMB      83              0.0000000000
      9561        83  SOPE      H3R            -7.4820659170       22.9237370243      -16.3846462288  MEMB      83              0.0000000000
      9562        83  SOPE      H3S            -7.5345248726       21.1303564329      -16.3565044729  MEMB      83              0.0000000000
      9563        83  SOPE      C24            -8.9986528613       22.0803522657      -15.0797469299  MEMB      83              0.0000000000
      9564        83  SOPE      H4R            -9.7069643215       22.9396750017      -15.0834212336  MEMB      83              0.0000000000
      9565        83  SOPE      H4S            -9.5919957179       21.1385573476      -15.0211180332  MEMB      83              0.0000000000
      9566        83  SOPE      C25            -8.0914592023       22.1860774576      -13.8487902408  MEMB      83              0.0000000000
      9567        83  SOPE      H5R            -7.2037990310       21.5332086251      -14.0198107445  MEMB      83              0.0000000000
      9568        83  SOPE      H5S            -7.7125342060       23.2259896902      -13.7311127984  MEMB      83              0.0000000000
      9569        83  SOPE      C26            -8.7765212968       21.7044577595      -12.5682025185  MEMB      83              0.0000000000
      9570        83  SOPE      H6R            -9.3383825673       20.7675395975      -12.7837456368  MEMB      83              0.0000000000
      9571        83  SOPE      H6S            -7.9943327107       21.4274837969      -11.8264515183  MEMB      83              0.0000000000
      9572        83  SOPE      C27            -9.7232984502       22.7347728434      -11.9359225600  MEMB      83              0.0000000000
      9573        83  SOPE      H7R           -10.4766311595       23.0662833500      -12.6838730846  MEMB      83              0.0000000000
      9574        83  SOPE      H7S           -10.2613710128       22.2163117112      -11.1118511548  MEMB      83              0.0000000000
      9575        83  SOPE      C28            -9.0544857779       23.9779796587      -11.3219814407  MEMB      83              0.0000000000
      9576        83  SOPE      H8R            -8.6630854511       24.6302748253      -12.1325334787  MEMB      83              0.0000000000
      9577        83  SOPE      H8S            -9.8572566705       24.5415535227      -10.8008721353  MEMB      83              0.0000000000
      9578        83  SOPE      C29            -7.9295634562       23.6284130759      -10.3852806518  MEMB      83              0.0000000000
      9579        83  SOPE      H91            -6.9846336898       23.3758120913      -10.8948712798  MEMB      83              0.0000000000
      9580        83  SOPE      C210           -7.9376895635       23.6099047899       -9.0442615482  MEMB      83              0.0000000000
      9581        83  SOPE      H101           -7.0215722263       23.2699869467       -8.5594023511  MEMB      83              0.0000000000
      9582        83  SOPE      C211           -9.0600262306       23.9310444756       -8.0932846856  MEMB      83              0.0000000000
      9583        83  SOPE      H11R           -9.5048148460       24.9096762640       -8.3433494237  MEMB      83              0.0000000000
      9584        83  SOPE      H11S           -8.6639285281       24.0430786205       -7.0592393899  MEMB      83              0.0000000000
      9585        83  SOPE      C212          -10.1960549891       22.8984840097       -8.0682300070  MEMB      83              0.0000000000
      9586        83  SOPE      H12R          -10.6175661264       22.7739780399       -9.0873529531  MEMB      83              0.0000000000
      9587        83  SOPE      H12S          -11.0055295551       23.3175609439       -7.4315620702  MEMB      83              0.0000000000
      9588        83  SOPE      C213           -9.7808126463       21.5327321608       -7.5063487179  MEMB      83              0.0000000000
      9589        83  SOPE      H13R           -8.9258466062       21.1190914628       -8.0826586999  MEMB      83              0.0000000000
      9590        83  SOPE      H13S          -10.6355217444       20.8339886727       -7.6350253799  MEMB      83              0.0000000000
      9591        83  SOPE      C214           -9.4390638823       21.5840111978       -6.0114885570  MEMB      83              0.0000000000
      9592        83  SOPE      H14R          -10.2388914781       22.1684010428       -5.5017460563  MEMB      83              0.0000000000
      9593        83  SOPE      H14S           -8.4749479639       22.1147931878       -5.8520128890  MEMB      83              0.0000000000
      9594        83  SOPE      C215           -9.3715524844       20.1850372029       -5.3897756648  MEMB      83              0.0000000000
      9595        83  SOPE      H15R           -8.5335883514       19.6206918722       -5.8553997518  MEMB      83              0.0000000000
      9596        83  SOPE      H15S          -10.3171789092       19.6510725349       -5.6313737767  MEMB      83              0.0000000000
      9597        83  SOPE      C216           -9.2019634746       20.1937600727       -3.8654005448  MEMB      83              0.0000000000
      9598        83  SOPE      H16R           -8.2582352438       20.7187333300       -3.5955919726  MEMB      83              0.0000000000
      9599        83  SOPE      H16S           -9.1121740923       19.1407816216       -3.5147284374  MEMB      83              0.0000000000
      9600        83  SOPE      C217          -10.3693273633       20.8619581254       -3.1295397434  MEMB      83              0.0000000000
      9601        83  SOPE      H17R          -11.3319943008       20.5187112599       -3.5674122953  MEMB      83              0.0000000000
      9602        83  SOPE      H17S          -10.3241345744       21.9620821856       -3.2955951020  MEMB      83              0.0000000000
      9603        83  SOPE      C218          -10.3558381779       20.5711331113       -1.6293010370  MEMB      83              0.0000000000
      9604        83  SOPE      H18R          -11.0723430784       21.2311302873       -1.1037939419  MEMB      83              0.0000000000
      9605        83  SOPE      H18S           -9.3439309933       20.7583580756       -1.2125735749  MEMB      83              0.0000000000
      9606        83  SOPE      H18T          -10.6305114269       19.5138577024       -1.4285251674  MEMB      83              0.0000000000
      9607        83  SOPE      C33           -14.7564166725       24.0961807341      -13.4252822644  MEMB      83              0.0000000000
      9608        83  SOPE      H3X           -15.7044406067       24.2004100259      -14.0018930109  MEMB      83              0.0000000000
      9609        83  SOPE      H3Y           -14.4100428444       25.1227231560      -13.1604119146  MEMB      83              0.0000000000
      9610        83  SOPE      C34           -15.0642631092       23.3603238166      -12.0982103437  MEMB      83              0.0000000000
      9611        83  SOPE      H4X           -14.1320589315       23.2719117592      -11.5020027337  MEMB      83              0.0000000000
      9612        83  SOPE      H4Y           -15.4216648068       22.3322598093      -12.3327570251  MEMB      83              0.0000000000
      9613        83  SOPE      C35           -16.1320737385       24.0997559778      -11.2580607844  MEMB      83              0.0000000000
      9614        83  SOPE      H5X           -17.0271009162       24.2188440418      -11.9104019015  MEMB      83              0.0000000000
      9615        83  SOPE      H5Y           -15.7614117269       25.1210597855      -11.0303280004  MEMB      83              0.0000000000
      9616        83  SOPE      C36           -16.5998321230       23.4086907954       -9.9485629674  MEMB      83              0.0000000000
      9617        83  SOPE      H6X           -16.1695541605       22.3873913937       -9.8851290626  MEMB      83              0.0000000000
      9618        83  SOPE      H6Y           -17.7050267815       23.2950620960      -10.0118219551  MEMB      83              0.0000000000
      9619        83  SOPE      C37           -16.3011760851       24.1848613185       -8.6410927930  MEMB      83              0.0000000000
      9620        83  SOPE      H7X           -16.3422854619       25.2702646735       -8.8678731159  MEMB      83              0.0000000000
      9621        83  SOPE      H7Y           -15.2545742337       23.9634924391       -8.3403271574  MEMB      83              0.0000000000
      9622        83  SOPE      C38           -17.2502945441       23.8956977216       -7.4336083812  MEMB      83              0.0000000000
      9623        83  SOPE      H8X           -18.3068836601       24.0768913013       -7.7199959765  MEMB      83              0.0000000000
      9624        83  SOPE      H8Y           -16.9818298921       24.6064177350       -6.6182330730  MEMB      83              0.0000000000
      9625        83  SOPE      C39           -17.0885034472       22.4631229954       -6.8958038813  MEMB      83              0.0000000000
      9626        83  SOPE      H9X           -15.9970610363       22.3874632793       -6.7319605631  MEMB      83              0.0000000000
      9627        83  SOPE      H9Y           -17.4012180527       21.7527686161       -7.6918860915  MEMB      83              0.0000000000
      9628        83  SOPE      C310          -17.7005643290       21.9956507331       -5.5524593502  MEMB      83              0.0000000000
      9629        83  SOPE      H10X          -18.8052888491       22.0941556941       -5.5757538897  MEMB      83              0.0000000000
      9630        83  SOPE      H10Y          -17.3150715027       22.6367359024       -4.7310709170  MEMB      83              0.0000000000
      9631        83  SOPE      C311          -17.3075201781       20.5137925750       -5.2709774526  MEMB      83              0.0000000000
      9632        83  SOPE      H11X          -16.2181043959       20.3962989567       -5.4595041166  MEMB      83              0.0000000000
      9633        83  SOPE      H11Y          -17.8206002256       19.8634921702       -5.9991861919  MEMB      83              0.0000000000
      9634        83  SOPE      C312          -17.5468858929       19.9700142446       -3.8483285420  MEMB      83              0.0000000000
      9635        83  SOPE      H12X          -18.5525557655       20.2676146923       -3.4847647699  MEMB      83              0.0000000000
      9636        83  SOPE      H12Y          -16.8084849883       20.4762199864       -3.1852099561  MEMB      83              0.0000000000
      9637        83  SOPE      C313          -17.3935121012       18.4270537025       -3.6447836301  MEMB      83              0.0000000000
      9638        83  SOPE      H13X          -18.3503435112       17.8929869938       -3.7093778087  MEMB      83              0.0000000000
      9639        83  SOPE      H13Y          -17.0906905065       18.3459107309       -2.5968600067  MEMB      83              0.0000000000
      9640        83  SOPE      C314          -16.4171618583       17.6639018043       -4.5754701861  MEMB      83              0.0000000000
      9641        83  SOPE      H14X          -15.4479803464       18.1412517048       -4.5357485946  MEMB      83              0.0000000000
      9642        83  SOPE      H14Y          -16.8122006732       17.8740682260       -5.5965974840  MEMB      83              0.0000000000
      9643        83  SOPE      C315          -16.2936327335       16.1025845946       -4.5054976668  MEMB      83              0.0000000000
      9644        83  SOPE      H15X          -16.1919225263       15.8343630977       -5.5762915182  MEMB      83              0.0000000000
      9645        83  SOPE      H15Y          -17.2743644338       15.7236537738       -4.1561721971  MEMB      83              0.0000000000
      9646        83  SOPE      C316          -15.1469241451       15.2012491964       -3.8766528549  MEMB      83              0.0000000000
      9647        83  SOPE      H16X          -15.4561441019       14.1974061431       -4.2034758578  MEMB      83              0.0000000000
      9648        83  SOPE      H16Y          -15.1289274435       15.1484581665       -2.7897916243  MEMB      83              0.0000000000
      9649        83  SOPE      C317          -13.7290135102       15.2391187612       -4.4867184037  MEMB      83              0.0000000000
      9650        83  SOPE      H17X          -13.9262783344       16.2538205780       -4.7794363669  MEMB      83              0.0000000000
      9651        83  SOPE      H17Y          -13.6591301058       14.6390670610       -5.4170507076  MEMB      83              0.0000000000
      9652        83  SOPE      C318          -12.3530905604       15.2361752939       -3.7621241067  MEMB      83              0.0000000000
      9653        83  SOPE      H18X          -12.0638940409       14.3031375993       -3.2698540694  MEMB      83              0.0000000000
      9654        83  SOPE      H18Y          -12.2299766566       16.0167360461       -2.9939363885  MEMB      83              0.0000000000
      9655        83  SOPE      H18Z          -11.5619632466       15.4447101046       -4.5176599722  MEMB      83              0.0000000000
      9656        84  OSM       N               2.5464003567       21.8773445001      -21.0900555510  MEMB      84              0.0000000000
      9657        84  OSM       C15             1.1188717917       21.6508678937      -21.4533603187  MEMB      84              0.0000000000
      9658        84  OSM       H15A            0.6729819251       20.9645782725      -20.7386821802  MEMB      84              0.0000000000
      9659        84  OSM       H15B            1.0784032716       21.1944821827      -22.4406319713  MEMB      84              0.0000000000
      9660        84  OSM       H15C            0.5436660911       22.5721615858      -21.4828217773  MEMB      84              0.0000000000
      9661        84  OSM       C14             2.6689381660       22.5618087707      -19.7626961471  MEMB      84              0.0000000000
      9662        84  OSM       H14A            2.3384304834       23.5882688471      -19.8138767552  MEMB      84              0.0000000000
      9663        84  OSM       H14B            3.7261333275       22.5894284285      -19.4868997934  MEMB      84              0.0000000000
      9664        84  OSM       H14C            2.1093142600       22.0283992194      -19.0088820311  MEMB      84              0.0000000000
      9665        84  OSM       C13             3.2347662129       20.5696243839      -20.9360881357  MEMB      84              0.0000000000
      9666        84  OSM       H13A            2.8798189496       19.9908687837      -20.0886057431  MEMB      84              0.0000000000
      9667        84  OSM       H13B            4.2972865661       20.7243612317      -20.7123350798  MEMB      84              0.0000000000
      9668        84  OSM       H13C            3.2262656450       19.9537727352      -21.8273562373  MEMB      84              0.0000000000
      9669        84  OSM       C12             3.2354407424       22.6572364738      -22.1918380380  MEMB      84              0.0000000000
      9670        84  OSM       H12A            2.9051799806       23.6857912346      -22.1584378713  MEMB      84              0.0000000000
      9671        84  OSM       H12B            2.8982049546       22.2841188857      -23.1612493103  MEMB      84              0.0000000000
      9672        84  OSM       C11             4.7798118115       22.6941596603      -22.2099759466  MEMB      84              0.0000000000
      9673        84  OSM       H11A            5.0770855551       23.3635691254      -23.0572056101  MEMB      84              0.0000000000
      9674        84  OSM       H11B            5.1929237359       21.6810099070      -22.4246887128  MEMB      84              0.0000000000
      9675        84  OSM       P               6.5589398050       23.9575804062      -20.7300092914  MEMB      84              0.0000000000
      9676        84  OSM       O13             7.4189092817       23.8921827834      -21.9318889994  MEMB      84              0.0000000000
      9677        84  OSM       O14             6.1361263163       25.2908846291      -20.2769121130  MEMB      84              0.0000000000
      9678        84  OSM       O11             7.1518914101       23.1698931562      -19.4979889932  MEMB      84              0.0000000000
      9679        84  OSM       O12             5.2381723249       23.1543793217      -20.9494279145  MEMB      84              0.0000000000
      9680        84  OSM       C1S             6.2300472642       23.0193501357      -18.3839660539  MEMB      84              0.0000000000
      9681        84  OSM       H1S             5.7631172193       22.0154088443      -18.4626975230  MEMB      84              0.0000000000
      9682        84  OSM       H1T             5.4048194008       23.7816283688      -18.3539761867  MEMB      84              0.0000000000
      9683        84  OSM       NF              5.8660071170       23.0243706326      -15.9595416415  MEMB      84              0.0000000000
      9684        84  OSM       HNF             5.5108542437       23.8642177137      -15.5667554338  MEMB      84              0.0000000000
      9685        84  OSM       C2S             6.8971881275       23.1432148171      -16.9785323637  MEMB      84              0.0000000000
      9686        84  OSM       H2S             7.6006673413       22.3008012449      -16.8703369243  MEMB      84              0.0000000000
      9687        84  OSM       C3S             7.6824912050       24.4713163992      -16.8279054676  MEMB      84              0.0000000000
      9688        84  OSM       H3S             6.9725416070       25.3254953310      -16.8948639957  MEMB      84              0.0000000000
      9689        84  OSM       O3              8.6379464789       24.6208825406      -17.8648226240  MEMB      84              0.0000000000
      9690        84  OSM       HO3             8.4061615490       23.8964179760      -18.4704098043  MEMB      84              0.0000000000
      9691        84  OSM       C4S             8.3869136857       24.5270076478      -15.4867031120  MEMB      84              0.0000000000
      9692        84  OSM       H4S             9.4466759999       24.2333395113      -15.5158185784  MEMB      84              0.0000000000
      9693        84  OSM       C5S             7.8369970972       24.9226111757      -14.3143678356  MEMB      84              0.0000000000
      9694        84  OSM       H5S             6.7811234615       25.2289771775      -14.2998077884  MEMB      84              0.0000000000
      9695        84  OSM       C6S             8.5343353939       24.9859004957      -12.9751382221  MEMB      84              0.0000000000
      9696        84  OSM       H6S             8.3748604330       25.9870939804      -12.5145023128  MEMB      84              0.0000000000
      9697        84  OSM       H6T             9.6280789250       24.8912924035      -13.1336370160  MEMB      84              0.0000000000
      9698        84  OSM       C7S             8.1678041433       23.9140704400      -11.9218727537  MEMB      84              0.0000000000
      9699        84  OSM       H7S             8.7443387095       24.1356824873      -10.9919326315  MEMB      84              0.0000000000
      9700        84  OSM       H7T             8.5065473289       22.9189402795      -12.2889967542  MEMB      84              0.0000000000
      9701        84  OSM       C8S             6.6790050187       23.8312055367      -11.5393428263  MEMB      84              0.0000000000
      9702        84  OSM       H8S             6.5504733935       23.0428003766      -10.7636520527  MEMB      84              0.0000000000
      9703        84  OSM       H8T             6.0888545430       23.5319114019      -12.4303352687  MEMB      84              0.0000000000
      9704        84  OSM       C9S             6.0934999180       25.1464659589      -11.0136985771  MEMB      84              0.0000000000
      9705        84  OSM       H9S             6.1913432364       25.8924226333      -11.8201115879  MEMB      84              0.0000000000
      9706        84  OSM       H9T             6.7011437375       25.5149298579      -10.1620986998  MEMB      84              0.0000000000
      9707        84  OSM       C10S            4.6008660032       25.0633001679      -10.6523045277  MEMB      84              0.0000000000
      9708        84  OSM       H10S            4.0785463328       24.4369865577      -11.4079697945  MEMB      84              0.0000000000
      9709        84  OSM       H10T            4.1552816653       26.0841852011      -10.7032110037  MEMB      84              0.0000000000
      9710        84  OSM       C11S            4.3493634893       24.5099885167       -9.2446453124  MEMB      84              0.0000000000
      9711        84  OSM       H11S            4.9669902370       23.5983062629       -9.0920595198  MEMB      84              0.0000000000
      9712        84  OSM       H11T            3.2841594634       24.2138404834       -9.1549776575  MEMB      84              0.0000000000
      9713        84  OSM       C12S            4.6731023988       25.5403270714       -8.1583145081  MEMB      84              0.0000000000
      9714        84  OSM       H12S            3.9305795125       26.3687642714       -8.1839975359  MEMB      84              0.0000000000
      9715        84  OSM       H12T            5.6669952105       25.9759917104       -8.3959090495  MEMB      84              0.0000000000
      9716        84  OSM       C13S            4.7769842166       24.9631258964       -6.7434403203  MEMB      84              0.0000000000
      9717        84  OSM       H13S            5.4676578104       24.0883580315       -6.7758642891  MEMB      84              0.0000000000
      9718        84  OSM       H13T            3.7894636721       24.5976950345       -6.3908603505  MEMB      84              0.0000000000
      9719        84  OSM       C14S            5.3575778801       26.0046758565       -5.7769812975  MEMB      84              0.0000000000
      9720        84  OSM       H14S            4.6346136332       26.8311440040       -5.6052459322  MEMB      84              0.0000000000
      9721        84  OSM       H14T            6.2643074972       26.4396105676       -6.2633824546  MEMB      84              0.0000000000
      9722        84  OSM       C15S            5.8291479428       25.4183075273       -4.4475322310  MEMB      84              0.0000000000
      9723        84  OSM       H15S            6.5046253111       26.1577902461       -3.9598743019  MEMB      84              0.0000000000
      9724        84  OSM       H15T            6.4196566961       24.5035461887       -4.6620972187  MEMB      84              0.0000000000
      9725        84  OSM       C16S            4.7097798888       25.0543773963       -3.4753844327  MEMB      84              0.0000000000
      9726        84  OSM       H16S            3.9818854111       24.3762727952       -3.9780437339  MEMB      84              0.0000000000
      9727        84  OSM       H16T            4.1604619811       25.9748994290       -3.1737692611  MEMB      84              0.0000000000
      9728        84  OSM       C17S            5.2662932024       24.3540774414       -2.2287251415  MEMB      84              0.0000000000
      9729        84  OSM       H17S            5.8108122200       23.4349450040       -2.5362684059  MEMB      84              0.0000000000
      9730        84  OSM       H17T            4.4102929036       24.0302894767       -1.6047416286  MEMB      84              0.0000000000
      9731        84  OSM       C18S            6.1928534797       25.2143618177       -1.3649421200  MEMB      84              0.0000000000
      9732        84  OSM       H18S            5.7001681917       26.1800693064       -1.1223099385  MEMB      84              0.0000000000
      9733        84  OSM       H18T            7.1512218851       25.4239440451       -1.8812332095  MEMB      84              0.0000000000
      9734        84  OSM       H18U            6.4212734980       24.6857855494       -0.4132468112  MEMB      84              0.0000000000
      9735        84  OSM       C1F             5.3967243050       21.8407617699      -15.5912163486  MEMB      84              0.0000000000
      9736        84  OSM       OF              5.6753945180       20.8329089527      -16.2131736239  MEMB      84              0.0000000000
      9737        84  OSM       C2F             4.5020484345       21.8134584733      -14.3960682151  MEMB      84              0.0000000000
      9738        84  OSM       H2F             3.5510517153       21.3172696767      -14.6914424655  MEMB      84              0.0000000000
      9739        84  OSM       H2G             4.2716215898       22.8485744293      -14.0652367271  MEMB      84              0.0000000000
      9740        84  OSM       C3F             5.1256665635       21.0197267087      -13.2306117240  MEMB      84              0.0000000000
      9741        84  OSM       H3F             6.0642291796       21.4900993395      -12.8713228204  MEMB      84              0.0000000000
      9742        84  OSM       H3G             5.4072022549       20.0042922702      -13.5887960407  MEMB      84              0.0000000000
      9743        84  OSM       C4F             4.1290974150       20.9012613044      -12.0722764543  MEMB      84              0.0000000000
      9744        84  OSM       H4F             3.1615463545       20.5159323460      -12.4732688934  MEMB      84              0.0000000000
      9745        84  OSM       H4G             3.9388466302       21.9130398670      -11.6507359884  MEMB      84              0.0000000000
      9746        84  OSM       C5F             4.5939027765       19.9493396707      -10.9685361152  MEMB      84              0.0000000000
      9747        84  OSM       H5F             5.5516311827       20.3032383382      -10.5271685957  MEMB      84              0.0000000000
      9748        84  OSM       H5G             4.7780761820       18.9448144063      -11.4152691479  MEMB      84              0.0000000000
      9749        84  OSM       C6F             3.5441921091       19.8104664811       -9.8631255518  MEMB      84              0.0000000000
      9750        84  OSM       H6F             3.7980682397       18.9222460170       -9.2510233575  MEMB      84              0.0000000000
      9751        84  OSM       H6G             2.5387555732       19.6421515807      -10.3090596646  MEMB      84              0.0000000000
      9752        84  OSM       C7F             3.5200935001       21.0102227388       -8.9168904664  MEMB      84              0.0000000000
      9753        84  OSM       H7F             3.3311979911       21.9358194842       -9.5037397293  MEMB      84              0.0000000000
      9754        84  OSM       H7G             4.5194516662       21.1190790306       -8.4363413518  MEMB      84              0.0000000000
      9755        84  OSM       C8F             2.4403379759       20.9020068117       -7.8309753086  MEMB      84              0.0000000000
      9756        84  OSM       H8F             1.4377416376       20.9091520200       -8.3164624474  MEMB      84              0.0000000000
      9757        84  OSM       H8G             2.5280909941       21.8264406714       -7.2336217443  MEMB      84              0.0000000000
      9758        84  OSM       C9F             2.5843098569       19.6956685224       -6.9437003559  MEMB      84              0.0000000000
      9759        84  OSM       H9F             2.3805283135       18.7339597316       -7.4364582725  MEMB      84              0.0000000000
      9760        84  OSM       C10F            2.8961411946       19.6789815288       -5.6377876209  MEMB      84              0.0000000000
      9761        84  OSM       H10F            2.9213488946       18.6997206157       -5.1401710538  MEMB      84              0.0000000000
      9762        84  OSM       C11F            3.1789154014       20.8560913801       -4.7353945834  MEMB      84              0.0000000000
      9763        84  OSM       H11F            2.3195351804       21.0049269400       -4.0481677225  MEMB      84              0.0000000000
      9764        84  OSM       H11G            3.2768629443       21.8083455121       -5.3063699596  MEMB      84              0.0000000000
      9765        84  OSM       C12F            4.4661074441       20.7376177162       -3.8885490561  MEMB      84              0.0000000000
      9766        84  OSM       H12F            4.4741898930       21.6105397905       -3.1944805391  MEMB      84              0.0000000000
      9767        84  OSM       H12G            5.3440852797       20.8525071580       -4.5641066103  MEMB      84              0.0000000000
      9768        84  OSM       C13F            4.6809059843       19.4556194903       -3.0474803301  MEMB      84              0.0000000000
      9769        84  OSM       H13F            5.3228982751       19.7325497008       -2.1807966211  MEMB      84              0.0000000000
      9770        84  OSM       H13G            5.2742324321       18.7266316633       -3.6400259677  MEMB      84              0.0000000000
      9771        84  OSM       C14F            3.4062973531       18.7600313684       -2.5364127359  MEMB      84              0.0000000000
      9772        84  OSM       H14F            3.1188313893       17.9432837270       -3.2318139765  MEMB      84              0.0000000000
      9773        84  OSM       H14G            2.5667300157       19.4878602853       -2.5467844584  MEMB      84              0.0000000000
      9774        84  OSM       C15F            3.4818298615       18.1945702399       -1.1076315633  MEMB      84              0.0000000000
      9775        84  OSM       H15F            2.5159051871       17.6975606926       -0.8848110136  MEMB      84              0.0000000000
      9776        84  OSM       H15G            3.5816295637       19.0363147515       -0.3973621806  MEMB      84              0.0000000000
      9777        84  OSM       C16F            4.6080999752       17.2049782462       -0.7917379995  MEMB      84              0.0000000000
      9778        84  OSM       H16F            5.4155388210       17.2786879182       -1.5509539316  MEMB      84              0.0000000000
      9779        84  OSM       H16G            4.1854347538       16.1780606868       -0.8242833767  MEMB      84              0.0000000000
      9780        84  OSM       C17F            5.2329825419       17.4595113910        0.5825204865  MEMB      84              0.0000000000
      9781        84  OSM       H17F            5.6895920637       16.5202300051        0.9701638412  MEMB      84              0.0000000000
      9782        84  OSM       H17G            4.4485061383       17.7735177825        1.3040695406  MEMB      84              0.0000000000
      9783        84  OSM       C18F            6.2879165061       18.5515750363        0.5083346268  MEMB      84              0.0000000000
      9784        84  OSM       H18F            7.0481148784       18.2908238416       -0.2591309130  MEMB      84              0.0000000000
      9785        84  OSM       H18G            6.7929352801       18.6718912926        1.4813767964  MEMB      84              0.0000000000
      9786        84  OSM       H18H            5.8148045763       19.5188821619        0.2345500938  MEMB      84              0.0000000000
      9787        85  SAPS      N              25.0893354923        5.2401439522      -22.5438496627  MEMB      85              0.0000000000
      9788        85  SAPS      HN1            25.8981122734        5.7981142364      -22.8750321004  MEMB      85              0.0000000000
      9789        85  SAPS      HN2            24.4763605760        5.0277884724      -23.3517852107  MEMB      85              0.0000000000
      9790        85  SAPS      HN3            24.6009322499        5.7877636751      -21.7946086587  MEMB      85              0.0000000000
      9791        85  SAPS      C12            25.6048106035        4.0376718230      -21.8100712885  MEMB      85              0.0000000000
      9792        85  SAPS      H12A           24.8183618016        3.2958506590      -21.7508858795  MEMB      85              0.0000000000
      9793        85  SAPS      C13            26.8375245065        3.3975916859      -22.4845464868  MEMB      85              0.0000000000
      9794        85  SAPS      O13A           27.2407396717        3.9735685443      -23.5312675962  MEMB      85              0.0000000000
      9795        85  SAPS      O13B           27.6299354325        2.6793153467      -21.8148147095  MEMB      85              0.0000000000
      9796        85  SAPS      C11            25.9077027717        4.5487433943      -20.3941171142  MEMB      85              0.0000000000
      9797        85  SAPS      H11A           26.8161622452        5.1649137211      -20.3356864094  MEMB      85              0.0000000000
      9798        85  SAPS      H11B           26.0925458967        3.6894818201      -19.6957063561  MEMB      85              0.0000000000
      9799        85  SAPS      P              23.7357660052        4.8311499893      -19.0921124826  MEMB      85              0.0000000000
      9800        85  SAPS      O13            23.0502546953        3.7639071160      -19.8490139963  MEMB      85              0.0000000000
      9801        85  SAPS      O14            24.4941518089        4.4653143316      -17.8803050867  MEMB      85              0.0000000000
      9802        85  SAPS      O12            24.8318999087        5.4202628346      -20.0282565773  MEMB      85              0.0000000000
      9803        85  SAPS      O11            22.7840729889        6.0354253467      -18.8477513622  MEMB      85              0.0000000000
      9804        85  SAPS      C1             22.4873285963        7.3169455628      -19.3714888185  MEMB      85              0.0000000000
      9805        85  SAPS      HA             23.2974008923        7.6512198845      -20.0567932272  MEMB      85              0.0000000000
      9806        85  SAPS      HB             21.5630169540        7.2893184611      -19.9824492939  MEMB      85              0.0000000000
      9807        85  SAPS      C2             22.2763724054        8.3986244919      -18.2422908970  MEMB      85              0.0000000000
      9808        85  SAPS      HS             22.3790863031        9.3969724470      -18.7278312303  MEMB      85              0.0000000000
      9809        85  SAPS      O21            23.3130479324        8.2318363895      -17.2545911193  MEMB      85              0.0000000000
      9810        85  SAPS      C21            24.5639161718        8.3802812998      -17.7009067503  MEMB      85              0.0000000000
      9811        85  SAPS      O22            24.9115307988        8.8223755279      -18.7821745825  MEMB      85              0.0000000000
      9812        85  SAPS      C22            25.4988194333        8.1634914654      -16.5243783632  MEMB      85              0.0000000000
      9813        85  SAPS      H2R            25.3499885177        7.1398540447      -16.1168107195  MEMB      85              0.0000000000
      9814        85  SAPS      H2S            26.5386456796        8.2662147891      -16.8997765154  MEMB      85              0.0000000000
      9815        85  SAPS      C3             20.8382919574        8.4610128264      -17.4696948704  MEMB      85              0.0000000000
      9816        85  SAPS      HX             20.1309487330        8.8415416652      -18.2380319039  MEMB      85              0.0000000000
      9817        85  SAPS      HY             20.9823290767        9.2665180676      -16.7346736252  MEMB      85              0.0000000000
      9818        85  SAPS      O31            20.2162772387        7.3125154442      -16.8061561607  MEMB      85              0.0000000000
      9819        85  SAPS      C31            19.4593131289        7.3855722421      -15.6730371511  MEMB      85              0.0000000000
      9820        85  SAPS      O32            19.2366807347        8.4351678528      -15.1068040632  MEMB      85              0.0000000000
      9821        85  SAPS      C32            18.7650540991        6.0319115735      -15.1614096164  MEMB      85              0.0000000000
      9822        85  SAPS      H2X            18.2288287848        5.4929630680      -15.9302587828  MEMB      85              0.0000000000
      9823        85  SAPS      H2Y            17.9428372220        6.5284375781      -14.5853750046  MEMB      85              0.0000000000
      9824        85  SAPS      C23            25.1883589831        9.2565558432      -15.4767667369  MEMB      85              0.0000000000
      9825        85  SAPS      H3R            24.2396909080        9.0289439517      -14.9423813519  MEMB      85              0.0000000000
      9826        85  SAPS      H3S            25.0390744523       10.2319667468      -16.0007743667  MEMB      85              0.0000000000
      9827        85  SAPS      C24            26.3181490762        9.4696451877      -14.4729745200  MEMB      85              0.0000000000
      9828        85  SAPS      H4R            26.1277055032       10.4273381513      -13.9339538281  MEMB      85              0.0000000000
      9829        85  SAPS      H4S            27.2592197687        9.6045974051      -15.0460249146  MEMB      85              0.0000000000
      9830        85  SAPS      C25            26.4698699061        8.3220524206      -13.5162344021  MEMB      85              0.0000000000
      9831        85  SAPS      H5R            26.9528084006        7.4235378584      -13.9327877370  MEMB      85              0.0000000000
      9832        85  SAPS      C26            26.0307107138        8.2914721573      -12.2480430465  MEMB      85              0.0000000000
      9833        85  SAPS      H6R            26.2689229340        7.4070940362      -11.6406237107  MEMB      85              0.0000000000
      9834        85  SAPS      C27            25.2924723310        9.3836518945      -11.5139365805  MEMB      85              0.0000000000
      9835        85  SAPS      H7R            24.8391673453       10.1160227031      -12.2194473155  MEMB      85              0.0000000000
      9836        85  SAPS      H7S            25.9947295314        9.9538173881      -10.8685337383  MEMB      85              0.0000000000
      9837        85  SAPS      C28            24.1844828061        8.7398106766      -10.7234854762  MEMB      85              0.0000000000
      9838        85  SAPS      H8R            23.5452355718        8.0789276055      -11.3258650522  MEMB      85              0.0000000000
      9839        85  SAPS      C29            23.9232013639        8.8328018961       -9.4074810573  MEMB      85              0.0000000000
      9840        85  SAPS      H9R            23.0508980942        8.2948938447       -9.0107629514  MEMB      85              0.0000000000
      9841        85  SAPS      C210           24.6625083029        9.6062247506       -8.3526579535  MEMB      85              0.0000000000
      9842        85  SAPS      H10R           23.9467747982       10.2714263930       -7.8171836681  MEMB      85              0.0000000000
      9843        85  SAPS      H10S           25.4469594671       10.2651836688       -8.7835711433  MEMB      85              0.0000000000
      9844        85  SAPS      C211           25.2848545864        8.5842779011       -7.4353745060  MEMB      85              0.0000000000
      9845        85  SAPS      H11R           26.0208068952        7.9193366070       -7.9165767221  MEMB      85              0.0000000000
      9846        85  SAPS      C212           25.0330442721        8.4208452519       -6.1236375618  MEMB      85              0.0000000000
      9847        85  SAPS      H12R           25.5818402723        7.6359903426       -5.5820544646  MEMB      85              0.0000000000
      9848        85  SAPS      C213           24.0765015742        9.2221546461       -5.2745662749  MEMB      85              0.0000000000
      9849        85  SAPS      H13R           23.7901378149        8.6076338743       -4.3902125959  MEMB      85              0.0000000000
      9850        85  SAPS      H13S           23.1229568595        9.4124678160       -5.8157575282  MEMB      85              0.0000000000
      9851        85  SAPS      C214           24.6899461425       10.5374647542       -4.8481104218  MEMB      85              0.0000000000
      9852        85  SAPS      H14R           24.6114561908       11.3588621991       -5.5769101115  MEMB      85              0.0000000000
      9853        85  SAPS      C215           25.3402155434       10.7415355586       -3.6883669699  MEMB      85              0.0000000000
      9854        85  SAPS      H15R           25.8046682651       11.7174329326       -3.4756260605  MEMB      85              0.0000000000
      9855        85  SAPS      C216           25.5333089083        9.6577906719       -2.6655736020  MEMB      85              0.0000000000
      9856        85  SAPS      H16R           25.9585850014        8.7507241708       -3.1603332263  MEMB      85              0.0000000000
      9857        85  SAPS      H16S           24.5536303425        9.3602738477       -2.2287355245  MEMB      85              0.0000000000
      9858        85  SAPS      C217           26.4870121971        9.9933945673       -1.5142005662  MEMB      85              0.0000000000
      9859        85  SAPS      H17R           27.4687772260       10.3586344178       -1.8793523673  MEMB      85              0.0000000000
      9860        85  SAPS      H17S           26.6793687789        9.0363064254       -0.9831137160  MEMB      85              0.0000000000
      9861        85  SAPS      C218           25.9657682406       10.9641402444       -0.4550904127  MEMB      85              0.0000000000
      9862        85  SAPS      H18R           24.8892929371       10.7840864994       -0.2392912334  MEMB      85              0.0000000000
      9863        85  SAPS      H18S           26.0767320958       12.0047150387       -0.8282565390  MEMB      85              0.0000000000
      9864        85  SAPS      C219           26.8003590849       10.7506966864        0.8126778476  MEMB      85              0.0000000000
      9865        85  SAPS      H19R           27.8407176078       10.5074660658        0.4909346161  MEMB      85              0.0000000000
      9866        85  SAPS      H19S           26.3989412073        9.8667467016        1.3572270298  MEMB      85              0.0000000000
      9867        85  SAPS      C220           26.8809558719       11.9356398135        1.7562918971  MEMB      85              0.0000000000
      9868        85  SAPS      H20R           25.9199516442       12.1039771402        2.2833085526  MEMB      85              0.0000000000
      9869        85  SAPS      H20S           27.1395482222       12.8474144219        1.1786082283  MEMB      85              0.0000000000
      9870        85  SAPS      H20T           27.6654623466       11.7632002391        2.5227074906  MEMB      85              0.0000000000
      9871        85  SAPS      C33            19.2815084433        5.0209978867      -14.0445577611  MEMB      85              0.0000000000
      9872        85  SAPS      H3X            18.3766712623        4.7387351717      -13.4647314628  MEMB      85              0.0000000000
      9873        85  SAPS      H3Y            19.8523964530        5.6258494198      -13.3691872543  MEMB      85              0.0000000000
      9874        85  SAPS      C34            20.0229848309        3.6495711014      -14.2490400884  MEMB      85              0.0000000000
      9875        85  SAPS      H4X            20.8459947099        3.6078490120      -14.9623977036  MEMB      85              0.0000000000
      9876        85  SAPS      H4Y            19.2590805402        2.9270516676      -14.6133826601  MEMB      85              0.0000000000
      9877        85  SAPS      C35            20.6810376639        3.1110638591      -12.9531309421  MEMB      85              0.0000000000
      9878        85  SAPS      H5X            20.3912503975        2.0481496696      -12.8498145144  MEMB      85              0.0000000000
      9879        85  SAPS      H5Y            20.0814640149        3.6921001377      -12.2187477210  MEMB      85              0.0000000000
      9880        85  SAPS      C36            22.1873438254        3.2786657645      -12.4674494475  MEMB      85              0.0000000000
      9881        85  SAPS      H6X            22.2862412564        2.7760150713      -11.4781679733  MEMB      85              0.0000000000
      9882        85  SAPS      H6Y            22.3799809625        4.3462825943      -12.2806741696  MEMB      85              0.0000000000
      9883        85  SAPS      C37            23.4595585766        2.9342035118      -13.2841399988  MEMB      85              0.0000000000
      9884        85  SAPS      H7X            23.3264565725        3.2608975821      -14.3353846262  MEMB      85              0.0000000000
      9885        85  SAPS      H7Y            23.6794173920        1.8521215870      -13.2985683489  MEMB      85              0.0000000000
      9886        85  SAPS      C38            24.7268361178        3.6422264466      -12.7233471189  MEMB      85              0.0000000000
      9887        85  SAPS      H8X            24.4659966442        4.6604924108      -12.3633265441  MEMB      85              0.0000000000
      9888        85  SAPS      H8Y            25.4624982110        3.7765539539      -13.5505463396  MEMB      85              0.0000000000
      9889        85  SAPS      C39            25.4198318439        2.8329583363      -11.6128984101  MEMB      85              0.0000000000
      9890        85  SAPS      H9X            25.8128426369        1.8951805892      -12.0730070803  MEMB      85              0.0000000000
      9891        85  SAPS      H9Y            24.6675753163        2.5362414154      -10.8489290308  MEMB      85              0.0000000000
      9892        85  SAPS      C310           26.5858538686        3.5508394749      -10.9046878065  MEMB      85              0.0000000000
      9893        85  SAPS      H10X           27.3680861174        3.8383917715      -11.6431675021  MEMB      85              0.0000000000
      9894        85  SAPS      H10Y           27.0404680988        2.8193402879      -10.2030690876  MEMB      85              0.0000000000
      9895        85  SAPS      C311           26.1735399568        4.7830812176      -10.0870043442  MEMB      85              0.0000000000
      9896        85  SAPS      H11X           25.1783780665        4.6030501079       -9.6241733515  MEMB      85              0.0000000000
      9897        85  SAPS      H11Y           26.0582788927        5.6317508899      -10.7897577314  MEMB      85              0.0000000000
      9898        85  SAPS      C312           27.1763391947        5.1569116169       -8.9763569299  MEMB      85              0.0000000000
      9899        85  SAPS      H12X           27.4053977146        6.2443453138       -9.0437225002  MEMB      85              0.0000000000
      9900        85  SAPS      H12Y           28.1337468544        4.6130802354       -9.1296143659  MEMB      85              0.0000000000
      9901        85  SAPS      C313           26.6324299245        4.8515667504       -7.5689804192  MEMB      85              0.0000000000
      9902        85  SAPS      H13X           26.3218995375        3.7839584197       -7.5329367858  MEMB      85              0.0000000000
      9903        85  SAPS      H13Y           25.7220867229        5.4699584622       -7.4065004242  MEMB      85              0.0000000000
      9904        85  SAPS      C314           27.6301538501        5.1285968166       -6.4279112291  MEMB      85              0.0000000000
      9905        85  SAPS      H14X           28.0777772581        6.1305338876       -6.5742126659  MEMB      85              0.0000000000
      9906        85  SAPS      H14Y           28.4629412741        4.3942103758       -6.4842722272  MEMB      85              0.0000000000
      9907        85  SAPS      C315           26.9747817094        5.0623112536       -5.0351545905  MEMB      85              0.0000000000
      9908        85  SAPS      H15X           25.9707388025        4.5911719721       -5.1586263721  MEMB      85              0.0000000000
      9909        85  SAPS      H15Y           26.8120859232        6.0852479833       -4.6321447621  MEMB      85              0.0000000000
      9910        85  SAPS      C316           27.7365329682        4.2195409841       -3.9990598385  MEMB      85              0.0000000000
      9911        85  SAPS      H16X           28.0589959575        3.2576083238       -4.4384228489  MEMB      85              0.0000000000
      9912        85  SAPS      H16Y           27.0297507457        3.9780060931       -3.1720085589  MEMB      85              0.0000000000
      9913        85  SAPS      C317           28.9665950035        4.8736390604       -3.3745901552  MEMB      85              0.0000000000
      9914        85  SAPS      H17X           28.6715159772        5.8634214074       -2.9674968848  MEMB      85              0.0000000000
      9915        85  SAPS      H17Y           29.7380949143        5.0432643583       -4.1571438241  MEMB      85              0.0000000000
      9916        85  SAPS      C318           29.5448065901        4.0266720090       -2.2385429910  MEMB      85              0.0000000000
      9917        85  SAPS      H18X           29.9023704519        3.0449187625       -2.6149934040  MEMB      85              0.0000000000
      9918        85  SAPS      H18Y           28.7740352576        3.8455345004       -1.4604755953  MEMB      85              0.0000000000
      9919        85  SAPS      H18Z           30.3890865472        4.5505293169       -1.7528407391  MEMB      85              0.0000000000
      9920        86  CHL1      C3            -22.8810017492       13.4159570882      -17.4771892857  MEMB      86              0.0000000000
      9921        86  CHL1      H3            -21.8512123171       13.4826348124      -17.0526019018  MEMB      86              0.0000000000
      9922        86  CHL1      O3            -22.7589127473       13.0624899366      -18.8470223161  MEMB      86              0.0000000000
      9923        86  CHL1      H3'           -23.2845975281       12.2594152629      -18.9626994039  MEMB      86              0.0000000000
      9924        86  CHL1      C4            -23.6905405908       12.3475543572      -16.7263265338  MEMB      86              0.0000000000
      9925        86  CHL1      H4A           -24.7360313103       12.3489276578      -17.1018269615  MEMB      86              0.0000000000
      9926        86  CHL1      H4B           -23.2520694495       11.3492615996      -16.9510498839  MEMB      86              0.0000000000
      9927        86  CHL1      C5            -23.6632430185       12.6626890892      -15.2454341692  MEMB      86              0.0000000000
      9928        86  CHL1      C6            -23.1632293440       11.7751927720      -14.3775196091  MEMB      86              0.0000000000
      9929        86  CHL1      H6            -22.8529259126       10.7970139825      -14.7481449889  MEMB      86              0.0000000000
      9930        86  CHL1      C7            -23.0127549902       11.9712808005      -12.9039362915  MEMB      86              0.0000000000
      9931        86  CHL1      H7A           -23.4093462801       11.0910949441      -12.3507576031  MEMB      86              0.0000000000
      9932        86  CHL1      H7B           -21.9314233297       12.0578601389      -12.6598494667  MEMB      86              0.0000000000
      9933        86  CHL1      C8            -23.7535063020       13.2389298387      -12.4349919746  MEMB      86              0.0000000000
      9934        86  CHL1      H8            -24.8260370363       12.9488591673      -12.4064276400  MEMB      86              0.0000000000
      9935        86  CHL1      C14           -23.2619587661       13.6415071214      -11.0530795038  MEMB      86              0.0000000000
      9936        86  CHL1      H14           -22.1780495528       13.8946285256      -11.1563663998  MEMB      86              0.0000000000
      9937        86  CHL1      C15           -23.3408217734       12.5785458772       -9.9417815802  MEMB      86              0.0000000000
      9938        86  CHL1      H15A          -24.3076863180       12.0358206058      -10.0167405314  MEMB      86              0.0000000000
      9939        86  CHL1      H15B          -22.5204316054       11.8396450566      -10.0203080537  MEMB      86              0.0000000000
      9940        86  CHL1      C16           -23.3033921677       13.3865146299       -8.6352357807  MEMB      86              0.0000000000
      9941        86  CHL1      H16A          -24.1367914014       13.0439034096       -7.9841054759  MEMB      86              0.0000000000
      9942        86  CHL1      H16B          -22.3420540381       13.2528342518       -8.0968220399  MEMB      86              0.0000000000
      9943        86  CHL1      C17           -23.4722810079       14.8929873487       -9.0207030384  MEMB      86              0.0000000000
      9944        86  CHL1      H17           -22.4599729661       15.3293605083       -9.0114637090  MEMB      86              0.0000000000
      9945        86  CHL1      C13           -23.9505603710       14.8748295016      -10.5002400881  MEMB      86              0.0000000000
      9946        86  CHL1      C18           -25.4554520344       14.6219508379      -10.5041361213  MEMB      86              0.0000000000
      9947        86  CHL1      H18A          -25.8762408629       14.3438503541      -11.4865497089  MEMB      86              0.0000000000
      9948        86  CHL1      H18B          -25.7449401491       13.8408658289       -9.7713962939  MEMB      86              0.0000000000
      9949        86  CHL1      H18C          -25.9231987659       15.5921980339      -10.2560466926  MEMB      86              0.0000000000
      9950        86  CHL1      C12           -23.6486838697       16.0778943506      -11.4144204622  MEMB      86              0.0000000000
      9951        86  CHL1      H12A          -24.1917819631       16.9887775361      -11.1024731208  MEMB      86              0.0000000000
      9952        86  CHL1      H12B          -22.5766346256       16.3217308306      -11.3834153516  MEMB      86              0.0000000000
      9953        86  CHL1      C11           -24.0813300689       15.7816748605      -12.8654789767  MEMB      86              0.0000000000
      9954        86  CHL1      H11A          -25.1879364082       15.8196237434      -12.8951217859  MEMB      86              0.0000000000
      9955        86  CHL1      H11B          -23.7186199386       16.6052536798      -13.5154735293  MEMB      86              0.0000000000
      9956        86  CHL1      C9            -23.5770019549       14.4124743297      -13.4139244031  MEMB      86              0.0000000000
      9957        86  CHL1      H9            -22.4691115508       14.5415013353      -13.5048027883  MEMB      86              0.0000000000
      9958        86  CHL1      C10           -24.0903947205       14.0865783413      -14.8423386246  MEMB      86              0.0000000000
      9959        86  CHL1      C19           -25.6424287096       14.0965256909      -14.8719858917  MEMB      86              0.0000000000
      9960        86  CHL1      H19A          -26.0732193350       13.3544761267      -14.1698978766  MEMB      86              0.0000000000
      9961        86  CHL1      H19B          -26.0359377570       15.1033978174      -14.6225501644  MEMB      86              0.0000000000
      9962        86  CHL1      H19C          -26.0138484249       13.8759369528      -15.8936924190  MEMB      86              0.0000000000
      9963        86  CHL1      C1            -23.5538469826       15.1744238453      -15.8245757245  MEMB      86              0.0000000000
      9964        86  CHL1      H1A           -24.1514823698       16.1051499237      -15.6937896087  MEMB      86              0.0000000000
      9965        86  CHL1      H1B           -22.5009923245       15.4106169869      -15.5479959327  MEMB      86              0.0000000000
      9966        86  CHL1      C2            -23.5646793439       14.7791365065      -17.3121404378  MEMB      86              0.0000000000
      9967        86  CHL1      H2A           -23.0272691020       15.5538574137      -17.9014037160  MEMB      86              0.0000000000
      9968        86  CHL1      H2B           -24.6139903396       14.7291446695      -17.6776499674  MEMB      86              0.0000000000
      9969        86  CHL1      C20           -24.2776005824       15.6892665377       -7.9793825305  MEMB      86              0.0000000000
      9970        86  CHL1      H20           -25.3026277736       15.2874662931       -7.9911062087  MEMB      86              0.0000000000
      9971        86  CHL1      C21           -24.2872080435       17.1946089802       -8.3243993608  MEMB      86              0.0000000000
      9972        86  CHL1      H21A          -24.8036382705       17.7821910129       -7.5384313298  MEMB      86              0.0000000000
      9973        86  CHL1      H21B          -24.8319030956       17.3905537771       -9.2642472945  MEMB      86              0.0000000000
      9974        86  CHL1      H21C          -23.2486268664       17.5757680842       -8.4142173390  MEMB      86              0.0000000000
      9975        86  CHL1      C22           -23.8479619636       15.4942523503       -6.5023446477  MEMB      86              0.0000000000
      9976        86  CHL1      H22A          -23.6522744303       14.4217869862       -6.2955028303  MEMB      86              0.0000000000
      9977        86  CHL1      H22B          -22.9177789864       16.0651164691       -6.3162198398  MEMB      86              0.0000000000
      9978        86  CHL1      C23           -24.9550285760       15.9352975497       -5.5211522023  MEMB      86              0.0000000000
      9979        86  CHL1      H23A          -25.0633020680       17.0414597168       -5.5371786230  MEMB      86              0.0000000000
      9980        86  CHL1      H23B          -25.9147591770       15.4946111340       -5.8711145277  MEMB      86              0.0000000000
      9981        86  CHL1      C24           -24.7501554460       15.4541419734       -4.0774453009  MEMB      86              0.0000000000
      9982        86  CHL1      H24A          -24.6326110361       14.3489991052       -4.0873647807  MEMB      86              0.0000000000
      9983        86  CHL1      H24B          -23.8249721625       15.8971822526       -3.6685520945  MEMB      86              0.0000000000
      9984        86  CHL1      C25           -25.9055981469       15.8379641065       -3.1290290051  MEMB      86              0.0000000000
      9985        86  CHL1      H25           -26.8611619468       15.7377817362       -3.6981202156  MEMB      86              0.0000000000
      9986        86  CHL1      C26           -25.9838792741       14.8908342010       -1.9252221311  MEMB      86              0.0000000000
      9987        86  CHL1      H26A          -26.0684589685       13.8395627612       -2.2723584919  MEMB      86              0.0000000000
      9988        86  CHL1      H26B          -25.0737565912       14.9893975672       -1.2965131285  MEMB      86              0.0000000000
      9989        86  CHL1      H26C          -26.8752788546       15.1321787204       -1.3065857036  MEMB      86              0.0000000000
      9990        86  CHL1      C27           -25.7567903020       17.2892550424       -2.6475376164  MEMB      86              0.0000000000
      9991        86  CHL1      H27A          -24.7790116488       17.4359570329       -2.1429878360  MEMB      86              0.0000000000
      9992        86  CHL1      H27B          -25.7981381810       17.9814747058       -3.5108021657  MEMB      86              0.0000000000
      9993        86  CHL1      H27C          -26.5622329987       17.5652389173       -1.9362892999  MEMB      86              0.0000000000
      9994        87  SAPE      N              15.0437334615       18.0483928009      -19.2993168225  MEMB      87              0.0000000000
      9995        87  SAPE      HN1            15.8056199412       17.3852484443      -19.0343150564  MEMB      87              0.0000000000
      9996        87  SAPE      HN2            14.1521893030       17.5115786821      -19.1828421915  MEMB      87              0.0000000000
      9997        87  SAPE      HN3            15.1983442642       18.2806618668      -20.3028538104  MEMB      87              0.0000000000
      9998        87  SAPE      C12            15.1193505700       19.3258812205      -18.4819018193  MEMB      87              0.0000000000
      9999        87  SAPE      H12A           15.3396492972       19.0434236440      -17.4313153452  MEMB      87              0.0000000000
     10000        87  SAPE      H12B           14.1257796521       19.8148854716      -18.5230343812  MEMB      87              0.0000000000
     10001        87  SAPE      C11            16.2173094968       20.3037554490      -18.9817471214  MEMB      87              0.0000000000
     10002        87  SAPE      H11A           17.2024521088       19.8111890420      -18.8178186613  MEMB      87              0.0000000000
     10003        87  SAPE      H11B           16.2092694769       21.2151448793      -18.3389937639  MEMB      87              0.0000000000
     10004        87  SAPE      P              17.1789114959       20.9322637659      -21.3924292794  MEMB      87              0.0000000000
     10005        87  SAPE      O13            16.7169056798       20.3112909642      -22.6516160235  MEMB      87              0.0000000000
     10006        87  SAPE      O14            17.4374020854       22.3716501856      -21.4226793870  MEMB      87              0.0000000000
     10007        87  SAPE      O12            16.0098559942       20.6956642662      -20.3359553807  MEMB      87              0.0000000000
     10008        87  SAPE      O11            18.3804546962       20.0970220088      -20.8091018560  MEMB      87              0.0000000000
     10009        87  SAPE      C1             19.7363168768       20.5099816137      -20.8805075803  MEMB      87              0.0000000000
     10010        87  SAPE      HA             20.3216326361       19.7436443357      -21.4305233516  MEMB      87              0.0000000000
     10011        87  SAPE      HB             19.8577435951       21.4691073127      -21.4327542913  MEMB      87              0.0000000000
     10012        87  SAPE      C2             20.3364567337       20.7202983617      -19.4656376507  MEMB      87              0.0000000000
     10013        87  SAPE      HS             21.4012644197       21.0088614916      -19.5923616446  MEMB      87              0.0000000000
     10014        87  SAPE      O21            20.2890807753       19.5860613900      -18.6060180969  MEMB      87              0.0000000000
     10015        87  SAPE      C21            20.1191312592       18.3655310596      -19.0144539848  MEMB      87              0.0000000000
     10016        87  SAPE      O22            20.5172659464       17.8312064710      -20.0303514193  MEMB      87              0.0000000000
     10017        87  SAPE      C22            19.3706256956       17.6792801091      -17.8952049929  MEMB      87              0.0000000000
     10018        87  SAPE      H2R            20.0107477719       16.8905813454      -17.4896065367  MEMB      87              0.0000000000
     10019        87  SAPE      H2S            19.1611524686       18.4130667201      -17.0819407382  MEMB      87              0.0000000000
     10020        87  SAPE      C3             19.6179026887       21.8792999637      -18.7182094318  MEMB      87              0.0000000000
     10021        87  SAPE      HX             18.6081149210       21.5331177305      -18.3948522683  MEMB      87              0.0000000000
     10022        87  SAPE      HY             19.4225261721       22.7075275134      -19.4279196625  MEMB      87              0.0000000000
     10023        87  SAPE      O31            20.4538429202       22.3579555519      -17.6426908056  MEMB      87              0.0000000000
     10024        87  SAPE      C31            20.1455488161       21.8612785735      -16.4420215674  MEMB      87              0.0000000000
     10025        87  SAPE      O32            19.0938185956       21.3326861863      -16.1363342085  MEMB      87              0.0000000000
     10026        87  SAPE      C32            21.4532222275       21.7300097528      -15.6385354714  MEMB      87              0.0000000000
     10027        87  SAPE      H2X            22.3057809553       22.0507585881      -16.2617321061  MEMB      87              0.0000000000
     10028        87  SAPE      H2Y            21.5447074867       20.6309394441      -15.5530215554  MEMB      87              0.0000000000
     10029        87  SAPE      C23            18.0454685425       17.0679836323      -18.3478475595  MEMB      87              0.0000000000
     10030        87  SAPE      H3R            18.2413937767       16.1195565298      -18.8917368411  MEMB      87              0.0000000000
     10031        87  SAPE      H3S            17.5635603045       17.7738028920      -19.0539129030  MEMB      87              0.0000000000
     10032        87  SAPE      C24            17.1382921675       16.8234525751      -17.1413072738  MEMB      87              0.0000000000
     10033        87  SAPE      H4R            16.1176959646       16.5721554503      -17.4864910760  MEMB      87              0.0000000000
     10034        87  SAPE      H4S            17.0865807239       17.7624302032      -16.5394234993  MEMB      87              0.0000000000
     10035        87  SAPE      C25            17.6112108301       15.6525905702      -16.3305028809  MEMB      87              0.0000000000
     10036        87  SAPE      H5R            17.4761616899       14.6755832032      -16.8258929929  MEMB      87              0.0000000000
     10037        87  SAPE      C26            18.1024939299       15.6911789960      -15.0803475998  MEMB      87              0.0000000000
     10038        87  SAPE      H6R            18.3823950094       14.7388304922      -14.6075413621  MEMB      87              0.0000000000
     10039        87  SAPE      C27            18.2991104815       16.8962114645      -14.1928182764  MEMB      87              0.0000000000
     10040        87  SAPE      H7R            18.7994113966       17.7285715621      -14.7412256922  MEMB      87              0.0000000000
     10041        87  SAPE      H7S            18.9909928666       16.6021071595      -13.3745030268  MEMB      87              0.0000000000
     10042        87  SAPE      C28            17.0493477190       17.4058052874      -13.5282464552  MEMB      87              0.0000000000
     10043        87  SAPE      H8R            16.1582221352       16.7711690214      -13.5975379479  MEMB      87              0.0000000000
     10044        87  SAPE      C29            16.9792176426       18.4986256119      -12.7586192977  MEMB      87              0.0000000000
     10045        87  SAPE      H9R            16.0147239167       18.7706441205      -12.3068950434  MEMB      87              0.0000000000
     10046        87  SAPE      C210           18.1215727980       19.4114853181      -12.4165503532  MEMB      87              0.0000000000
     10047        87  SAPE      H10R           18.1305956253       20.2502997005      -13.1459443231  MEMB      87              0.0000000000
     10048        87  SAPE      H10S           19.1087048612       18.9024525621      -12.5234231236  MEMB      87              0.0000000000
     10049        87  SAPE      C211           17.9558763339       19.9513499634      -11.0188368590  MEMB      87              0.0000000000
     10050        87  SAPE      H11R           17.6197201710       20.9968765486      -10.9814779568  MEMB      87              0.0000000000
     10051        87  SAPE      C212           18.2244085471       19.3097736745       -9.8621774130  MEMB      87              0.0000000000
     10052        87  SAPE      H12R           18.0838839513       19.8549343279       -8.9165776328  MEMB      87              0.0000000000
     10053        87  SAPE      C213           18.7560704841       17.9018748611       -9.7169627845  MEMB      87              0.0000000000
     10054        87  SAPE      H13R           19.0340257586       17.4950005105      -10.7144884960  MEMB      87              0.0000000000
     10055        87  SAPE      H13S           17.9715546807       17.2125196941       -9.3563064562  MEMB      87              0.0000000000
     10056        87  SAPE      C214           19.9401122470       17.7775526054       -8.7948601591  MEMB      87              0.0000000000
     10057        87  SAPE      H14R           20.8898374796       17.7770184172       -9.3407119932  MEMB      87              0.0000000000
     10058        87  SAPE      C215           19.9966034583       17.7654002043       -7.4499226575  MEMB      87              0.0000000000
     10059        87  SAPE      H15R           20.9704650668       17.5924169574       -6.9806313981  MEMB      87              0.0000000000
     10060        87  SAPE      C216           18.8783426656       17.8763835899       -6.4524551495  MEMB      87              0.0000000000
     10061        87  SAPE      H16R           17.8963419195       17.7317511380       -6.9402660740  MEMB      87              0.0000000000
     10062        87  SAPE      H16S           18.8942990514       18.9048336435       -6.0309964333  MEMB      87              0.0000000000
     10063        87  SAPE      C217           19.0026816654       16.8656834938       -5.2953311967  MEMB      87              0.0000000000
     10064        87  SAPE      H17R           20.0539828915       16.7841569045       -4.9447774287  MEMB      87              0.0000000000
     10065        87  SAPE      H17S           18.7183093319       15.8577190201       -5.6760161052  MEMB      87              0.0000000000
     10066        87  SAPE      C218           18.1161409695       17.1967646580       -4.0760979973  MEMB      87              0.0000000000
     10067        87  SAPE      H18R           18.3208813791       16.4407091523       -3.2856283820  MEMB      87              0.0000000000
     10068        87  SAPE      H18S           17.0617434365       17.0703269869       -4.3878384114  MEMB      87              0.0000000000
     10069        87  SAPE      C219           18.2813700731       18.6055181964       -3.4695790128  MEMB      87              0.0000000000
     10070        87  SAPE      H19R           17.5621427166       19.3020667949       -3.9582209070  MEMB      87              0.0000000000
     10071        87  SAPE      H19S           19.2889482876       18.9941673170       -3.7119490686  MEMB      87              0.0000000000
     10072        87  SAPE      C220           18.1138362195       18.6725318514       -1.9447743033  MEMB      87              0.0000000000
     10073        87  SAPE      H20R           18.4834556447       19.6489499275       -1.5619716969  MEMB      87              0.0000000000
     10074        87  SAPE      H20S           18.6953656933       17.8635709700       -1.4520815191  MEMB      87              0.0000000000
     10075        87  SAPE      H20T           17.0527099047       18.5696091573       -1.6431044016  MEMB      87              0.0000000000
     10076        87  SAPE      C33            21.5366472697       22.3979755492      -14.2227612426  MEMB      87              0.0000000000
     10077        87  SAPE      H3X            21.8223114993       23.4559817633      -14.2946436344  MEMB      87              0.0000000000
     10078        87  SAPE      H3Y            22.3770460836       21.9345822743      -13.6739667907  MEMB      87              0.0000000000
     10079        87  SAPE      C34            20.2731818490       22.2622950186      -13.3529709858  MEMB      87              0.0000000000
     10080        87  SAPE      H4X            19.9233808682       21.2098219592      -13.4356797528  MEMB      87              0.0000000000
     10081        87  SAPE      H4Y            19.4751435427       22.9017784711      -13.7927134150  MEMB      87              0.0000000000
     10082        87  SAPE      C35            20.4316782121       22.5526331808      -11.8361481735  MEMB      87              0.0000000000
     10083        87  SAPE      H5X            19.3959254464       22.5516399595      -11.4239505117  MEMB      87              0.0000000000
     10084        87  SAPE      H5Y            20.8658630897       23.5528513224      -11.6404909410  MEMB      87              0.0000000000
     10085        87  SAPE      C36            21.2222142058       21.4704270737      -11.0644897225  MEMB      87              0.0000000000
     10086        87  SAPE      H6X            22.3142660194       21.6317260302      -11.1432473769  MEMB      87              0.0000000000
     10087        87  SAPE      H6Y            20.9796915205       20.4928584645      -11.5406971088  MEMB      87              0.0000000000
     10088        87  SAPE      C37            20.8329075418       21.2693196754       -9.5899407601  MEMB      87              0.0000000000
     10089        87  SAPE      H7X            21.0864253201       20.2255836734       -9.2957551298  MEMB      87              0.0000000000
     10090        87  SAPE      H7Y            19.7375402187       21.4017314225       -9.4861470750  MEMB      87              0.0000000000
     10091        87  SAPE      C38            21.5142229327       22.1994770166       -8.5959609984  MEMB      87              0.0000000000
     10092        87  SAPE      H8X            21.1906310881       23.2224150716       -8.8549415930  MEMB      87              0.0000000000
     10093        87  SAPE      H8Y            22.6160975540       22.1456276343       -8.7428230462  MEMB      87              0.0000000000
     10094        87  SAPE      C39            21.1887017918       21.8588814014       -7.1276306593  MEMB      87              0.0000000000
     10095        87  SAPE      H9X            21.6724412598       22.6071123661       -6.4707642726  MEMB      87              0.0000000000
     10096        87  SAPE      H9Y            21.6612706687       20.8797903735       -6.9013513307  MEMB      87              0.0000000000
     10097        87  SAPE      C310           19.6967156777       21.7372569467       -6.7488422684  MEMB      87              0.0000000000
     10098        87  SAPE      H10X           19.6268983292       21.5448664163       -5.6537011413  MEMB      87              0.0000000000
     10099        87  SAPE      H10Y           19.2723063323       20.8475510707       -7.2636965477  MEMB      87              0.0000000000
     10100        87  SAPE      C311           18.8347740380       22.9619997919       -7.0884201410  MEMB      87              0.0000000000
     10101        87  SAPE      H11X           18.9013907612       23.1314784160       -8.1860057925  MEMB      87              0.0000000000
     10102        87  SAPE      H11Y           19.2462390115       23.8696927150       -6.5984974312  MEMB      87              0.0000000000
     10103        87  SAPE      C312           17.3473802326       22.7807666762       -6.7244642817  MEMB      87              0.0000000000
     10104        87  SAPE      H12X           17.0157702125       21.7792882281       -7.0807119439  MEMB      87              0.0000000000
     10105        87  SAPE      H12Y           16.7622948140       23.5463431061       -7.2844806541  MEMB      87              0.0000000000
     10106        87  SAPE      C313           16.9960125450       22.9292831200       -5.2297670692  MEMB      87              0.0000000000
     10107        87  SAPE      H13X           17.5326700279       22.1719103671       -4.6198344660  MEMB      87              0.0000000000
     10108        87  SAPE      H13Y           15.9038208616       22.7281127805       -5.1247487708  MEMB      87              0.0000000000
     10109        87  SAPE      C314           17.2556767240       24.3411446830       -4.6764295891  MEMB      87              0.0000000000
     10110        87  SAPE      H14X           16.4620603393       24.6337656036       -3.9531337643  MEMB      87              0.0000000000
     10111        87  SAPE      H14Y           17.1983654586       25.0562537612       -5.5288286047  MEMB      87              0.0000000000
     10112        87  SAPE      C315           18.6196519621       24.5161665998       -3.9931542995  MEMB      87              0.0000000000
     10113        87  SAPE      H15X           18.9631574927       25.5521358274       -4.2252604644  MEMB      87              0.0000000000
     10114        87  SAPE      H15Y           19.3605981213       23.8086713749       -4.4226335870  MEMB      87              0.0000000000
     10115        87  SAPE      C316           18.6014632006       24.3797539545       -2.4624108925  MEMB      87              0.0000000000
     10116        87  SAPE      H16X           17.9194047448       25.1519716514       -2.0526036500  MEMB      87              0.0000000000
     10117        87  SAPE      H16Y           19.6202108150       24.5948410354       -2.0665773379  MEMB      87              0.0000000000
     10118        87  SAPE      C317           18.1765633993       22.9956829536       -1.9631685373  MEMB      87              0.0000000000
     10119        87  SAPE      H17X           18.8224199777       22.2287497631       -2.4504294868  MEMB      87              0.0000000000
     10120        87  SAPE      H17Y           17.1259178023       22.8010850855       -2.2766915702  MEMB      87              0.0000000000
     10121        87  SAPE      C318           18.2883783134       22.8445944692       -0.4450046682  MEMB      87              0.0000000000
     10122        87  SAPE      H18X           19.3215832787       23.0694427586       -0.1028761507  MEMB      87              0.0000000000
     10123        87  SAPE      H18Y           18.0420512608       21.8038934699       -0.1494007927  MEMB      87              0.0000000000
     10124        87  SAPE      H18Z           17.5887721104       23.5335961004        0.0745811477  MEMB      87              0.0000000000
     10125        88  CHL1      C3            -21.3213641779      -17.0228351458      -17.4826994258  MEMB      88              0.0000000000
     10126        88  CHL1      H3            -21.0101922869      -18.0619339970      -17.2206794709  MEMB      88              0.0000000000
     10127        88  CHL1      O3            -21.4134311063      -16.8886879252      -18.8900440709  MEMB      88              0.0000000000
     10128        88  CHL1      H3'           -21.0301920046      -16.0116449248      -19.0562545962  MEMB      88              0.0000000000
     10129        88  CHL1      C4            -22.6877509492      -16.7153525975      -16.8196790712  MEMB      88              0.0000000000
     10130        88  CHL1      H4A           -23.0869162197      -15.7712153650      -17.2498211546  MEMB      88              0.0000000000
     10131        88  CHL1      H4B           -23.3928193904      -17.5227346961      -17.1271530911  MEMB      88              0.0000000000
     10132        88  CHL1      C5            -22.6039817713      -16.5809857265      -15.3036489126  MEMB      88              0.0000000000
     10133        88  CHL1      C6            -23.3869545233      -17.2670540483      -14.4526716615  MEMB      88              0.0000000000
     10134        88  CHL1      H6            -24.1559024630      -17.9466734974      -14.8504466558  MEMB      88              0.0000000000
     10135        88  CHL1      C7            -23.3010424462      -17.1703303440      -12.9502181220  MEMB      88              0.0000000000
     10136        88  CHL1      H7A           -24.3146358251      -17.1158991110      -12.4967997907  MEMB      88              0.0000000000
     10137        88  CHL1      H7B           -22.8270075424      -18.1006775894      -12.5662222788  MEMB      88              0.0000000000
     10138        88  CHL1      C8            -22.4721478691      -15.9615502647      -12.4280520363  MEMB      88              0.0000000000
     10139        88  CHL1      H8            -23.1287043242      -15.0645313586      -12.4705217624  MEMB      88              0.0000000000
     10140        88  CHL1      C14           -21.9777735246      -16.1946326215      -10.9949121576  MEMB      88              0.0000000000
     10141        88  CHL1      H14           -21.2622581943      -17.0552536355      -11.0629309584  MEMB      88              0.0000000000
     10142        88  CHL1      C15           -22.9900777245      -16.6115765050       -9.9219989833  MEMB      88              0.0000000000
     10143        88  CHL1      H15A          -23.8564233591      -15.9252567282       -9.9341581192  MEMB      88              0.0000000000
     10144        88  CHL1      H15B          -23.3490291445      -17.6402432337      -10.0739033672  MEMB      88              0.0000000000
     10145        88  CHL1      C16           -22.2171390375      -16.4278648064       -8.6077594858  MEMB      88              0.0000000000
     10146        88  CHL1      H16A          -22.8496707681      -15.8756333494       -7.8800921158  MEMB      88              0.0000000000
     10147        88  CHL1      H16B          -21.9239801508      -17.3967586840       -8.1637106894  MEMB      88              0.0000000000
     10148        88  CHL1      C17           -20.9165100823      -15.6309686846       -8.9446318474  MEMB      88              0.0000000000
     10149        88  CHL1      H17           -20.0998543745      -16.3815757374       -9.0683336933  MEMB      88              0.0000000000
     10150        88  CHL1      C13           -21.1799373383      -15.0561142598      -10.3567287691  MEMB      88              0.0000000000
     10151        88  CHL1      C18           -22.0727612894      -13.8116136704      -10.2058599078  MEMB      88              0.0000000000
     10152        88  CHL1      H18A          -21.4698885445      -12.9794638550       -9.7946414585  MEMB      88              0.0000000000
     10153        88  CHL1      H18B          -22.4850424889      -13.4830968614      -11.1783646994  MEMB      88              0.0000000000
     10154        88  CHL1      H18C          -22.9290781337      -13.9773825176       -9.5218801218  MEMB      88              0.0000000000
     10155        88  CHL1      C12           -19.9614685093      -14.7656632039      -11.2477416222  MEMB      88              0.0000000000
     10156        88  CHL1      H12A          -19.4151479457      -13.8713892643      -10.8880477273  MEMB      88              0.0000000000
     10157        88  CHL1      H12B          -19.2702196813      -15.6351623012      -11.2071432706  MEMB      88              0.0000000000
     10158        88  CHL1      C11           -20.3918612244      -14.5413926590      -12.7103499406  MEMB      88              0.0000000000
     10159        88  CHL1      H11A          -20.9890333488      -13.6117043993      -12.7626751554  MEMB      88              0.0000000000
     10160        88  CHL1      H11B          -19.4901618649      -14.3897589243      -13.3270140417  MEMB      88              0.0000000000
     10161        88  CHL1      C9            -21.2332329345      -15.7159089040      -13.2860126088  MEMB      88              0.0000000000
     10162        88  CHL1      H9            -20.6011508128      -16.6298703933      -13.1502039450  MEMB      88              0.0000000000
     10163        88  CHL1      C10           -21.4907248455      -15.6405426339      -14.8141232804  MEMB      88              0.0000000000
     10164        88  CHL1      C19           -21.9705267209      -14.2197340560      -15.1957730626  MEMB      88              0.0000000000
     10165        88  CHL1      H19A          -21.2115366631      -13.4559562289      -14.9339227899  MEMB      88              0.0000000000
     10166        88  CHL1      H19B          -22.1463812538      -14.1172691618      -16.2855756966  MEMB      88              0.0000000000
     10167        88  CHL1      H19C          -22.9205449577      -13.9899203495      -14.6669872087  MEMB      88              0.0000000000
     10168        88  CHL1      C1            -20.1523770107      -15.9910335827      -15.5259061942  MEMB      88              0.0000000000
     10169        88  CHL1      H1A           -19.3803579627      -15.2425783398      -15.2559440332  MEMB      88              0.0000000000
     10170        88  CHL1      H1B           -19.7943763605      -16.9802839585      -15.1607917723  MEMB      88              0.0000000000
     10171        88  CHL1      C2            -20.2437340989      -16.0406432755      -17.0494972149  MEMB      88              0.0000000000
     10172        88  CHL1      H2A           -19.2561453443      -16.3329134613      -17.4738771117  MEMB      88              0.0000000000
     10173        88  CHL1      H2B           -20.4808762720      -15.0196944732      -17.4213315127  MEMB      88              0.0000000000
     10174        88  CHL1      C20           -20.5123884036      -14.7041649958       -7.7839645310  MEMB      88              0.0000000000
     10175        88  CHL1      H20           -21.3526158104      -13.9933694816       -7.5995760087  MEMB      88              0.0000000000
     10176        88  CHL1      C21           -19.2508717989      -13.8811005802       -8.1195229392  MEMB      88              0.0000000000
     10177        88  CHL1      H21A          -19.4657243540      -13.1219555531       -8.8969772503  MEMB      88              0.0000000000
     10178        88  CHL1      H21B          -18.4338421719      -14.5414447754       -8.4780953825  MEMB      88              0.0000000000
     10179        88  CHL1      H21C          -18.8918379464      -13.3433256933       -7.2162644302  MEMB      88              0.0000000000
     10180        88  CHL1      C22           -20.2802397458      -15.4701552152       -6.4493569992  MEMB      88              0.0000000000
     10181        88  CHL1      H22A          -20.8599977194      -16.4160536045       -6.4179034868  MEMB      88              0.0000000000
     10182        88  CHL1      H22B          -19.2058655825      -15.7461735573       -6.3772795003  MEMB      88              0.0000000000
     10183        88  CHL1      C23           -20.7020379095      -14.6466359340       -5.2198059019  MEMB      88              0.0000000000
     10184        88  CHL1      H23A          -20.3190287193      -13.6085844292       -5.3410572867  MEMB      88              0.0000000000
     10185        88  CHL1      H23B          -21.8117652135      -14.5806909037       -5.1922402866  MEMB      88              0.0000000000
     10186        88  CHL1      C24           -20.1804148810      -15.1766901496       -3.8722842964  MEMB      88              0.0000000000
     10187        88  CHL1      H24A          -19.0699838359      -15.0907407424       -3.8737557588  MEMB      88              0.0000000000
     10188        88  CHL1      H24B          -20.5679940999      -14.5153471300       -3.0653536022  MEMB      88              0.0000000000
     10189        88  CHL1      C25           -20.5466603824      -16.6289875706       -3.5032638377  MEMB      88              0.0000000000
     10190        88  CHL1      H25           -20.1769824352      -17.2951944010       -4.3187425428  MEMB      88              0.0000000000
     10191        88  CHL1      C26           -19.8231600913      -17.0189818886       -2.2058197005  MEMB      88              0.0000000000
     10192        88  CHL1      H26A          -20.0581621313      -18.0637257134       -1.9159373024  MEMB      88              0.0000000000
     10193        88  CHL1      H26B          -18.7274140893      -16.9328111791       -2.3537031043  MEMB      88              0.0000000000
     10194        88  CHL1      H26C          -20.1174180110      -16.3369329921       -1.3788999756  MEMB      88              0.0000000000
     10195        88  CHL1      C27           -22.0586683070      -16.8512891723       -3.3452254291  MEMB      88              0.0000000000
     10196        88  CHL1      H27A          -22.5918391518      -16.6261336526       -4.2919808840  MEMB      88              0.0000000000
     10197        88  CHL1      H27B          -22.2593755137      -17.9117798453       -3.0794391288  MEMB      88              0.0000000000
     10198        88  CHL1      H27C          -22.4674623087      -16.2035080219       -2.5418056672  MEMB      88              0.0000000000
     10199        89  SLPC      N              25.4475560942      -12.3191919439      -18.1826483872  MEMB      89              0.0000000000
     10200        89  SLPC      C13            25.6625604348      -12.5307833573      -16.7125591862  MEMB      89              0.0000000000
     10201        89  SLPC      H13A           26.6994630500      -12.3054432383      -16.4593502135  MEMB      89              0.0000000000
     10202        89  SLPC      H13B           25.0704777855      -11.8181101524      -16.1420817023  MEMB      89              0.0000000000
     10203        89  SLPC      H13C           25.3987634145      -13.5284890804      -16.4132809881  MEMB      89              0.0000000000
     10204        89  SLPC      C14            23.9871017946      -12.4840962231      -18.4501016161  MEMB      89              0.0000000000
     10205        89  SLPC      H14A           23.6827367666      -13.5038886876      -18.2512296690  MEMB      89              0.0000000000
     10206        89  SLPC      H14B           23.3689796195      -11.8524652156      -17.8175768882  MEMB      89              0.0000000000
     10207        89  SLPC      H14C           23.7462731456      -12.2684832047      -19.4857550360  MEMB      89              0.0000000000
     10208        89  SLPC      C15            26.2105913115      -13.3421144584      -18.9694055224  MEMB      89              0.0000000000
     10209        89  SLPC      H15A           26.0338968908      -13.2570163268      -20.0396131837  MEMB      89              0.0000000000
     10210        89  SLPC      H15B           27.2787249446      -13.2461101373      -18.8016148694  MEMB      89              0.0000000000
     10211        89  SLPC      H15C           25.9145527178      -14.3537569792      -18.7150035109  MEMB      89              0.0000000000
     10212        89  SLPC      C12            25.9045514295      -10.8998661463      -18.5093031738  MEMB      89              0.0000000000
     10213        89  SLPC      H12A           25.4395404538      -10.2181958575      -17.7975169160  MEMB      89              0.0000000000
     10214        89  SLPC      H12B           25.5559062197      -10.6259222393      -19.4925603658  MEMB      89              0.0000000000
     10215        89  SLPC      C11            27.4154706361      -10.5707553369      -18.4195451490  MEMB      89              0.0000000000
     10216        89  SLPC      H11A           27.5866838355       -9.5586007666      -18.8617584045  MEMB      89              0.0000000000
     10217        89  SLPC      H11B           27.9992892739      -11.2776669308      -19.0436725079  MEMB      89              0.0000000000
     10218        89  SLPC      P              27.7679993782       -9.3534332864      -16.1443755530  MEMB      89              0.0000000000
     10219        89  SLPC      O13            28.5512175562       -8.2652486365      -16.7569716433  MEMB      89              0.0000000000
     10220        89  SLPC      O14            26.3079082707       -9.1558718449      -15.9402477040  MEMB      89              0.0000000000
     10221        89  SLPC      O12            27.8786878562      -10.6470245618      -17.0732801525  MEMB      89              0.0000000000
     10222        89  SLPC      O11            28.4591644023       -9.8546456205      -14.8291391664  MEMB      89              0.0000000000
     10223        89  SLPC      C1             28.0602416057      -11.0881880509      -14.2572745118  MEMB      89              0.0000000000
     10224        89  SLPC      HA             26.9937868126      -11.3303623906      -14.4734511367  MEMB      89              0.0000000000
     10225        89  SLPC      HB             28.6945439786      -11.9089999623      -14.6447629823  MEMB      89              0.0000000000
     10226        89  SLPC      C2             28.2017844000      -10.9867648897      -12.7342915470  MEMB      89              0.0000000000
     10227        89  SLPC      HS             27.8868634007      -11.9643950228      -12.2896802600  MEMB      89              0.0000000000
     10228        89  SLPC      O21            27.4101121589       -9.8974459996      -12.2374548613  MEMB      89              0.0000000000
     10229        89  SLPC      C21            26.1551838646      -10.2219291071      -12.0274541318  MEMB      89              0.0000000000
     10230        89  SLPC      O22            25.5659449942      -11.1832789001      -12.4965469864  MEMB      89              0.0000000000
     10231        89  SLPC      C22            25.5993223121       -9.2790001428      -10.9755973561  MEMB      89              0.0000000000
     10232        89  SLPC      H2R            26.4428040624       -8.7015350913      -10.5388977309  MEMB      89              0.0000000000
     10233        89  SLPC      H2S            24.9091853821       -8.5592223740      -11.4517236968  MEMB      89              0.0000000000
     10234        89  SLPC      C3             29.6688228856      -10.7372892280      -12.2807832903  MEMB      89              0.0000000000
     10235        89  SLPC      HX             30.0496297445       -9.9092520119      -12.9223677920  MEMB      89              0.0000000000
     10236        89  SLPC      HY             30.2822627146      -11.6307715374      -12.5138293923  MEMB      89              0.0000000000
     10237        89  SLPC      O31            29.8726334837      -10.3640057599      -10.8988393366  MEMB      89              0.0000000000
     10238        89  SLPC      C31            29.0468682149      -10.7383677656       -9.9273755501  MEMB      89              0.0000000000
     10239        89  SLPC      O32            28.0258620833      -11.3878663131      -10.0181744249  MEMB      89              0.0000000000
     10240        89  SLPC      C32            29.6293349304      -10.3024191332       -8.5890809151  MEMB      89              0.0000000000
     10241        89  SLPC      H2X            30.0749265009       -9.2930536484       -8.6982756883  MEMB      89              0.0000000000
     10242        89  SLPC      H2Y            30.4239951043      -11.0268328034       -8.3118799355  MEMB      89              0.0000000000
     10243        89  SLPC      C23            24.9423069378      -10.0457675317       -9.8073011938  MEMB      89              0.0000000000
     10244        89  SLPC      H3R            25.5790678701      -10.9011739120       -9.4868628075  MEMB      89              0.0000000000
     10245        89  SLPC      H3S            23.9526455176      -10.4517189637      -10.0939808704  MEMB      89              0.0000000000
     10246        89  SLPC      C24            24.7832547593       -9.0895041414       -8.6350076829  MEMB      89              0.0000000000
     10247        89  SLPC      H4R            24.2670684559       -8.1901488904       -9.0347543948  MEMB      89              0.0000000000
     10248        89  SLPC      H4S            25.7935680541       -8.7986224689       -8.2725125670  MEMB      89              0.0000000000
     10249        89  SLPC      C25            23.9594095759       -9.5934680399       -7.4604213438  MEMB      89              0.0000000000
     10250        89  SLPC      H5R            23.7921566855      -10.6903404508       -7.5278701886  MEMB      89              0.0000000000
     10251        89  SLPC      H5S            22.9710696332       -9.0938149287       -7.5414967274  MEMB      89              0.0000000000
     10252        89  SLPC      C26            24.6005815992       -9.2359848815       -6.1135700105  MEMB      89              0.0000000000
     10253        89  SLPC      H6R            25.0240939137       -8.2077331873       -6.1320273880  MEMB      89              0.0000000000
     10254        89  SLPC      H6S            25.4352157855       -9.9403928909       -5.9289648980  MEMB      89              0.0000000000
     10255        89  SLPC      C27            23.5853593771       -9.3434398490       -4.9861432691  MEMB      89              0.0000000000
     10256        89  SLPC      H7R            23.1208166246      -10.3530674125       -5.0685081476  MEMB      89              0.0000000000
     10257        89  SLPC      H7S            22.8002720908       -8.5714733097       -5.1249094924  MEMB      89              0.0000000000
     10258        89  SLPC      C28            24.1487900883       -9.2215960647       -3.5715727626  MEMB      89              0.0000000000
     10259        89  SLPC      H8R            25.0400564472       -9.8770791990       -3.4667574770  MEMB      89              0.0000000000
     10260        89  SLPC      H8S            23.3448178107       -9.6489406636       -2.9362017897  MEMB      89              0.0000000000
     10261        89  SLPC      C29            24.3934568780       -7.8181403600       -3.0913052459  MEMB      89              0.0000000000
     10262        89  SLPC      H9R            23.5721530096       -7.1134784743       -3.2826775991  MEMB      89              0.0000000000
     10263        89  SLPC      C210           25.4670372688       -7.3987634780       -2.4036578747  MEMB      89              0.0000000000
     10264        89  SLPC      H10R           25.5020644705       -6.3551566340       -2.0543351025  MEMB      89              0.0000000000
     10265        89  SLPC      C211           26.6371403637       -8.2481747853       -1.9832015451  MEMB      89              0.0000000000
     10266        89  SLPC      H11R           27.5064516723       -7.5577305635       -1.9442964814  MEMB      89              0.0000000000
     10267        89  SLPC      H11S           26.9108237042       -8.9859767048       -2.7709085047  MEMB      89              0.0000000000
     10268        89  SLPC      C212           26.5708467233       -8.9261159172       -0.6352438913  MEMB      89              0.0000000000
     10269        89  SLPC      H12R           27.5476227042       -8.9261552732       -0.1325207128  MEMB      89              0.0000000000
     10270        89  SLPC      C213           25.5769674043       -9.5203298709        0.0566494559  MEMB      89              0.0000000000
     10271        89  SLPC      H13R           25.8437282805       -9.8663585757        1.0602028684  MEMB      89              0.0000000000
     10272        89  SLPC      C214           24.1169458695       -9.7758800786       -0.2002278800  MEMB      89              0.0000000000
     10273        89  SLPC      H14R           23.8611917488      -10.5508140520        0.5393828987  MEMB      89              0.0000000000
     10274        89  SLPC      H14S           23.9804055698      -10.2741355510       -1.1733016155  MEMB      89              0.0000000000
     10275        89  SLPC      C215           23.0454493791       -8.6812816592        0.0118490906  MEMB      89              0.0000000000
     10276        89  SLPC      H15R           22.5980255602       -8.4429944885       -0.9794748366  MEMB      89              0.0000000000
     10277        89  SLPC      H15S           23.5384648738       -7.7549167173        0.3457642747  MEMB      89              0.0000000000
     10278        89  SLPC      C216           21.8550739311       -9.0669940379        0.9364512123  MEMB      89              0.0000000000
     10279        89  SLPC      H16R           21.2712449489       -9.8374386911        0.3847728342  MEMB      89              0.0000000000
     10280        89  SLPC      H16S           21.1898162369       -8.1827430942        1.0594335958  MEMB      89              0.0000000000
     10281        89  SLPC      C217           22.1491703250       -9.6484355133        2.3400311198  MEMB      89              0.0000000000
     10282        89  SLPC      H17R           22.1466254413       -8.8287426894        3.0937436441  MEMB      89              0.0000000000
     10283        89  SLPC      H17S           23.1662796989      -10.0904409604        2.3663714627  MEMB      89              0.0000000000
     10284        89  SLPC      C218           21.1481025444      -10.7270012883        2.7789075480  MEMB      89              0.0000000000
     10285        89  SLPC      H18R           21.4685817670      -11.2157952887        3.7208972227  MEMB      89              0.0000000000
     10286        89  SLPC      H18S           21.0554949699      -11.5171789576        2.0012530542  MEMB      89              0.0000000000
     10287        89  SLPC      H18T           20.1482291575      -10.2801781859        2.9534224370  MEMB      89              0.0000000000
     10288        89  SLPC      C33            28.5467218960      -10.2784007267       -7.4928272352  MEMB      89              0.0000000000
     10289        89  SLPC      H3X            27.6704366420       -9.6633817555       -7.7938697244  MEMB      89              0.0000000000
     10290        89  SLPC      H3Y            28.9895554544       -9.7879121048       -6.5970440443  MEMB      89              0.0000000000
     10291        89  SLPC      C34            28.0646010337      -11.6713674768       -7.0710253706  MEMB      89              0.0000000000
     10292        89  SLPC      H4X            28.8520400826      -12.4363096401       -7.2557314460  MEMB      89              0.0000000000
     10293        89  SLPC      H4Y            27.1774004865      -11.9603846092       -7.6799249266  MEMB      89              0.0000000000
     10294        89  SLPC      C35            27.7154791093      -11.6839231848       -5.5899169251  MEMB      89              0.0000000000
     10295        89  SLPC      H5X            27.1638944003      -10.7562992523       -5.3235614184  MEMB      89              0.0000000000
     10296        89  SLPC      H5Y            28.6632110452      -11.6618885607       -5.0105313702  MEMB      89              0.0000000000
     10297        89  SLPC      C36            26.8543867971      -12.8742331695       -5.1812456802  MEMB      89              0.0000000000
     10298        89  SLPC      H6X            27.3630316881      -13.8331827945       -5.4229105012  MEMB      89              0.0000000000
     10299        89  SLPC      H6Y            25.8917957899      -12.8402738936       -5.7432069443  MEMB      89              0.0000000000
     10300        89  SLPC      C37            26.5606030767      -12.7942246141       -3.6902713279  MEMB      89              0.0000000000
     10301        89  SLPC      H7X            25.7491364200      -13.5064883380       -3.4293597893  MEMB      89              0.0000000000
     10302        89  SLPC      H7Y            26.2023710032      -11.7675830518       -3.4476930889  MEMB      89              0.0000000000
     10303        89  SLPC      C38            27.7716256622      -13.1208744533       -2.8215550061  MEMB      89              0.0000000000
     10304        89  SLPC      H8X            28.7065992770      -12.6429492591       -3.1822485452  MEMB      89              0.0000000000
     10305        89  SLPC      H8Y            27.9229399831      -14.2229203107       -2.8731868318  MEMB      89              0.0000000000
     10306        89  SLPC      C39            27.5316169490      -12.6882871545       -1.3803674397  MEMB      89              0.0000000000
     10307        89  SLPC      H9X            26.4437424261      -12.7861290153       -1.1557419023  MEMB      89              0.0000000000
     10308        89  SLPC      H9Y            27.8063403738      -11.6167510038       -1.2460358641  MEMB      89              0.0000000000
     10309        89  SLPC      C310           28.3177665032      -13.5630176302       -0.4131513497  MEMB      89              0.0000000000
     10310        89  SLPC      H10X           29.3852521001      -13.2535623062       -0.4383010588  MEMB      89              0.0000000000
     10311        89  SLPC      H10Y           28.2596774124      -14.6243749701       -0.7496236313  MEMB      89              0.0000000000
     10312        89  SLPC      C311           27.7592644891      -13.4782089946        1.0034180034  MEMB      89              0.0000000000
     10313        89  SLPC      H11X           28.4324462988      -14.0256462931        1.6860826931  MEMB      89              0.0000000000
     10314        89  SLPC      H11Y           26.7705473860      -13.9907912355        1.0304062018  MEMB      89              0.0000000000
     10315        89  SLPC      C312           27.6043181050      -12.0435690192        1.5159365989  MEMB      89              0.0000000000
     10316        89  SLPC      H12X           26.6665116572      -11.6513427578        1.0820028485  MEMB      89              0.0000000000
     10317        89  SLPC      H12Y           28.4460749562      -11.4167357641        1.1570752247  MEMB      89              0.0000000000
     10318        89  SLPC      C313           27.5471241856      -11.9920020160        3.0464514609  MEMB      89              0.0000000000
     10319        89  SLPC      H13X           28.5363718140      -12.2772613954        3.4369589653  MEMB      89              0.0000000000
     10320        89  SLPC      H13Y           26.8603036483      -12.7961849669        3.3696614015  MEMB      89              0.0000000000
     10321        89  SLPC      C314           27.0992348783      -10.6485863977        3.6591843626  MEMB      89              0.0000000000
     10322        89  SLPC      H14X           26.2450862157      -10.8792502940        4.3323768554  MEMB      89              0.0000000000
     10323        89  SLPC      H14Y           26.7169722175       -9.9664887821        2.8746946976  MEMB      89              0.0000000000
     10324        89  SLPC      C315           28.1537746272       -9.9108638492        4.5124446395  MEMB      89              0.0000000000
     10325        89  SLPC      H15X           28.8865613903      -10.6214566386        4.9326680450  MEMB      89              0.0000000000
     10326        89  SLPC      H15Y           27.6569608260       -9.4329732634        5.3835765756  MEMB      89              0.0000000000
     10327        89  SLPC      C316           28.9472145437       -8.8414039553        3.7524828309  MEMB      89              0.0000000000
     10328        89  SLPC      H16X           29.7043909756       -8.4080950155        4.4453641174  MEMB      89              0.0000000000
     10329        89  SLPC      H16Y           28.2906215629       -8.0044867027        3.4386862280  MEMB      89              0.0000000000
     10330        89  SLPC      C317           29.6597339777       -9.4514840011        2.5430495437  MEMB      89              0.0000000000
     10331        89  SLPC      H17X           29.0743544464       -9.2483841777        1.6219288420  MEMB      89              0.0000000000
     10332        89  SLPC      H17Y           29.6661209404      -10.5500407539        2.6946685184  MEMB      89              0.0000000000
     10333        89  SLPC      C318           31.1308126641       -9.0822071146        2.4107440440  MEMB      89              0.0000000000
     10334        89  SLPC      H18X           31.6961459004       -9.8667789950        1.8620851272  MEMB      89              0.0000000000
     10335        89  SLPC      H18Y           31.5714431568       -8.9681254139        3.4222622421  MEMB      89              0.0000000000
     10336        89  SLPC      H18Z           31.2614119451       -8.1312520844        1.8804743949  MEMB      89              0.0000000000
     10337        90  SAPC      N              12.9629318755      -25.5166010878      -21.7073943985  MEMB      90              0.0000000000
     10338        90  SAPC      C12            13.8340319155      -24.4457744740      -21.1137410860  MEMB      90              0.0000000000
     10339        90  SAPC      H12A           14.0841116101      -23.7186080988      -21.8831593801  MEMB      90              0.0000000000
     10340        90  SAPC      H12B           14.7913121783      -24.8815267371      -20.8388979951  MEMB      90              0.0000000000
     10341        90  SAPC      C13            11.5112719336      -25.1835378077      -21.5753476208  MEMB      90              0.0000000000
     10342        90  SAPC      H13A           11.2821719702      -25.0001405315      -20.5235568016  MEMB      90              0.0000000000
     10343        90  SAPC      H13B           11.2192687392      -24.3047543531      -22.1240279438  MEMB      90              0.0000000000
     10344        90  SAPC      H13C           10.8982408824      -26.0102827790      -21.8906789357  MEMB      90              0.0000000000
     10345        90  SAPC      C14            13.2888562751      -25.7398660774      -23.1461492076  MEMB      90              0.0000000000
     10346        90  SAPC      H14A           14.3393094924      -25.9778758653      -23.2736471167  MEMB      90              0.0000000000
     10347        90  SAPC      H14B           12.7208636311      -26.6010994507      -23.4948301787  MEMB      90              0.0000000000
     10348        90  SAPC      H14C           13.0276811942      -24.8901635707      -23.7696639109  MEMB      90              0.0000000000
     10349        90  SAPC      C15            13.1913952485      -26.7940078606      -20.9568486944  MEMB      90              0.0000000000
     10350        90  SAPC      H15A           12.4124654967      -27.4891118932      -21.2168014950  MEMB      90              0.0000000000
     10351        90  SAPC      H15B           14.1451604137      -27.2435169625      -21.2071201043  MEMB      90              0.0000000000
     10352        90  SAPC      H15C           13.1426408082      -26.5990425258      -19.8852938131  MEMB      90              0.0000000000
     10353        90  SAPC      C11            13.3123308444      -23.6130914488      -19.9177361846  MEMB      90              0.0000000000
     10354        90  SAPC      H11A           12.4414384287      -22.9991016402      -20.2414264489  MEMB      90              0.0000000000
     10355        90  SAPC      H11B           14.1294877887      -22.9056576450      -19.6405800151  MEMB      90              0.0000000000
     10356        90  SAPC      P              11.6679335340      -24.3482439525      -17.9786825631  MEMB      90              0.0000000000
     10357        90  SAPC      O13            10.5752138135      -24.1521633450      -18.9712133645  MEMB      90              0.0000000000
     10358        90  SAPC      O14            11.6219153152      -25.5316908827      -17.0946535788  MEMB      90              0.0000000000
     10359        90  SAPC      O12            13.0178250299      -24.4099987475      -18.7853216641  MEMB      90              0.0000000000
     10360        90  SAPC      O11            11.6680645183      -23.0163392751      -17.1271978860  MEMB      90              0.0000000000
     10361        90  SAPC      C1             12.5274838464      -21.8955025912      -17.2517637490  MEMB      90              0.0000000000
     10362        90  SAPC      HA             12.8890036142      -21.7231565411      -18.2874570275  MEMB      90              0.0000000000
     10363        90  SAPC      HB             11.9634290895      -20.9822762197      -16.9837918791  MEMB      90              0.0000000000
     10364        90  SAPC      C2             13.7143464371      -21.9728172657      -16.2697052032  MEMB      90              0.0000000000
     10365        90  SAPC      HS             14.2236144073      -20.9888398979      -16.2990780537  MEMB      90              0.0000000000
     10366        90  SAPC      O21            14.5864871207      -22.9930365717      -16.7400756463  MEMB      90              0.0000000000
     10367        90  SAPC      C21            15.7656707540      -23.0345322698      -16.1738896587  MEMB      90              0.0000000000
     10368        90  SAPC      O22            16.2828383969      -22.1347634763      -15.5364358678  MEMB      90              0.0000000000
     10369        90  SAPC      C22            16.3781330386      -24.3856744151      -16.4542989434  MEMB      90              0.0000000000
     10370        90  SAPC      H2R            15.6622369575      -25.0457011231      -16.9818704713  MEMB      90              0.0000000000
     10371        90  SAPC      H2S            17.2501623619      -24.2087994101      -17.1195008684  MEMB      90              0.0000000000
     10372        90  SAPC      C3             13.2686686004      -22.2413865773      -14.7912125914  MEMB      90              0.0000000000
     10373        90  SAPC      HX             12.3760789409      -21.5903415441      -14.6358810746  MEMB      90              0.0000000000
     10374        90  SAPC      HY             14.0698886657      -21.8784143239      -14.1112559613  MEMB      90              0.0000000000
     10375        90  SAPC      O31            13.0079725598      -23.6403512529      -14.5084867548  MEMB      90              0.0000000000
     10376        90  SAPC      C31            12.0312609858      -23.8558249624      -13.6348724484  MEMB      90              0.0000000000
     10377        90  SAPC      O32            11.3376461713      -22.9845985776      -13.1372931206  MEMB      90              0.0000000000
     10378        90  SAPC      C32            11.9447255651      -25.3425430505      -13.2633988837  MEMB      90              0.0000000000
     10379        90  SAPC      H2X            12.9183177397      -25.8275473219      -13.4631886409  MEMB      90              0.0000000000
     10380        90  SAPC      H2Y            11.2059497166      -25.7896081261      -13.9601231560  MEMB      90              0.0000000000
     10381        90  SAPC      C23            16.8656621443      -24.9940035387      -15.1273378514  MEMB      90              0.0000000000
     10382        90  SAPC      H3R            17.6213841969      -24.2729143500      -14.7530698556  MEMB      90              0.0000000000
     10383        90  SAPC      H3S            17.3784274459      -25.9566775095      -15.3557758637  MEMB      90              0.0000000000
     10384        90  SAPC      C24            15.7605134993      -25.1772466740      -14.0655196913  MEMB      90              0.0000000000
     10385        90  SAPC      H4R            14.8874868779      -25.6199357571      -14.5929580774  MEMB      90              0.0000000000
     10386        90  SAPC      H4S            15.4364764736      -24.1690493873      -13.7232210868  MEMB      90              0.0000000000
     10387        90  SAPC      C25            16.1077586090      -26.0559322923      -12.8856921445  MEMB      90              0.0000000000
     10388        90  SAPC      H5R            16.0852536393      -27.1354599207      -13.1066023961  MEMB      90              0.0000000000
     10389        90  SAPC      C26            16.4538546954      -25.6656010977      -11.6411786765  MEMB      90              0.0000000000
     10390        90  SAPC      H6R            16.6683492114      -26.4449659085      -10.8939547317  MEMB      90              0.0000000000
     10391        90  SAPC      C27            16.5885463745      -24.2528928251      -11.1178555635  MEMB      90              0.0000000000
     10392        90  SAPC      H7R            16.7333299856      -23.5397364866      -11.9596486716  MEMB      90              0.0000000000
     10393        90  SAPC      H7S            17.5213172358      -24.2134525909      -10.5226606941  MEMB      90              0.0000000000
     10394        90  SAPC      C28            15.5370054776      -23.7054238285      -10.1978425168  MEMB      90              0.0000000000
     10395        90  SAPC      H8R            14.8244990726      -23.0093412281      -10.6647368498  MEMB      90              0.0000000000
     10396        90  SAPC      C29            15.4481968476      -23.9642069920       -8.8806382653  MEMB      90              0.0000000000
     10397        90  SAPC      H9R            14.6489661109      -23.4857578733       -8.2922902963  MEMB      90              0.0000000000
     10398        90  SAPC      C210           16.3839998845      -24.8500776206       -8.0966280698  MEMB      90              0.0000000000
     10399        90  SAPC      H10R           16.8140932297      -25.6530877000       -8.7328895095  MEMB      90              0.0000000000
     10400        90  SAPC      H10S           15.7972674326      -25.3893603610       -7.3209667124  MEMB      90              0.0000000000
     10401        90  SAPC      C211           17.5128251677      -24.0451233698       -7.5001213618  MEMB      90              0.0000000000
     10402        90  SAPC      H11R           18.3334996389      -23.7958608141       -8.1903794239  MEMB      90              0.0000000000
     10403        90  SAPC      C212           17.5915479224      -23.6282828273       -6.2259149386  MEMB      90              0.0000000000
     10404        90  SAPC      H12R           18.4556853017      -23.0221119014       -5.9094580619  MEMB      90              0.0000000000
     10405        90  SAPC      C213           16.5709000271      -23.8862294963       -5.1517803601  MEMB      90              0.0000000000
     10406        90  SAPC      H13R           17.1204836800      -23.8815928780       -4.1875353934  MEMB      90              0.0000000000
     10407        90  SAPC      H13S           16.1525867149      -24.9134871976       -5.2445232545  MEMB      90              0.0000000000
     10408        90  SAPC      C214           15.4301544821      -22.8983207621       -5.1041818461  MEMB      90              0.0000000000
     10409        90  SAPC      H14R           15.5234872466      -22.0273721683       -5.7736433906  MEMB      90              0.0000000000
     10410        90  SAPC      C215           14.3491894862      -22.9905107252       -4.3042604162  MEMB      90              0.0000000000
     10411        90  SAPC      H15R           13.6044381225      -22.1794301070       -4.3308401440  MEMB      90              0.0000000000
     10412        90  SAPC      C216           14.0547777761      -24.0815546235       -3.2990548171  MEMB      90              0.0000000000
     10413        90  SAPC      H16R           13.7734761133      -25.0306127847       -3.8076527781  MEMB      90              0.0000000000
     10414        90  SAPC      H16S           13.1788557030      -23.7765414624       -2.6855240329  MEMB      90              0.0000000000
     10415        90  SAPC      C217           15.2126172483      -24.3504229713       -2.3224355519  MEMB      90              0.0000000000
     10416        90  SAPC      H17R           15.6349878274      -23.3770102716       -1.9886752530  MEMB      90              0.0000000000
     10417        90  SAPC      H17S           16.0206296278      -24.9228686039       -2.8265508824  MEMB      90              0.0000000000
     10418        90  SAPC      C218           14.8177888526      -25.1602462800       -1.0894478891  MEMB      90              0.0000000000
     10419        90  SAPC      H18R           14.5019975480      -26.1758389289       -1.4195494178  MEMB      90              0.0000000000
     10420        90  SAPC      H18S           13.9529008076      -24.6848556258       -0.5776516430  MEMB      90              0.0000000000
     10421        90  SAPC      C219           16.0019876648      -25.2745471794       -0.1217811975  MEMB      90              0.0000000000
     10422        90  SAPC      H19R           16.3181641802      -24.2582668151        0.2062782800  MEMB      90              0.0000000000
     10423        90  SAPC      H19S           16.8610259132      -25.7226530216       -0.6633085174  MEMB      90              0.0000000000
     10424        90  SAPC      C220           15.6931899166      -26.1411000055        1.0892331646  MEMB      90              0.0000000000
     10425        90  SAPC      H20R           14.9296666550      -25.6415460790        1.7192842911  MEMB      90              0.0000000000
     10426        90  SAPC      H20S           16.6000091592      -26.3328229229        1.7013253069  MEMB      90              0.0000000000
     10427        90  SAPC      H20T           15.2865175415      -27.1147160749        0.7417864148  MEMB      90              0.0000000000
     10428        90  SAPC      C33            11.5159360455      -25.5756800236      -11.7860611914  MEMB      90              0.0000000000
     10429        90  SAPC      H3X            11.0879744552      -26.5981035807      -11.6869022558  MEMB      90              0.0000000000
     10430        90  SAPC      H3Y            10.7245842850      -24.8508264816      -11.4938133857  MEMB      90              0.0000000000
     10431        90  SAPC      C34            12.6843903301      -25.5050406479      -10.7982453846  MEMB      90              0.0000000000
     10432        90  SAPC      H4X            13.2674144346      -24.5881128287      -11.0094133509  MEMB      90              0.0000000000
     10433        90  SAPC      H4Y            13.3574762166      -26.3759433851      -10.9750862757  MEMB      90              0.0000000000
     10434        90  SAPC      C35            12.2596526886      -25.5001341719       -9.3180507466  MEMB      90              0.0000000000
     10435        90  SAPC      H5X            13.1418111479      -25.8018801255       -8.7051852922  MEMB      90              0.0000000000
     10436        90  SAPC      H5Y            11.4666595602      -26.2570150450       -9.1472327434  MEMB      90              0.0000000000
     10437        90  SAPC      C36            11.7989503149      -24.1140261623       -8.8310386960  MEMB      90              0.0000000000
     10438        90  SAPC      H6X            10.8565136865      -23.8196325013       -9.3415034785  MEMB      90              0.0000000000
     10439        90  SAPC      H6Y            12.5798495262      -23.3807326917       -9.1369756092  MEMB      90              0.0000000000
     10440        90  SAPC      C37            11.6404405251      -24.0218995366       -7.3025662875  MEMB      90              0.0000000000
     10441        90  SAPC      H7X            11.8540917518      -22.9779330067       -6.9812492562  MEMB      90              0.0000000000
     10442        90  SAPC      H7Y            12.3951946516      -24.6772923032       -6.8128318792  MEMB      90              0.0000000000
     10443        90  SAPC      C38            10.2335259353      -24.3987886200       -6.8204549922  MEMB      90              0.0000000000
     10444        90  SAPC      H8X             9.9567428160      -25.3847443255       -7.2564268198  MEMB      90              0.0000000000
     10445        90  SAPC      H8Y             9.5070266676      -23.6483213040       -7.1918940375  MEMB      90              0.0000000000
     10446        90  SAPC      C39            10.1120968381      -24.4837121330       -5.2935823296  MEMB      90              0.0000000000
     10447        90  SAPC      H9X            10.9096419622      -25.1594867252       -4.9119933058  MEMB      90              0.0000000000
     10448        90  SAPC      H9Y             9.1264378285      -24.9350885532       -5.0335038265  MEMB      90              0.0000000000
     10449        90  SAPC      C310           10.2327473055      -23.1354994666       -4.5760973880  MEMB      90              0.0000000000
     10450        90  SAPC      H10X            9.4264464258      -22.4580581689       -4.9291113611  MEMB      90              0.0000000000
     10451        90  SAPC      H10Y           11.2067245627      -22.6630282924       -4.8282392707  MEMB      90              0.0000000000
     10452        90  SAPC      C311           10.1413822033      -23.2945225378       -3.0545727311  MEMB      90              0.0000000000
     10453        90  SAPC      H11X           10.9151079575      -24.0205779126       -2.7222016436  MEMB      90              0.0000000000
     10454        90  SAPC      H11Y            9.1395191802      -23.6919101474       -2.7753663734  MEMB      90              0.0000000000
     10455        90  SAPC      C312           10.3765544357      -21.9901609723       -2.2973380510  MEMB      90              0.0000000000
     10456        90  SAPC      H12X            9.5656884462      -21.2875762007       -2.5713987781  MEMB      90              0.0000000000
     10457        90  SAPC      H12Y           11.3403542724      -21.5482423627       -2.6348377115  MEMB      90              0.0000000000
     10458        90  SAPC      C313           10.3595827547      -22.1799788990       -0.7728578349  MEMB      90              0.0000000000
     10459        90  SAPC      H13X            9.6789534184      -23.0175246625       -0.5079196310  MEMB      90              0.0000000000
     10460        90  SAPC      H13Y            9.9635754373      -21.2587802625       -0.2909152012  MEMB      90              0.0000000000
     10461        90  SAPC      C314           11.7523886541      -22.4295512649       -0.1919161488  MEMB      90              0.0000000000
     10462        90  SAPC      H14X           12.2504559957      -23.2444933063       -0.7585127319  MEMB      90              0.0000000000
     10463        90  SAPC      H14Y           11.6578588826      -22.7629054941        0.8665247391  MEMB      90              0.0000000000
     10464        90  SAPC      C315           12.5991414649      -21.1511592944       -0.2324996842  MEMB      90              0.0000000000
     10465        90  SAPC      H15X           12.3694215202      -20.5830798768        0.6853792149  MEMB      90              0.0000000000
     10466        90  SAPC      H15Y           12.2692720671      -20.5030349479       -1.0688028461  MEMB      90              0.0000000000
     10467        90  SAPC      C316           14.0868353316      -21.4138984893       -0.4859180581  MEMB      90              0.0000000000
     10468        90  SAPC      H16X           14.2072523016      -21.5082890662       -1.5902189612  MEMB      90              0.0000000000
     10469        90  SAPC      H16Y           14.3696356468      -22.3986720387       -0.0493235114  MEMB      90              0.0000000000
     10470        90  SAPC      C317           15.0948450225      -20.3685900301        0.0293464239  MEMB      90              0.0000000000
     10471        90  SAPC      H17X           15.8625279968      -20.2520145102       -0.7680789475  MEMB      90              0.0000000000
     10472        90  SAPC      H17Y           15.6194869879      -20.7986491223        0.9142425768  MEMB      90              0.0000000000
     10473        90  SAPC      C318           14.6038102800      -18.9623045314        0.3820058634  MEMB      90              0.0000000000
     10474        90  SAPC      H18X           14.8838330484      -18.2492107482       -0.4154274632  MEMB      90              0.0000000000
     10475        90  SAPC      H18Y           15.0976091965      -18.6273850196        1.3087874062  MEMB      90              0.0000000000
     10476        90  SAPC      H18Z           13.5163722410      -18.8876320704        0.5653397695  MEMB      90              0.0000000000
     10477        91  CHL1      C3            -16.3055829459      -23.2849182108      -17.6409923739  MEMB      91              0.0000000000
     10478        91  CHL1      H3            -16.1130982494      -24.3826743725      -17.6964169673  MEMB      91              0.0000000000
     10479        91  CHL1      O3            -16.4374835508      -22.7879353248      -18.9608806748  MEMB      91              0.0000000000
     10480        91  CHL1      H3'           -17.2306637182      -23.2327386944      -19.3216138514  MEMB      91              0.0000000000
     10481        91  CHL1      C4            -17.6151009277      -23.0450178353      -16.8674726638  MEMB      91              0.0000000000
     10482        91  CHL1      H4A           -17.9325916098      -21.9875348891      -16.9804533304  MEMB      91              0.0000000000
     10483        91  CHL1      H4B           -18.4187831613      -23.6619680366      -17.3295693604  MEMB      91              0.0000000000
     10484        91  CHL1      C5            -17.4237957955      -23.3945567976      -15.4078121083  MEMB      91              0.0000000000
     10485        91  CHL1      C6            -18.1565366552      -24.3493181661      -14.8140710119  MEMB      91              0.0000000000
     10486        91  CHL1      H6            -18.9572190447      -24.8575017096      -15.3798338895  MEMB      91              0.0000000000
     10487        91  CHL1      C7            -18.0159622093      -24.6893530002      -13.3607353917  MEMB      91              0.0000000000
     10488        91  CHL1      H7A           -18.9987352032      -24.9725139847      -12.9411214917  MEMB      91              0.0000000000
     10489        91  CHL1      H7B           -17.3498964681      -25.5699021255      -13.2420711970  MEMB      91              0.0000000000
     10490        91  CHL1      C8            -17.4154906433      -23.4885790933      -12.5795997292  MEMB      91              0.0000000000
     10491        91  CHL1      H8            -18.1425758070      -22.6461395094      -12.6347301891  MEMB      91              0.0000000000
     10492        91  CHL1      C14           -17.1752141930      -23.8565252095      -11.1266210173  MEMB      91              0.0000000000
     10493        91  CHL1      H14           -16.4273248574      -24.6881764233      -11.1371561226  MEMB      91              0.0000000000
     10494        91  CHL1      C15           -18.3666980085      -24.3939306795      -10.3281616919  MEMB      91              0.0000000000
     10495        91  CHL1      H15A          -19.2149114588      -23.7145221414      -10.5331496384  MEMB      91              0.0000000000
     10496        91  CHL1      H15B          -18.6512084399      -25.4313068826      -10.5910247769  MEMB      91              0.0000000000
     10497        91  CHL1      C16           -17.9342118439      -24.2417329236       -8.8693872632  MEMB      91              0.0000000000
     10498        91  CHL1      H16A          -18.7247655009      -23.7065304838       -8.2999714916  MEMB      91              0.0000000000
     10499        91  CHL1      H16B          -17.7691934763      -25.2207971500       -8.3835633185  MEMB      91              0.0000000000
     10500        91  CHL1      C17           -16.6133018592      -23.4079229882       -8.8861783497  MEMB      91              0.0000000000
     10501        91  CHL1      H17           -15.7689061533      -24.1395546072       -8.8794149511  MEMB      91              0.0000000000
     10502        91  CHL1      C13           -16.5661422748      -22.7436946037      -10.2734222481  MEMB      91              0.0000000000
     10503        91  CHL1      C18           -17.4791610991      -21.4874214772      -10.2499887050  MEMB      91              0.0000000000
     10504        91  CHL1      H18A          -18.4508280436      -21.7010821776       -9.7629320896  MEMB      91              0.0000000000
     10505        91  CHL1      H18B          -16.9989606421      -20.6565792812       -9.6985989716  MEMB      91              0.0000000000
     10506        91  CHL1      H18C          -17.6865861501      -21.1159893118      -11.2722892555  MEMB      91              0.0000000000
     10507        91  CHL1      C12           -15.1752004573      -22.4717912260      -10.8742140472  MEMB      91              0.0000000000
     10508        91  CHL1      H12A          -14.6123304350      -21.7124345324      -10.2985922247  MEMB      91              0.0000000000
     10509        91  CHL1      H12B          -14.6047554642      -23.4249710963      -10.8581184825  MEMB      91              0.0000000000
     10510        91  CHL1      C11           -15.2910824365      -22.0372838879      -12.3437292560  MEMB      91              0.0000000000
     10511        91  CHL1      H11A          -15.7677876434      -21.0358950979      -12.3319304804  MEMB      91              0.0000000000
     10512        91  CHL1      H11B          -14.2715135307      -21.9237911463      -12.7693802603  MEMB      91              0.0000000000
     10513        91  CHL1      C9            -16.0966976034      -23.0479259296      -13.2214405881  MEMB      91              0.0000000000
     10514        91  CHL1      H9            -15.4724151938      -23.9761402381      -13.2447479406  MEMB      91              0.0000000000
     10515        91  CHL1      C10           -16.2899713899      -22.6185566320      -14.6990652317  MEMB      91              0.0000000000
     10516        91  CHL1      C19           -16.6070426831      -21.0976429333      -14.7239630951  MEMB      91              0.0000000000
     10517        91  CHL1      H19A          -16.8493633294      -20.7328202328      -15.7396599074  MEMB      91              0.0000000000
     10518        91  CHL1      H19B          -17.4754014453      -20.8751156429      -14.0659014265  MEMB      91              0.0000000000
     10519        91  CHL1      H19C          -15.7335047923      -20.5027246276      -14.3888916797  MEMB      91              0.0000000000
     10520        91  CHL1      C1            -14.9867394938      -22.9173540486      -15.4883215853  MEMB      91              0.0000000000
     10521        91  CHL1      H1A           -14.1500795014      -22.3344067073      -15.0466831338  MEMB      91              0.0000000000
     10522        91  CHL1      H1B           -14.7326852599      -23.9961101989      -15.3690955558  MEMB      91              0.0000000000
     10523        91  CHL1      C2            -15.0960581540      -22.5977311166      -16.9865668267  MEMB      91              0.0000000000
     10524        91  CHL1      H2A           -14.1640235853      -22.9166681587      -17.5017875902  MEMB      91              0.0000000000
     10525        91  CHL1      H2B           -15.1917298409      -21.4958350555      -17.1050665190  MEMB      91              0.0000000000
     10526        91  CHL1      C20           -16.4878037026      -22.5658665344       -7.6148025350  MEMB      91              0.0000000000
     10527        91  CHL1      H20           -17.3854533696      -21.9094998754       -7.5156102909  MEMB      91              0.0000000000
     10528        91  CHL1      C21           -15.2478331269      -21.6449904446       -7.6472911431  MEMB      91              0.0000000000
     10529        91  CHL1      H21A          -14.3218040194      -22.2365472770       -7.7739437515  MEMB      91              0.0000000000
     10530        91  CHL1      H21B          -15.1724388318      -21.0544530891       -6.7117007719  MEMB      91              0.0000000000
     10531        91  CHL1      H21C          -15.3191524512      -20.9111193024       -8.4728818300  MEMB      91              0.0000000000
     10532        91  CHL1      C22           -16.4716687637      -23.5198466750       -6.3926283343  MEMB      91              0.0000000000
     10533        91  CHL1      H22A          -17.4331442606      -24.0769542394       -6.3366731756  MEMB      91              0.0000000000
     10534        91  CHL1      H22B          -15.6604704927      -24.2707680925       -6.5122530025  MEMB      91              0.0000000000
     10535        91  CHL1      C23           -16.2883326505      -22.8269230525       -5.0478531928  MEMB      91              0.0000000000
     10536        91  CHL1      H23A          -15.2614547044      -22.4012542073       -4.9888807167  MEMB      91              0.0000000000
     10537        91  CHL1      H23B          -17.0177781094      -21.9889206782       -4.9775461283  MEMB      91              0.0000000000
     10538        91  CHL1      C24           -16.4894222215      -23.7991392703       -3.8768344094  MEMB      91              0.0000000000
     10539        91  CHL1      H24A          -17.5764019609      -23.9375524873       -3.6931211815  MEMB      91              0.0000000000
     10540        91  CHL1      H24B          -16.0605319259      -24.7898620708       -4.1468168547  MEMB      91              0.0000000000
     10541        91  CHL1      C25           -15.7901926318      -23.3058696990       -2.6026651588  MEMB      91              0.0000000000
     10542        91  CHL1      H25           -14.7018167987      -23.2180036619       -2.8382913856  MEMB      91              0.0000000000
     10543        91  CHL1      C26           -16.2785124481      -21.9145080521       -2.1960281490  MEMB      91              0.0000000000
     10544        91  CHL1      H26A          -16.5240214383      -21.2635215605       -3.0566331873  MEMB      91              0.0000000000
     10545        91  CHL1      H26B          -17.1832290347      -22.0062907380       -1.5604183765  MEMB      91              0.0000000000
     10546        91  CHL1      H26C          -15.4766151518      -21.4100561597       -1.6222890589  MEMB      91              0.0000000000
     10547        91  CHL1      C27           -15.9501999318      -24.2932725478       -1.4350558437  MEMB      91              0.0000000000
     10548        91  CHL1      H27A          -15.4624529925      -25.2619275665       -1.6714071502  MEMB      91              0.0000000000
     10549        91  CHL1      H27B          -15.4842928389      -23.8730418238       -0.5183660484  MEMB      91              0.0000000000
     10550        91  CHL1      H27C          -17.0261433272      -24.4766599939       -1.2293891047  MEMB      91              0.0000000000
     10551        92  SAPE      N             -19.5119108836       22.7343171001      -21.6867475194  MEMB      92              0.0000000000
     10552        92  SAPE      HN1           -19.7182069345       21.7660714393      -22.0566745956  MEMB      92              0.0000000000
     10553        92  SAPE      HN2           -19.5926306693       23.4376325340      -22.4544053010  MEMB      92              0.0000000000
     10554        92  SAPE      HN3           -18.5426357363       22.7334521492      -21.3275480877  MEMB      92              0.0000000000
     10555        92  SAPE      C12           -20.4483268740       23.0167068155      -20.5370497461  MEMB      92              0.0000000000
     10556        92  SAPE      H12A          -21.3013092781       23.5998473993      -20.9297265115  MEMB      92              0.0000000000
     10557        92  SAPE      H12B          -19.8989948455       23.6254005437      -19.7893000873  MEMB      92              0.0000000000
     10558        92  SAPE      C11           -20.9229840983       21.7200370449      -19.8693809399  MEMB      92              0.0000000000
     10559        92  SAPE      H11A          -21.5714779253       21.1294522328      -20.5666680735  MEMB      92              0.0000000000
     10560        92  SAPE      H11B          -21.5645521345       21.9909256450      -18.9993077968  MEMB      92              0.0000000000
     10561        92  SAPE      P             -19.2852037439       19.7476964925      -20.2564084914  MEMB      92              0.0000000000
     10562        92  SAPE      O13           -19.8646080087       18.5121653868      -19.7193891641  MEMB      92              0.0000000000
     10563        92  SAPE      O14           -19.5352191262       20.0436100364      -21.6872227025  MEMB      92              0.0000000000
     10564        92  SAPE      O12           -19.7886905056       20.9884603865      -19.4006566756  MEMB      92              0.0000000000
     10565        92  SAPE      O11           -17.7130637885       19.7128675072      -20.0369225501  MEMB      92              0.0000000000
     10566        92  SAPE      C1            -17.0832554812       18.4109674433      -20.0709068979  MEMB      92              0.0000000000
     10567        92  SAPE      HA            -17.6990536368       17.6114417040      -19.5853372408  MEMB      92              0.0000000000
     10568        92  SAPE      HB            -16.9263572009       18.1218533190      -21.1326823149  MEMB      92              0.0000000000
     10569        92  SAPE      C2            -15.7143869657       18.3760877456      -19.3281775210  MEMB      92              0.0000000000
     10570        92  SAPE      HS            -15.0399297828       17.6860025792      -19.8844370304  MEMB      92              0.0000000000
     10571        92  SAPE      O21           -15.9344594440       17.8383191650      -18.0184328717  MEMB      92              0.0000000000
     10572        92  SAPE      C21           -14.9380399849       17.8110287258      -17.1491854153  MEMB      92              0.0000000000
     10573        92  SAPE      O22           -13.7871135077       18.1661023193      -17.3430552982  MEMB      92              0.0000000000
     10574        92  SAPE      C22           -15.5153597223       17.3749043235      -15.8144592051  MEMB      92              0.0000000000
     10575        92  SAPE      H2R           -16.3351931329       16.6617214178      -16.0430537977  MEMB      92              0.0000000000
     10576        92  SAPE      H2S           -14.7171271925       16.8255784429      -15.2789062037  MEMB      92              0.0000000000
     10577        92  SAPE      C3            -15.0778837409       19.7917221095      -19.2863881118  MEMB      92              0.0000000000
     10578        92  SAPE      HX            -15.2531610074       20.2297541528      -20.3017872720  MEMB      92              0.0000000000
     10579        92  SAPE      HY            -13.9877403071       19.6639182499      -19.1411571165  MEMB      92              0.0000000000
     10580        92  SAPE      O31           -15.6152539584       20.5931279051      -18.2065104424  MEMB      92              0.0000000000
     10581        92  SAPE      C31           -15.7256850686       21.8752385792      -18.4685945455  MEMB      92              0.0000000000
     10582        92  SAPE      O32           -15.2828584024       22.4216489795      -19.4736514951  MEMB      92              0.0000000000
     10583        92  SAPE      C32           -16.3143900341       22.6088607892      -17.2782458857  MEMB      92              0.0000000000
     10584        92  SAPE      H2X           -16.0343028308       23.6788885243      -17.3746952601  MEMB      92              0.0000000000
     10585        92  SAPE      H2Y           -15.8337292078       22.2033755079      -16.3623711980  MEMB      92              0.0000000000
     10586        92  SAPE      C23           -16.0824666640       18.5729765781      -15.0073499934  MEMB      92              0.0000000000
     10587        92  SAPE      H3R           -16.8955837071       18.1995258384      -14.3452534845  MEMB      92              0.0000000000
     10588        92  SAPE      H3S           -16.5680015722       19.3032214674      -15.6956292458  MEMB      92              0.0000000000
     10589        92  SAPE      C24           -15.0135181158       19.2761386140      -14.1545080545  MEMB      92              0.0000000000
     10590        92  SAPE      H4R           -15.4393924560       20.2016218941      -13.7089730820  MEMB      92              0.0000000000
     10591        92  SAPE      H4S           -14.1759499397       19.5741230115      -14.8291639485  MEMB      92              0.0000000000
     10592        92  SAPE      C25           -14.5469796190       18.3402570275      -13.0674687911  MEMB      92              0.0000000000
     10593        92  SAPE      H5R           -15.2745570244       17.5890291689      -12.7317160523  MEMB      92              0.0000000000
     10594        92  SAPE      C26           -13.3553984186       18.3681145421      -12.4625060355  MEMB      92              0.0000000000
     10595        92  SAPE      H6R           -13.1369127978       17.6133499024      -11.6896571334  MEMB      92              0.0000000000
     10596        92  SAPE      C27           -12.2346442526       19.3409534705      -12.7291309620  MEMB      92              0.0000000000
     10597        92  SAPE      H7R           -12.1411762814       19.5103287737      -13.8263753355  MEMB      92              0.0000000000
     10598        92  SAPE      H7S           -11.2696961946       18.8830364870      -12.4248428557  MEMB      92              0.0000000000
     10599        92  SAPE      C28           -12.3623393900       20.6827344503      -12.0481198126  MEMB      92              0.0000000000
     10600        92  SAPE      H8R           -12.1715695123       21.5301141864      -12.7217518725  MEMB      92              0.0000000000
     10601        92  SAPE      C29           -12.6602520476       20.9443372102      -10.7571525393  MEMB      92              0.0000000000
     10602        92  SAPE      H9R           -12.6863278249       21.9933433446      -10.4188372846  MEMB      92              0.0000000000
     10603        92  SAPE      C210          -12.9435116075       19.9447042673       -9.6648295159  MEMB      92              0.0000000000
     10604        92  SAPE      H10R          -12.1602567337       20.0126916639       -8.8843771405  MEMB      92              0.0000000000
     10605        92  SAPE      H10S          -12.8922082030       18.8935934499      -10.0069544593  MEMB      92              0.0000000000
     10606        92  SAPE      C211          -14.3175965650       20.2036030612       -9.1186386075  MEMB      92              0.0000000000
     10607        92  SAPE      H11R          -15.1513065091       20.0331128480       -9.8211403674  MEMB      92              0.0000000000
     10608        92  SAPE      C212          -14.6034727093       20.6228063512       -7.8812712527  MEMB      92              0.0000000000
     10609        92  SAPE      H12R          -15.6599079434       20.5973478488       -7.5882074385  MEMB      92              0.0000000000
     10610        92  SAPE      C213          -13.6479235805       20.9298189351       -6.7504840912  MEMB      92              0.0000000000
     10611        92  SAPE      H13R          -12.6440245823       20.5094351125       -6.9495636328  MEMB      92              0.0000000000
     10612        92  SAPE      H13S          -14.0191465075       20.3638774126       -5.8802894082  MEMB      92              0.0000000000
     10613        92  SAPE      C214          -13.4296599658       22.3342570301       -6.2931891976  MEMB      92              0.0000000000
     10614        92  SAPE      H14R          -13.0276193525       23.0127415627       -7.0539371456  MEMB      92              0.0000000000
     10615        92  SAPE      C215          -13.6848377691       22.7722634795       -5.0474694077  MEMB      92              0.0000000000
     10616        92  SAPE      H15R          -13.4255162103       23.7998760256       -4.7794926178  MEMB      92              0.0000000000
     10617        92  SAPE      C216          -14.2290483417       21.9463809008       -3.9094714355  MEMB      92              0.0000000000
     10618        92  SAPE      H16R          -13.8364407692       20.9060573766       -3.9276717597  MEMB      92              0.0000000000
     10619        92  SAPE      H16S          -15.3313603007       21.8778395248       -4.0042563533  MEMB      92              0.0000000000
     10620        92  SAPE      C217          -13.9146303056       22.5349074763       -2.5283607773  MEMB      92              0.0000000000
     10621        92  SAPE      H17R          -13.8848900393       23.6466302688       -2.5714798304  MEMB      92              0.0000000000
     10622        92  SAPE      H17S          -12.9077737196       22.1805702723       -2.2175674142  MEMB      92              0.0000000000
     10623        92  SAPE      C218          -14.9563885502       22.1352355913       -1.4756976211  MEMB      92              0.0000000000
     10624        92  SAPE      H18R          -15.1156565443       21.0335326609       -1.4942077748  MEMB      92              0.0000000000
     10625        92  SAPE      H18S          -15.9303569000       22.6090658152       -1.7365731652  MEMB      92              0.0000000000
     10626        92  SAPE      C219          -14.5396941986       22.5623320964       -0.0641316512  MEMB      92              0.0000000000
     10627        92  SAPE      H19R          -15.4321538934       22.5032652779        0.5968055111  MEMB      92              0.0000000000
     10628        92  SAPE      H19S          -14.2080510303       23.6258189166       -0.0747944475  MEMB      92              0.0000000000
     10629        92  SAPE      C220          -13.4232156729       21.6934709349        0.5197502531  MEMB      92              0.0000000000
     10630        92  SAPE      H20R          -13.4212300065       21.7436319178        1.6292865756  MEMB      92              0.0000000000
     10631        92  SAPE      H20S          -12.4393808700       22.0458775227        0.1547915438  MEMB      92              0.0000000000
     10632        92  SAPE      H20T          -13.5507609068       20.6309671566        0.2160831795  MEMB      92              0.0000000000
     10633        92  SAPE      C33           -17.8446295851       22.4632753105      -17.1656857582  MEMB      92              0.0000000000
     10634        92  SAPE      H3X           -18.1229884127       21.3834632345      -17.0957535158  MEMB      92              0.0000000000
     10635        92  SAPE      H3Y           -18.3405416033       22.8766899239      -18.0714027254  MEMB      92              0.0000000000
     10636        92  SAPE      C34           -18.3571948567       23.2060421038      -15.9253540294  MEMB      92              0.0000000000
     10637        92  SAPE      H4X           -17.9837224734       24.2554169259      -15.9553661102  MEMB      92              0.0000000000
     10638        92  SAPE      H4Y           -17.9186076538       22.7113875090      -15.0313639169  MEMB      92              0.0000000000
     10639        92  SAPE      C35           -19.8899662607       23.2374678144      -15.8096145480  MEMB      92              0.0000000000
     10640        92  SAPE      H5X           -20.2782811875       22.1960407570      -15.8277120160  MEMB      92              0.0000000000
     10641        92  SAPE      H5Y           -20.3064595385       23.7700183427      -16.6953995289  MEMB      92              0.0000000000
     10642        92  SAPE      C36           -20.4173872638       23.9593658090      -14.5538476896  MEMB      92              0.0000000000
     10643        92  SAPE      H6X           -21.5303326359       23.9021142776      -14.5564251922  MEMB      92              0.0000000000
     10644        92  SAPE      H6Y           -20.1542435329       25.0396517936      -14.6271002280  MEMB      92              0.0000000000
     10645        92  SAPE      C37           -19.8839340311       23.4151288056      -13.2179040229  MEMB      92              0.0000000000
     10646        92  SAPE      H7X           -20.3309839372       24.0118304051      -12.3929106816  MEMB      92              0.0000000000
     10647        92  SAPE      H7Y           -18.7839762549       23.5719129499      -13.1728627897  MEMB      92              0.0000000000
     10648        92  SAPE      C38           -20.1823912708       21.9269758175      -12.9837224534  MEMB      92              0.0000000000
     10649        92  SAPE      H8X           -19.5858351481       21.3283404414      -13.7111337218  MEMB      92              0.0000000000
     10650        92  SAPE      H8Y           -21.2581012392       21.7180712027      -13.1753935647  MEMB      92              0.0000000000
     10651        92  SAPE      C39           -19.8314007324       21.4709074788      -11.5604133222  MEMB      92              0.0000000000
     10652        92  SAPE      H9X           -18.8393307214       21.8832330499      -11.2761156563  MEMB      92              0.0000000000
     10653        92  SAPE      H9Y           -19.7381692960       20.3620976010      -11.5584876337  MEMB      92              0.0000000000
     10654        92  SAPE      C310          -20.8874378869       21.8792528828      -10.5183704375  MEMB      92              0.0000000000
     10655        92  SAPE      H10X          -21.8501604224       21.3702991267      -10.7503671445  MEMB      92              0.0000000000
     10656        92  SAPE      H10Y          -21.0638010698       22.9757824928      -10.5819707548  MEMB      92              0.0000000000
     10657        92  SAPE      C311          -20.4715097570       21.5354420875       -9.0818691457  MEMB      92              0.0000000000
     10658        92  SAPE      H11X          -21.1465817750       22.0588661988       -8.3660378168  MEMB      92              0.0000000000
     10659        92  SAPE      H11Y          -19.4364214889       21.9036274326       -8.9033345609  MEMB      92              0.0000000000
     10660        92  SAPE      C312          -20.5692298085       20.0320389923       -8.8060869109  MEMB      92              0.0000000000
     10661        92  SAPE      H12X          -20.0636691250       19.4688344747       -9.6203736315  MEMB      92              0.0000000000
     10662        92  SAPE      H12Y          -21.6430140891       19.7409829319       -8.8158727513  MEMB      92              0.0000000000
     10663        92  SAPE      C313          -19.9489694492       19.6196219826       -7.4719088772  MEMB      92              0.0000000000
     10664        92  SAPE      H13X          -19.8947702141       20.4968869499       -6.7897778142  MEMB      92              0.0000000000
     10665        92  SAPE      H13Y          -18.9028160804       19.2889665844       -7.6704544531  MEMB      92              0.0000000000
     10666        92  SAPE      C314          -20.7222466384       18.4955731227       -6.7649015059  MEMB      92              0.0000000000
     10667        92  SAPE      H14X          -20.9485605675       17.6794906311       -7.4815526597  MEMB      92              0.0000000000
     10668        92  SAPE      H14Y          -21.6802888569       18.9009298018       -6.3883148199  MEMB      92              0.0000000000
     10669        92  SAPE      C315          -19.9114194863       17.9387253011       -5.5983470892  MEMB      92              0.0000000000
     10670        92  SAPE      H15X          -19.8061028574       18.7512293166       -4.8479999609  MEMB      92              0.0000000000
     10671        92  SAPE      H15Y          -18.9023068478       17.6943086835       -6.0044142800  MEMB      92              0.0000000000
     10672        92  SAPE      C316          -20.4307996391       16.6622954540       -4.9210065828  MEMB      92              0.0000000000
     10673        92  SAPE      H16X          -19.5579667821       16.1216557200       -4.4841668243  MEMB      92              0.0000000000
     10674        92  SAPE      H16Y          -20.8663228943       15.9943488489       -5.6941319676  MEMB      92              0.0000000000
     10675        92  SAPE      C317          -21.4319360312       16.8919559641       -3.7773662683  MEMB      92              0.0000000000
     10676        92  SAPE      H17X          -21.7907989845       15.8845923779       -3.4622505121  MEMB      92              0.0000000000
     10677        92  SAPE      H17Y          -22.3028031530       17.4633169630       -4.1724259910  MEMB      92              0.0000000000
     10678        92  SAPE      C318          -20.8957353361       17.5991955799       -2.5246037834  MEMB      92              0.0000000000
     10679        92  SAPE      H18X          -21.6830349413       17.6190042534       -1.7385451260  MEMB      92              0.0000000000
     10680        92  SAPE      H18Y          -20.6092074301       18.6470130938       -2.7510830141  MEMB      92              0.0000000000
     10681        92  SAPE      H18Z          -20.0102184171       17.0664741731       -2.1157436302  MEMB      92              0.0000000000
     10682        93  CHL1      C3             22.9536396734      -17.1539588416      -17.3754428510  MEMB      93              0.0000000000
     10683        93  CHL1      H3             22.4937690389      -16.1377599697      -17.3337612282  MEMB      93              0.0000000000
     10684        93  CHL1      O3             23.0192027284      -17.5693023649      -18.7274023656  MEMB      93              0.0000000000
     10685        93  CHL1      H3'            23.8721236250      -17.2462279623      -19.0731514686  MEMB      93              0.0000000000
     10686        93  CHL1      C4             24.3745173652      -17.1248055699      -16.7922994596  MEMB      93              0.0000000000
     10687        93  CHL1      H4A            24.8184926996      -18.1365463398      -16.9030140756  MEMB      93              0.0000000000
     10688        93  CHL1      H4B            25.0066833514      -16.4436541906      -17.4033594303  MEMB      93              0.0000000000
     10689        93  CHL1      C5             24.3363118617      -16.7187633237      -15.3325344022  MEMB      93              0.0000000000
     10690        93  CHL1      C6             25.0060430748      -15.6444688933      -14.8863269903  MEMB      93              0.0000000000
     10691        93  CHL1      H6             25.6592148801      -15.1006341385      -15.5777611599  MEMB      93              0.0000000000
     10692        93  CHL1      C7             25.0111685677      -15.1769387024      -13.4574840813  MEMB      93              0.0000000000
     10693        93  CHL1      H7A            26.0385894780      -14.8869448622      -13.1398145149  MEMB      93              0.0000000000
     10694        93  CHL1      H7B            24.3673667396      -14.2767594728      -13.3507344426  MEMB      93              0.0000000000
     10695        93  CHL1      C8             24.5025577344      -16.2786541399      -12.4927579702  MEMB      93              0.0000000000
     10696        93  CHL1      H8             25.3205059958      -17.0269155373      -12.4309418678  MEMB      93              0.0000000000
     10697        93  CHL1      C14            24.2068342446      -15.7053137841      -11.1070800495  MEMB      93              0.0000000000
     10698        93  CHL1      H14            23.3278746648      -15.0250011295      -11.2367345774  MEMB      93              0.0000000000
     10699        93  CHL1      C15            25.2839685356      -14.8416024225      -10.4295582945  MEMB      93              0.0000000000
     10700        93  CHL1      H15A           26.2661789302      -15.3088813322      -10.6302998072  MEMB      93              0.0000000000
     10701        93  CHL1      H15B           25.2983253668      -13.8021427703      -10.8155969533  MEMB      93              0.0000000000
     10702        93  CHL1      C16            24.9364657835      -14.9003352152       -8.9304530780  MEMB      93              0.0000000000
     10703        93  CHL1      H16A           25.8350403125      -15.2371776491       -8.3717724295  MEMB      93              0.0000000000
     10704        93  CHL1      H16B           24.6262874481      -13.9092810694       -8.5411173264  MEMB      93              0.0000000000
     10705        93  CHL1      C17            23.7703118556      -15.9316454298       -8.7704588688  MEMB      93              0.0000000000
     10706        93  CHL1      H17            22.8185948693      -15.3596437172       -8.7842100074  MEMB      93              0.0000000000
     10707        93  CHL1      C13            23.7808266857      -16.7491520170      -10.0767513002  MEMB      93              0.0000000000
     10708        93  CHL1      C18            24.8769856397      -17.8269702120       -9.9171881072  MEMB      93              0.0000000000
     10709        93  CHL1      H18A           25.8066776835      -17.4029275581       -9.4857745443  MEMB      93              0.0000000000
     10710        93  CHL1      H18B           24.5329476373      -18.6558524046       -9.2683813334  MEMB      93              0.0000000000
     10711        93  CHL1      H18C           25.1259893025      -18.2774556766      -10.8880988125  MEMB      93              0.0000000000
     10712        93  CHL1      C12            22.4405725875      -17.3216720590      -10.5861061800  MEMB      93              0.0000000000
     10713        93  CHL1      H12A           22.0256837236      -18.0907223582       -9.9113916852  MEMB      93              0.0000000000
     10714        93  CHL1      H12B           21.6998871314      -16.4937536068      -10.6451889535  MEMB      93              0.0000000000
     10715        93  CHL1      C11            22.6100513276      -17.9458665773      -11.9837216988  MEMB      93              0.0000000000
     10716        93  CHL1      H11A           23.2494130776      -18.8432415997      -11.8558103599  MEMB      93              0.0000000000
     10717        93  CHL1      H11B           21.6219754659      -18.2966385240      -12.3439846636  MEMB      93              0.0000000000
     10718        93  CHL1      C9             23.2371938571      -16.9688265003      -13.0253982419  MEMB      93              0.0000000000
     10719        93  CHL1      H9             22.4948990804      -16.1387056159      -13.1384664084  MEMB      93              0.0000000000
     10720        93  CHL1      C10            23.4162979702      -17.5786113910      -14.4442830827  MEMB      93              0.0000000000
     10721        93  CHL1      C19            24.0830973793      -18.9723245107      -14.3144506037  MEMB      93              0.0000000000
     10722        93  CHL1      H19A           25.0271774901      -18.8967147164      -13.7347515260  MEMB      93              0.0000000000
     10723        93  CHL1      H19B           23.4025632550      -19.6738474124      -13.7908013078  MEMB      93              0.0000000000
     10724        93  CHL1      H19C           24.3040968477      -19.4327765281      -15.2964429906  MEMB      93              0.0000000000
     10725        93  CHL1      C1             22.0179989876      -17.7363085295      -15.1133335405  MEMB      93              0.0000000000
     10726        93  CHL1      H1A            21.4393287068      -18.5037494934      -14.5556183404  MEMB      93              0.0000000000
     10727        93  CHL1      H1B            21.4667063113      -16.7745603730      -15.0218577054  MEMB      93              0.0000000000
     10728        93  CHL1      C2             22.0747291847      -18.1347869074      -16.5947958408  MEMB      93              0.0000000000
     10729        93  CHL1      H2A            21.0517389534      -18.1596310920      -17.0295625245  MEMB      93              0.0000000000
     10730        93  CHL1      H2B            22.5012824936      -19.1582939982      -16.6890505402  MEMB      93              0.0000000000
     10731        93  CHL1      C20            23.8214641162      -16.6999888310       -7.4380679426  MEMB      93              0.0000000000
     10732        93  CHL1      H20            24.7788215776      -17.2708735384       -7.3828964588  MEMB      93              0.0000000000
     10733        93  CHL1      C21            22.6665082828      -17.7184516211       -7.3508842287  MEMB      93              0.0000000000
     10734        93  CHL1      H21A           21.6881588699      -17.2194190171       -7.5114500647  MEMB      93              0.0000000000
     10735        93  CHL1      H21B           22.6339582877      -18.2454482776       -6.3775767508  MEMB      93              0.0000000000
     10736        93  CHL1      H21C           22.7987963224      -18.5189348102       -8.1021468438  MEMB      93              0.0000000000
     10737        93  CHL1      C22            23.8083472081      -15.7809840349       -6.1930404180  MEMB      93              0.0000000000
     10738        93  CHL1      H22A           24.7281415820      -15.1569501823       -6.1928425393  MEMB      93              0.0000000000
     10739        93  CHL1      H22B           22.9303523971      -15.0996616251       -6.2242592380  MEMB      93              0.0000000000
     10740        93  CHL1      C23            23.7662357910      -16.6133457065       -4.9011066868  MEMB      93              0.0000000000
     10741        93  CHL1      H23A           22.7091814937      -16.8705047091       -4.6650708452  MEMB      93              0.0000000000
     10742        93  CHL1      H23B           24.3152526971      -17.5663901051       -5.0784381665  MEMB      93              0.0000000000
     10743        93  CHL1      C24            24.4208445241      -15.9552404870       -3.6894081668  MEMB      93              0.0000000000
     10744        93  CHL1      H24A           25.4661205600      -15.6851530226       -3.9572598855  MEMB      93              0.0000000000
     10745        93  CHL1      H24B           23.8707527456      -15.0254789811       -3.4625327803  MEMB      93              0.0000000000
     10746        93  CHL1      C25            24.4615927497      -16.9096890124       -2.4777658531  MEMB      93              0.0000000000
     10747        93  CHL1      H25            24.8256025049      -17.8865795483       -2.8751426372  MEMB      93              0.0000000000
     10748        93  CHL1      C26            25.4772830640      -16.4749908616       -1.3997978022  MEMB      93              0.0000000000
     10749        93  CHL1      H26A           25.1920297571      -15.5487044267       -0.8732021151  MEMB      93              0.0000000000
     10750        93  CHL1      H26B           25.5703615170      -17.2707717085       -0.6319005987  MEMB      93              0.0000000000
     10751        93  CHL1      H26C           26.4761834266      -16.3130143254       -1.8563539511  MEMB      93              0.0000000000
     10752        93  CHL1      C27            23.0664708533      -17.1670176111       -1.8861307525  MEMB      93              0.0000000000
     10753        93  CHL1      H27A           22.5614732950      -16.2068521702       -1.6691006623  MEMB      93              0.0000000000
     10754        93  CHL1      H27B           22.4260861239      -17.7278008346       -2.5988221335  MEMB      93              0.0000000000
     10755        93  CHL1      H27C           23.1436097698      -17.7518276012       -0.9451787666  MEMB      93              0.0000000000
     10756        94  POPC      N              25.1417275921       21.3092462855      -19.9989333173  MEMB      94              0.0000000000
     10757        94  POPC      C12            24.3406320661       20.0529985842      -20.2354918401  MEMB      94              0.0000000000
     10758        94  POPC      H12A           24.9724290175       19.3213144736      -20.7390214454  MEMB      94              0.0000000000
     10759        94  POPC      H12B           23.5001337010       20.2706064572      -20.8818785882  MEMB      94              0.0000000000
     10760        94  POPC      C13            26.4341593775       20.9152485893      -19.3537011022  MEMB      94              0.0000000000
     10761        94  POPC      H13A           27.0264242251       21.7639483611      -19.0636853131  MEMB      94              0.0000000000
     10762        94  POPC      H13B           26.2082104619       20.3014729973      -18.4773722941  MEMB      94              0.0000000000
     10763        94  POPC      H13C           27.0305673734       20.2934645492      -20.0176589393  MEMB      94              0.0000000000
     10764        94  POPC      C14            25.3939416643       21.9934411173      -21.2902743040  MEMB      94              0.0000000000
     10765        94  POPC      H14A           26.0667982043       21.4205972348      -21.9203581416  MEMB      94              0.0000000000
     10766        94  POPC      H14B           24.4720255735       22.1813376520      -21.8251961174  MEMB      94              0.0000000000
     10767        94  POPC      H14C           25.8568680524       22.9598633819      -21.1240254789  MEMB      94              0.0000000000
     10768        94  POPC      C15            24.3891476531       22.2557458101      -19.1189496179  MEMB      94              0.0000000000
     10769        94  POPC      H15A           23.3991893764       22.4655795201      -19.5143063040  MEMB      94              0.0000000000
     10770        94  POPC      H15B           24.8823237008       23.2187171381      -19.0666747823  MEMB      94              0.0000000000
     10771        94  POPC      H15C           24.3039289544       21.8229691127      -18.1311887460  MEMB      94              0.0000000000
     10772        94  POPC      C11            23.7877201721       19.3602397448      -18.9825211404  MEMB      94              0.0000000000
     10773        94  POPC      H11A           23.1303601245       18.5489394294      -19.3920833191  MEMB      94              0.0000000000
     10774        94  POPC      H11B           23.1276603583       20.0294100853      -18.3933603791  MEMB      94              0.0000000000
     10775        94  POPC      P              24.8097075223       17.3843438273      -17.6703642815  MEMB      94              0.0000000000
     10776        94  POPC      O13            25.4139686377       17.2041128445      -16.3349115977  MEMB      94              0.0000000000
     10777        94  POPC      O14            25.2760178890       16.5214220382      -18.7943658783  MEMB      94              0.0000000000
     10778        94  POPC      O12            24.8536190936       18.8971280522      -18.1445604932  MEMB      94              0.0000000000
     10779        94  POPC      O11            23.2420844732       17.1978477984      -17.6113899451  MEMB      94              0.0000000000
     10780        94  POPC      C1             22.6296887592       16.6111726915      -16.4910768029  MEMB      94              0.0000000000
     10781        94  POPC      HA             23.1458384352       15.6718250084      -16.1908450444  MEMB      94              0.0000000000
     10782        94  POPC      HB             21.6449173103       16.2318286262      -16.8009962356  MEMB      94              0.0000000000
     10783        94  POPC      C2             22.3545872525       17.6674504114      -15.3304135316  MEMB      94              0.0000000000
     10784        94  POPC      HS             23.3299382497       17.1293475024      -15.1006538902  MEMB      94              0.0000000000
     10785        94  POPC      O21            23.2898080643       18.6079783961      -14.7587001625  MEMB      94              0.0000000000
     10786        94  POPC      C21            22.8310927586       19.3430515122      -13.7591596282  MEMB      94              0.0000000000
     10787        94  POPC      O22            21.6604484520       19.5507866455      -13.5276450887  MEMB      94              0.0000000000
     10788        94  POPC      C22            23.9487656823       19.8193476509      -12.8435455283  MEMB      94              0.0000000000
     10789        94  POPC      H2R            23.9130352799       19.1718759270      -11.9486410471  MEMB      94              0.0000000000
     10790        94  POPC      H2S            23.6833719842       20.8314059209      -12.5049710632  MEMB      94              0.0000000000
     10791        94  POPC      C3             21.6952290643       16.8785442208      -14.1444020133  MEMB      94              0.0000000000
     10792        94  POPC      HX             21.1981308664       15.9912161087      -14.5861692380  MEMB      94              0.0000000000
     10793        94  POPC      HY             20.8517400917       17.4799632851      -13.7393383262  MEMB      94              0.0000000000
     10794        94  POPC      O31            22.6944481828       16.4783614186      -13.1767846464  MEMB      94              0.0000000000
     10795        94  POPC      C31            22.4439938260       16.8265992683      -11.9459884230  MEMB      94              0.0000000000
     10796        94  POPC      O32            21.4323260289       17.3574117420      -11.5383392307  MEMB      94              0.0000000000
     10797        94  POPC      C32            23.6315325294       16.4580897024      -11.0825031827  MEMB      94              0.0000000000
     10798        94  POPC      H2X            24.4175792628       17.2271950350      -11.2294265270  MEMB      94              0.0000000000
     10799        94  POPC      H2Y            24.0402785409       15.5030146277      -11.4670649658  MEMB      94              0.0000000000
     10800        94  POPC      C23            25.3739325230       19.7842211320      -13.4268195829  MEMB      94              0.0000000000
     10801        94  POPC      H3R            25.5126102452       18.8851770372      -14.0718176906  MEMB      94              0.0000000000
     10802        94  POPC      H3S            26.0915028130       19.6626711731      -12.5880715340  MEMB      94              0.0000000000
     10803        94  POPC      C24            25.7607632702       21.0490353284      -14.2095136350  MEMB      94              0.0000000000
     10804        94  POPC      H4R            25.1599441268       21.0485055456      -15.1496673550  MEMB      94              0.0000000000
     10805        94  POPC      H4S            26.8311053168       20.9419870004      -14.4996939955  MEMB      94              0.0000000000
     10806        94  POPC      C25            25.5665531914       22.4254714721      -13.5179209035  MEMB      94              0.0000000000
     10807        94  POPC      H5R            24.5204252024       22.7676505126      -13.6912525488  MEMB      94              0.0000000000
     10808        94  POPC      H5S            26.2371158624       23.1515656500      -14.0341660643  MEMB      94              0.0000000000
     10809        94  POPC      C26            25.7831610366       22.5299128514      -11.9910040250  MEMB      94              0.0000000000
     10810        94  POPC      H6R            24.9566229058       22.0011004318      -11.4713969667  MEMB      94              0.0000000000
     10811        94  POPC      H6S            25.6911972694       23.6046763541      -11.7033168108  MEMB      94              0.0000000000
     10812        94  POPC      C27            27.1059142457       21.9979434458      -11.4314128969  MEMB      94              0.0000000000
     10813        94  POPC      H7R            27.8633670347       22.8103757482      -11.5259253488  MEMB      94              0.0000000000
     10814        94  POPC      H7S            27.4842182792       21.1391437329      -12.0218584471  MEMB      94              0.0000000000
     10815        94  POPC      C28            26.9954864191       21.6131077368       -9.9361584600  MEMB      94              0.0000000000
     10816        94  POPC      H8R            26.5593505834       22.4909056450       -9.4088972726  MEMB      94              0.0000000000
     10817        94  POPC      H8S            28.0313761303       21.4890408163       -9.5501572096  MEMB      94              0.0000000000
     10818        94  POPC      C29            26.2268722446       20.3448334402       -9.6340360426  MEMB      94              0.0000000000
     10819        94  POPC      H91            26.3518313901       19.5339001147      -10.3685760084  MEMB      94              0.0000000000
     10820        94  POPC      C210           25.4483134185       20.1225406828       -8.5554252256  MEMB      94              0.0000000000
     10821        94  POPC      H101           25.0217824916       19.1164622120       -8.4047141215  MEMB      94              0.0000000000
     10822        94  POPC      C211           25.1712287694       21.0804006189       -7.4200683140  MEMB      94              0.0000000000
     10823        94  POPC      H11R           24.0956633219       21.0103221359       -7.1476701985  MEMB      94              0.0000000000
     10824        94  POPC      H11S           25.3388892606       22.1444786135       -7.6984918872  MEMB      94              0.0000000000
     10825        94  POPC      C212           26.0083894159       20.7672168185       -6.1632411402  MEMB      94              0.0000000000
     10826        94  POPC      H12R           26.0260047103       19.6692101373       -5.9775179111  MEMB      94              0.0000000000
     10827        94  POPC      H12S           25.5113684464       21.2350056389       -5.2820801097  MEMB      94              0.0000000000
     10828        94  POPC      C213           27.4466443878       21.3088610583       -6.2284857264  MEMB      94              0.0000000000
     10829        94  POPC      H13R           27.4244724831       22.4125908925       -6.0978824115  MEMB      94              0.0000000000
     10830        94  POPC      H13S           27.8714901197       21.1012967388       -7.2355954196  MEMB      94              0.0000000000
     10831        94  POPC      C214           28.3902634475       20.6806167134       -5.1879220852  MEMB      94              0.0000000000
     10832        94  POPC      H14R           29.3589544233       21.2259679835       -5.1748432259  MEMB      94              0.0000000000
     10833        94  POPC      H14S           28.5822339870       19.6358466319       -5.5213591146  MEMB      94              0.0000000000
     10834        94  POPC      C215           27.8277055619       20.5563539772       -3.7652205508  MEMB      94              0.0000000000
     10835        94  POPC      H15R           28.5938126098       20.0919886874       -3.1033640783  MEMB      94              0.0000000000
     10836        94  POPC      H15S           26.9753087663       19.8443628473       -3.8191184437  MEMB      94              0.0000000000
     10837        94  POPC      C216           27.3174513853       21.8527305530       -3.1245014819  MEMB      94              0.0000000000
     10838        94  POPC      H16R           26.8124021874       22.4895655623       -3.8826176542  MEMB      94              0.0000000000
     10839        94  POPC      H16S           28.1717573137       22.4348624755       -2.7165331633  MEMB      94              0.0000000000
     10840        94  POPC      C217           26.3000623341       21.5386973848       -2.0199757857  MEMB      94              0.0000000000
     10841        94  POPC      H17R           26.7927808668       20.9091107009       -1.2443665819  MEMB      94              0.0000000000
     10842        94  POPC      H17S           25.4788718026       20.9293393396       -2.4643693187  MEMB      94              0.0000000000
     10843        94  POPC      C218           25.6919920516       22.7760213229       -1.3625341232  MEMB      94              0.0000000000
     10844        94  POPC      H18R           24.9870125827       22.4731659140       -0.5574146892  MEMB      94              0.0000000000
     10845        94  POPC      H18S           25.1370556667       23.3879290591       -2.1059448662  MEMB      94              0.0000000000
     10846        94  POPC      H18T           26.4951504551       23.3990094240       -0.9167856400  MEMB      94              0.0000000000
     10847        94  POPC      C33            23.2287356053       16.3460694531       -9.5947399977  MEMB      94              0.0000000000
     10848        94  POPC      H3X            22.1436827670       16.2007292855       -9.4466329925  MEMB      94              0.0000000000
     10849        94  POPC      H3Y            23.4934611935       17.3231391016       -9.1378760886  MEMB      94              0.0000000000
     10850        94  POPC      C34            23.9228895401       15.1690406703       -8.8949585075  MEMB      94              0.0000000000
     10851        94  POPC      H4X            24.9059635578       15.5601999056       -8.6145311942  MEMB      94              0.0000000000
     10852        94  POPC      H4Y            24.0379274045       14.3510537772       -9.6452612120  MEMB      94              0.0000000000
     10853        94  POPC      C35            23.3512782847       14.4841496286       -7.6427965229  MEMB      94              0.0000000000
     10854        94  POPC      H5X            24.0690497741       13.6685908144       -7.3791337959  MEMB      94              0.0000000000
     10855        94  POPC      H5Y            22.4066220292       13.9640142402       -7.8757367491  MEMB      94              0.0000000000
     10856        94  POPC      C36            23.1660840001       15.3449319790       -6.3924368811  MEMB      94              0.0000000000
     10857        94  POPC      H6X            23.6990845658       14.8512620444       -5.5485292441  MEMB      94              0.0000000000
     10858        94  POPC      H6Y            22.0815966985       15.3636622709       -6.1326697621  MEMB      94              0.0000000000
     10859        94  POPC      C37            23.6498375034       16.7880778575       -6.5255565565  MEMB      94              0.0000000000
     10860        94  POPC      H7X            22.9866179404       17.2801998150       -7.2597646605  MEMB      94              0.0000000000
     10861        94  POPC      H7Y            24.6920475921       16.8633082822       -6.9008014355  MEMB      94              0.0000000000
     10862        94  POPC      C38            23.5155782409       17.5592668896       -5.2250476593  MEMB      94              0.0000000000
     10863        94  POPC      H8X            24.5130642940       17.7077535907       -4.7702267512  MEMB      94              0.0000000000
     10864        94  POPC      H8Y            22.9091193582       16.9390420103       -4.5243168583  MEMB      94              0.0000000000
     10865        94  POPC      C39            22.8416826468       18.9167635322       -5.4119426666  MEMB      94              0.0000000000
     10866        94  POPC      H9X            22.2685761452       18.9462812615       -6.3588685074  MEMB      94              0.0000000000
     10867        94  POPC      H9Y            23.6054481874       19.7164705182       -5.4780387297  MEMB      94              0.0000000000
     10868        94  POPC      C310           21.8784996271       19.2018801421       -4.2727388109  MEMB      94              0.0000000000
     10869        94  POPC      H10X           21.1436333516       18.3723189057       -4.2222068524  MEMB      94              0.0000000000
     10870        94  POPC      H10Y           21.3236124107       20.1451553979       -4.4756424924  MEMB      94              0.0000000000
     10871        94  POPC      C311           22.5925579523       19.3010917928       -2.9307125113  MEMB      94              0.0000000000
     10872        94  POPC      H11X           23.3900184716       20.0718680199       -3.0205076860  MEMB      94              0.0000000000
     10873        94  POPC      H11Y           23.0852071129       18.3366580583       -2.6735574615  MEMB      94              0.0000000000
     10874        94  POPC      C312           21.6199867478       19.6862788274       -1.8210918708  MEMB      94              0.0000000000
     10875        94  POPC      H12X           21.0095017525       18.8002198955       -1.5371815331  MEMB      94              0.0000000000
     10876        94  POPC      H12Y           20.9229150847       20.4670911584       -2.2057641196  MEMB      94              0.0000000000
     10877        94  POPC      C313           22.3448101446       20.2510200259       -0.6015732766  MEMB      94              0.0000000000
     10878        94  POPC      H13X           22.8458423622       21.1959353778       -0.9078394303  MEMB      94              0.0000000000
     10879        94  POPC      H13Y           23.1362872103       19.5425785386       -0.2738527702  MEMB      94              0.0000000000
     10880        94  POPC      C314           21.3788583466       20.5340435927        0.5528740100  MEMB      94              0.0000000000
     10881        94  POPC      H14X           21.1683904262       19.5817022205        1.0812537345  MEMB      94              0.0000000000
     10882        94  POPC      H14Y           20.4147344795       20.9030729695        0.1375288711  MEMB      94              0.0000000000
     10883        94  POPC      C315           21.9124874258       21.5786695335        1.5383224640  MEMB      94              0.0000000000
     10884        94  POPC      H15X           22.0120369467       22.5486245100        1.0004689265  MEMB      94              0.0000000000
     10885        94  POPC      H15Y           22.9307222757       21.2805410003        1.8656770083  MEMB      94              0.0000000000
     10886        94  POPC      C316           21.0255684216       21.7639504686        2.7718176798  MEMB      94              0.0000000000
     10887        94  POPC      H16X           21.4241216170       22.5773348137        3.4153429250  MEMB      94              0.0000000000
     10888        94  POPC      H16Y           20.9978354184       20.8273061503        3.3708904210  MEMB      94              0.0000000000
     10889        94  POPC      H16Z           19.9867743948       22.0238867340        2.4750931842  MEMB      94              0.0000000000
     10890        95  SAPS      N              22.1752451106      -22.5916863848      -22.0575259159  MEMB      95              0.0000000000
     10891        95  SAPS      HN1            21.8649925330      -21.6025379164      -22.2017657060  MEMB      95              0.0000000000
     10892        95  SAPS      HN2            22.9173167962      -22.6309947056      -21.3360569107  MEMB      95              0.0000000000
     10893        95  SAPS      HN3            22.4137878973      -23.0529465051      -22.9649151331  MEMB      95              0.0000000000
     10894        95  SAPS      C12            20.9962816397      -23.3320806737      -21.5500489477  MEMB      95              0.0000000000
     10895        95  SAPS      H12A           20.3849001004      -22.6766523395      -20.9371990788  MEMB      95              0.0000000000
     10896        95  SAPS      C13            20.1544922151      -23.8654731596      -22.7222872367  MEMB      95              0.0000000000
     10897        95  SAPS      O13A           20.7441752207      -24.2473309724      -23.7737012802  MEMB      95              0.0000000000
     10898        95  SAPS      O13B           18.9163565079      -23.6475515088      -22.6925585649  MEMB      95              0.0000000000
     10899        95  SAPS      C11            21.5626982348      -24.5311524618      -20.7447491988  MEMB      95              0.0000000000
     10900        95  SAPS      H11A           22.5274787024      -24.2787474299      -20.2447492482  MEMB      95              0.0000000000
     10901        95  SAPS      H11B           21.8001210624      -25.3563397620      -21.4543950337  MEMB      95              0.0000000000
     10902        95  SAPS      P              20.5669800515      -24.3114110073      -18.3480760264  MEMB      95              0.0000000000
     10903        95  SAPS      O13            20.6253425929      -22.8399334523      -18.4811495766  MEMB      95              0.0000000000
     10904        95  SAPS      O14            19.4365206645      -24.8978608375      -17.6200811127  MEMB      95              0.0000000000
     10905        95  SAPS      O12            20.6165825507      -24.9808638972      -19.7878920070  MEMB      95              0.0000000000
     10906        95  SAPS      O11            21.9471195686      -24.8432961749      -17.7677923526  MEMB      95              0.0000000000
     10907        95  SAPS      C1             22.2701573909      -26.2350444930      -17.8923560639  MEMB      95              0.0000000000
     10908        95  SAPS      HA             21.4451810418      -26.8327229406      -18.3624061006  MEMB      95              0.0000000000
     10909        95  SAPS      HB             23.1553372631      -26.3503134177      -18.5539075982  MEMB      95              0.0000000000
     10910        95  SAPS      C2             22.5760916838      -26.9588240360      -16.5397193011  MEMB      95              0.0000000000
     10911        95  SAPS      HS             22.0101292045      -27.9092097764      -16.5911715582  MEMB      95              0.0000000000
     10912        95  SAPS      O21            22.2052865337      -26.2090970345      -15.3732811360  MEMB      95              0.0000000000
     10913        95  SAPS      C21            20.9350757361      -26.2665633966      -15.0051577575  MEMB      95              0.0000000000
     10914        95  SAPS      O22            20.0673619914      -26.9384182316      -15.5272642516  MEMB      95              0.0000000000
     10915        95  SAPS      C22            20.8434659921      -25.6540324712      -13.6019677138  MEMB      95              0.0000000000
     10916        95  SAPS      H2R            20.5592665957      -26.4754932964      -12.9114326268  MEMB      95              0.0000000000
     10917        95  SAPS      H2S            21.8348921297      -25.2883026263      -13.2992724716  MEMB      95              0.0000000000
     10918        95  SAPS      C3             24.0863723680      -27.3527361243      -16.3799251331  MEMB      95              0.0000000000
     10919        95  SAPS      HX             24.5038509279      -27.6550597944      -17.3581820485  MEMB      95              0.0000000000
     10920        95  SAPS      HY             24.1283781142      -28.2536029698      -15.7267317346  MEMB      95              0.0000000000
     10921        95  SAPS      O31            24.8829086905      -26.3262353200      -15.7625798929  MEMB      95              0.0000000000
     10922        95  SAPS      C31            25.2607853491      -25.3440504169      -16.5682049598  MEMB      95              0.0000000000
     10923        95  SAPS      O32            25.2906478010      -25.3966416388      -17.7881793915  MEMB      95              0.0000000000
     10924        95  SAPS      C32            25.5763876527      -24.1065865834      -15.7614864259  MEMB      95              0.0000000000
     10925        95  SAPS      H2X            26.4133234236      -23.6102694271      -16.2856942116  MEMB      95              0.0000000000
     10926        95  SAPS      H2Y            25.9618274919      -24.4025252659      -14.7650268685  MEMB      95              0.0000000000
     10927        95  SAPS      C23            19.8298472748      -24.5038842187      -13.4913182763  MEMB      95              0.0000000000
     10928        95  SAPS      H3R            18.8369809309      -24.9987652132      -13.4671390854  MEMB      95              0.0000000000
     10929        95  SAPS      H3S            19.8913977600      -23.8321341621      -14.3804156692  MEMB      95              0.0000000000
     10930        95  SAPS      C24            19.9472698654      -23.7186704676      -12.1769328823  MEMB      95              0.0000000000
     10931        95  SAPS      H4R            20.7131172616      -24.2034769147      -11.5335775734  MEMB      95              0.0000000000
     10932        95  SAPS      H4S            19.0195804515      -23.8899865811      -11.6277372379  MEMB      95              0.0000000000
     10933        95  SAPS      C25            20.1311585162      -22.2275802895      -12.2843121760  MEMB      95              0.0000000000
     10934        95  SAPS      H5R            20.0794378655      -21.7933474046      -13.2962934933  MEMB      95              0.0000000000
     10935        95  SAPS      C26            20.3055836632      -21.4457013895      -11.2040456408  MEMB      95              0.0000000000
     10936        95  SAPS      H6R            20.4182103756      -20.3563320571      -11.3273291641  MEMB      95              0.0000000000
     10937        95  SAPS      C27            20.3317690236      -21.9835451955       -9.7900633721  MEMB      95              0.0000000000
     10938        95  SAPS      H7R            20.9053296163      -22.9344666517       -9.7429783259  MEMB      95              0.0000000000
     10939        95  SAPS      H7S            19.2910315626      -22.2616791044       -9.5089246881  MEMB      95              0.0000000000
     10940        95  SAPS      C28            20.8675287935      -21.0733932111       -8.7194507500  MEMB      95              0.0000000000
     10941        95  SAPS      H8R            21.8170237141      -21.3882583473       -8.2570676312  MEMB      95              0.0000000000
     10942        95  SAPS      C29            20.2815443504      -19.9416492342       -8.3007186724  MEMB      95              0.0000000000
     10943        95  SAPS      H9R            20.7194694879      -19.4136865915       -7.4406251506  MEMB      95              0.0000000000
     10944        95  SAPS      C210           18.9848348258      -19.3738379299       -8.8256522560  MEMB      95              0.0000000000
     10945        95  SAPS      H10R           18.1724214945      -20.1202261240       -8.6693636626  MEMB      95              0.0000000000
     10946        95  SAPS      H10S           19.0403491121      -19.2156964338       -9.9243656828  MEMB      95              0.0000000000
     10947        95  SAPS      C211           18.6317565852      -18.0664083849       -8.1610122498  MEMB      95              0.0000000000
     10948        95  SAPS      H11R           18.8481319790      -17.1536786229       -8.7396661552  MEMB      95              0.0000000000
     10949        95  SAPS      C212           18.0897824430      -17.9590437693       -6.9360118586  MEMB      95              0.0000000000
     10950        95  SAPS      H12R           17.8882437943      -16.9581403342       -6.5271075531  MEMB      95              0.0000000000
     10951        95  SAPS      C213           17.7599990659      -19.1419378308       -6.0592903285  MEMB      95              0.0000000000
     10952        95  SAPS      H13R           18.6102837029      -19.8553666484       -6.0538701547  MEMB      95              0.0000000000
     10953        95  SAPS      H13S           16.9139739961      -19.7073987823       -6.5082928818  MEMB      95              0.0000000000
     10954        95  SAPS      C214           17.3724961292      -18.7192555286       -4.6665407554  MEMB      95              0.0000000000
     10955        95  SAPS      H14R           16.5949229951      -17.9506450741       -4.6295056455  MEMB      95              0.0000000000
     10956        95  SAPS      C215           17.8221292286      -19.2214789350       -3.5054260132  MEMB      95              0.0000000000
     10957        95  SAPS      H15R           17.3955001593      -18.8446155534       -2.5621438753  MEMB      95              0.0000000000
     10958        95  SAPS      C216           18.8241260989      -20.3350623998       -3.3482365122  MEMB      95              0.0000000000
     10959        95  SAPS      H16R           19.6227547391      -20.0491764131       -2.6285367486  MEMB      95              0.0000000000
     10960        95  SAPS      H16S           19.3366253680      -20.5879276411       -4.3020589598  MEMB      95              0.0000000000
     10961        95  SAPS      C217           18.1017577522      -21.5934390014       -2.8403955013  MEMB      95              0.0000000000
     10962        95  SAPS      H17R           18.6516583742      -22.4944281246       -3.1969536991  MEMB      95              0.0000000000
     10963        95  SAPS      H17S           17.0773738432      -21.6605907944       -3.2698455744  MEMB      95              0.0000000000
     10964        95  SAPS      C218           18.0306566501      -21.6467529061       -1.3089800326  MEMB      95              0.0000000000
     10965        95  SAPS      H18R           17.1348385682      -22.2244619523       -0.9911348189  MEMB      95              0.0000000000
     10966        95  SAPS      H18S           17.9458251691      -20.6189561548       -0.8966356140  MEMB      95              0.0000000000
     10967        95  SAPS      C219           19.2773334333      -22.3221602452       -0.7475974820  MEMB      95              0.0000000000
     10968        95  SAPS      H19R           20.1624437424      -21.8379783209       -1.2165874759  MEMB      95              0.0000000000
     10969        95  SAPS      H19S           19.2232002228      -23.3901314904       -1.0597892168  MEMB      95              0.0000000000
     10970        95  SAPS      C220           19.4555377142      -22.2768421596        0.7600236673  MEMB      95              0.0000000000
     10971        95  SAPS      H20R           19.4072044579      -21.2310591776        1.1307640004  MEMB      95              0.0000000000
     10972        95  SAPS      H20S           20.4396308754      -22.7062434132        1.0476706811  MEMB      95              0.0000000000
     10973        95  SAPS      H20T           18.6579713740      -22.8819765286        1.2359424309  MEMB      95              0.0000000000
     10974        95  SAPS      C33            24.3396931642      -23.1843481278      -15.6732623306  MEMB      95              0.0000000000
     10975        95  SAPS      H3X            23.6900151166      -23.2714011977      -16.5757501257  MEMB      95              0.0000000000
     10976        95  SAPS      H3Y            24.6716814022      -22.1225839415      -15.5838380608  MEMB      95              0.0000000000
     10977        95  SAPS      C34            23.4940814186      -23.5350644927      -14.4534536247  MEMB      95              0.0000000000
     10978        95  SAPS      H4X            23.5369354179      -24.6358211978      -14.3069706714  MEMB      95              0.0000000000
     10979        95  SAPS      H4Y            22.4325988327      -23.2293946562      -14.5883405327  MEMB      95              0.0000000000
     10980        95  SAPS      C35            24.0857389014      -22.8650300204      -13.2307551348  MEMB      95              0.0000000000
     10981        95  SAPS      H5X            23.9492993502      -21.7678604354      -13.3402967175  MEMB      95              0.0000000000
     10982        95  SAPS      H5Y            25.1657818543      -23.1083006168      -13.2312800480  MEMB      95              0.0000000000
     10983        95  SAPS      C36            23.5243136526      -23.3406167186      -11.9058484752  MEMB      95              0.0000000000
     10984        95  SAPS      H6X            22.4321597413      -23.3314924410      -11.9664252206  MEMB      95              0.0000000000
     10985        95  SAPS      H6Y            23.7864195275      -22.6000480277      -11.1245590332  MEMB      95              0.0000000000
     10986        95  SAPS      C37            23.9876253531      -24.7380816551      -11.4808808707  MEMB      95              0.0000000000
     10987        95  SAPS      H7X            25.0895300033      -24.8403530199      -11.6028167181  MEMB      95              0.0000000000
     10988        95  SAPS      H7Y            23.5082077559      -25.5034527138      -12.1276960604  MEMB      95              0.0000000000
     10989        95  SAPS      C38            23.5901567271      -24.9765063274      -10.0243421032  MEMB      95              0.0000000000
     10990        95  SAPS      H8X            22.6225073706      -24.4562268803       -9.8503666090  MEMB      95              0.0000000000
     10991        95  SAPS      H8Y            24.3408898713      -24.4967889732       -9.3557573673  MEMB      95              0.0000000000
     10992        95  SAPS      C39            23.4221920027      -26.4495417371       -9.6458262635  MEMB      95              0.0000000000
     10993        95  SAPS      H9X            24.3975265696      -26.9657362735       -9.8007912726  MEMB      95              0.0000000000
     10994        95  SAPS      H9Y            22.6690512929      -26.9422688727      -10.2986798500  MEMB      95              0.0000000000
     10995        95  SAPS      C310           23.0176679889      -26.5854409752       -8.1736599225  MEMB      95              0.0000000000
     10996        95  SAPS      H10X           23.7269465880      -25.9529654621       -7.5905419827  MEMB      95              0.0000000000
     10997        95  SAPS      H10Y           23.1620049032      -27.6333102256       -7.8311604308  MEMB      95              0.0000000000
     10998        95  SAPS      C311           21.5793179354      -26.1407209406       -7.8527148915  MEMB      95              0.0000000000
     10999        95  SAPS      H11X           20.8668051303      -26.9772707213       -7.9821184440  MEMB      95              0.0000000000
     11000        95  SAPS      H11Y           21.2419758720      -25.3379297049       -8.5421678084  MEMB      95              0.0000000000
     11001        95  SAPS      C312           21.4399183173      -25.6319050662       -6.4164525051  MEMB      95              0.0000000000
     11002        95  SAPS      H12X           20.3590292158      -25.5492432498       -6.1605188189  MEMB      95              0.0000000000
     11003        95  SAPS      H12Y           21.8836045528      -24.6113446589       -6.3979665567  MEMB      95              0.0000000000
     11004        95  SAPS      C313           22.1608427441      -26.5082449679       -5.3763946598  MEMB      95              0.0000000000
     11005        95  SAPS      H13X           23.2570970417      -26.4908983573       -5.5648291240  MEMB      95              0.0000000000
     11006        95  SAPS      H13Y           21.8075326864      -27.5555409136       -5.4755173936  MEMB      95              0.0000000000
     11007        95  SAPS      C314           21.9452566641      -26.0784359856       -3.9226930010  MEMB      95              0.0000000000
     11008        95  SAPS      H14X           22.7000321346      -26.5733315995       -3.2731501002  MEMB      95              0.0000000000
     11009        95  SAPS      H14Y           20.9564650604      -26.4474433280       -3.5942772021  MEMB      95              0.0000000000
     11010        95  SAPS      C315           21.9740068218      -24.5651547191       -3.7108684412  MEMB      95              0.0000000000
     11011        95  SAPS      H15X           21.3867184245      -24.0419722705       -4.4984886816  MEMB      95              0.0000000000
     11012        95  SAPS      H15Y           23.0142389285      -24.1927900218       -3.7620809014  MEMB      95              0.0000000000
     11013        95  SAPS      C316           21.2841995711      -24.1464969995       -2.4172226423  MEMB      95              0.0000000000
     11014        95  SAPS      H16X           20.2440737629      -24.5475779413       -2.4541389250  MEMB      95              0.0000000000
     11015        95  SAPS      H16Y           21.2342998721      -23.0361231852       -2.4311339366  MEMB      95              0.0000000000
     11016        95  SAPS      C317           21.9584636993      -24.6001088313       -1.1225762621  MEMB      95              0.0000000000
     11017        95  SAPS      H17X           22.4059031837      -25.6087388031       -1.2506789781  MEMB      95              0.0000000000
     11018        95  SAPS      H17Y           21.1852673754      -24.6816153575       -0.3214692563  MEMB      95              0.0000000000
     11019        95  SAPS      C318           23.0121240437      -23.6036092738       -0.6561249714  MEMB      95              0.0000000000
     11020        95  SAPS      H18X           23.5740155833      -24.0090703024        0.2122409035  MEMB      95              0.0000000000
     11021        95  SAPS      H18Y           22.5296427610      -22.6482193459       -0.3576911508  MEMB      95              0.0000000000
     11022        95  SAPS      H18Z           23.7223434405      -23.3788319926       -1.4794911489  MEMB      95              0.0000000000
     11023        96  SLPC      N             -25.4209458589      -22.4625303560      -19.5084340818  MEMB      96              0.0000000000
     11024        96  SLPC      C13           -26.5824193201      -22.4671645565      -18.5763559577  MEMB      96              0.0000000000
     11025        96  SLPC      H13A          -26.2167200318      -22.5969048968      -17.5615262463  MEMB      96              0.0000000000
     11026        96  SLPC      H13B          -27.1575622147      -21.5475387163      -18.6106266453  MEMB      96              0.0000000000
     11027        96  SLPC      H13C          -27.2562693397      -23.3036979986      -18.7714428485  MEMB      96              0.0000000000
     11028        96  SLPC      C14           -24.4968062511      -21.3385860334      -19.1588189366  MEMB      96              0.0000000000
     11029        96  SLPC      H14A          -25.0124661813      -20.3792726295      -19.1288361875  MEMB      96              0.0000000000
     11030        96  SLPC      H14B          -24.0400000159      -21.5318264207      -18.1864845504  MEMB      96              0.0000000000
     11031        96  SLPC      H14C          -23.6828281632      -21.2651151296      -19.8675315501  MEMB      96              0.0000000000
     11032        96  SLPC      C15           -26.0223633899      -22.2863099836      -20.8671463380  MEMB      96              0.0000000000
     11033        96  SLPC      H15A          -26.5118463723      -21.3188841669      -20.9378739825  MEMB      96              0.0000000000
     11034        96  SLPC      H15B          -25.2756785051      -22.3114111054      -21.6518607197  MEMB      96              0.0000000000
     11035        96  SLPC      H15C          -26.7610592880      -23.0555646258      -21.0613190318  MEMB      96              0.0000000000
     11036        96  SLPC      C12           -24.6925399148      -23.8148849772      -19.4648060453  MEMB      96              0.0000000000
     11037        96  SLPC      H12A          -24.1581089342      -23.9301764366      -20.3919580028  MEMB      96              0.0000000000
     11038        96  SLPC      H12B          -25.4629893713      -24.5852089897      -19.4860576066  MEMB      96              0.0000000000
     11039        96  SLPC      C11           -23.6923549229      -24.2937336130      -18.3450864964  MEMB      96              0.0000000000
     11040        96  SLPC      H11A          -22.7948495696      -24.6824563116      -18.8870027308  MEMB      96              0.0000000000
     11041        96  SLPC      H11B          -24.1771411719      -25.1930480834      -17.8897868476  MEMB      96              0.0000000000
     11042        96  SLPC      P             -22.3560297865      -24.0639152914      -16.1917605476  MEMB      96              0.0000000000
     11043        96  SLPC      O13           -23.2335768510      -24.7770524662      -15.2444853916  MEMB      96              0.0000000000
     11044        96  SLPC      O14           -21.3310594548      -24.8435477305      -16.9160437368  MEMB      96              0.0000000000
     11045        96  SLPC      O12           -23.2918201695      -23.3563205551      -17.3216482555  MEMB      96              0.0000000000
     11046        96  SLPC      O11           -21.6547433942      -22.8554324064      -15.4779412174  MEMB      96              0.0000000000
     11047        96  SLPC      C1            -21.8452094441      -21.4749909963      -15.7472503781  MEMB      96              0.0000000000
     11048        96  SLPC      HA            -20.8480793213      -20.9806676260      -15.7165601086  MEMB      96              0.0000000000
     11049        96  SLPC      HB            -22.2570341873      -21.2821669262      -16.7635220658  MEMB      96              0.0000000000
     11050        96  SLPC      C2            -22.7567493352      -20.8090327934      -14.6773839871  MEMB      96              0.0000000000
     11051        96  SLPC      HS            -22.6960364609      -19.7122776775      -14.8116707934  MEMB      96              0.0000000000
     11052        96  SLPC      O21           -22.3951281090      -21.1320618128      -13.3415594750  MEMB      96              0.0000000000
     11053        96  SLPC      C21           -21.1739813871      -21.1171638462      -12.9113766552  MEMB      96              0.0000000000
     11054        96  SLPC      O22           -20.2379784782      -20.4728072825      -13.3574883134  MEMB      96              0.0000000000
     11055        96  SLPC      C22           -21.1656522816      -21.9705522328      -11.6301952339  MEMB      96              0.0000000000
     11056        96  SLPC      H2R           -20.1671761121      -21.8736202851      -11.1699585780  MEMB      96              0.0000000000
     11057        96  SLPC      H2S           -21.9148155590      -21.5298395766      -10.9438840507  MEMB      96              0.0000000000
     11058        96  SLPC      C3            -24.2433546422      -21.2465245548      -14.8035529984  MEMB      96              0.0000000000
     11059        96  SLPC      HX            -24.2835722781      -22.3604798566      -14.7967035578  MEMB      96              0.0000000000
     11060        96  SLPC      HY            -24.6253798181      -20.9250640175      -15.7930959968  MEMB      96              0.0000000000
     11061        96  SLPC      O31           -25.0608103590      -20.6682011176      -13.7557548549  MEMB      96              0.0000000000
     11062        96  SLPC      C31           -25.0716544174      -21.3772040538      -12.6104817566  MEMB      96              0.0000000000
     11063        96  SLPC      O32           -24.6093245513      -22.4906421483      -12.4750865815  MEMB      96              0.0000000000
     11064        96  SLPC      C32           -25.8521113742      -20.6323177394      -11.5443079654  MEMB      96              0.0000000000
     11065        96  SLPC      H2X           -26.8794897749      -20.4708924338      -11.9335900214  MEMB      96              0.0000000000
     11066        96  SLPC      H2Y           -25.3714863476      -19.6454410104      -11.4100334905  MEMB      96              0.0000000000
     11067        96  SLPC      C23           -21.5177313285      -23.4584416900      -11.9070651884  MEMB      96              0.0000000000
     11068        96  SLPC      H3R           -20.5870587022      -24.0038862610      -12.1452286930  MEMB      96              0.0000000000
     11069        96  SLPC      H3S           -22.1484130583      -23.5309662574      -12.8279074347  MEMB      96              0.0000000000
     11070        96  SLPC      C24           -22.3096275454      -24.2298773890      -10.8264167354  MEMB      96              0.0000000000
     11071        96  SLPC      H4R           -22.2714419716      -25.3044996115      -11.1194521444  MEMB      96              0.0000000000
     11072        96  SLPC      H4S           -23.3796843109      -23.9297249391      -10.8794265641  MEMB      96              0.0000000000
     11073        96  SLPC      C25           -21.8633365662      -24.1160408536       -9.3583916749  MEMB      96              0.0000000000
     11074        96  SLPC      H5R           -22.3592788348      -23.2389998595       -8.8885486732  MEMB      96              0.0000000000
     11075        96  SLPC      H5S           -20.7786240400      -23.9404476065       -9.2772244429  MEMB      96              0.0000000000
     11076        96  SLPC      C26           -22.2195575263      -25.3732210041       -8.5410080515  MEMB      96              0.0000000000
     11077        96  SLPC      H6R           -21.8271340112      -25.2317108699       -7.5095377438  MEMB      96              0.0000000000
     11078        96  SLPC      H6S           -21.7165716275      -26.2622928513       -8.9812637594  MEMB      96              0.0000000000
     11079        96  SLPC      C27           -23.7401419288      -25.5982001876       -8.4951370010  MEMB      96              0.0000000000
     11080        96  SLPC      H7R           -24.0880266255      -25.9133899466       -9.5060987845  MEMB      96              0.0000000000
     11081        96  SLPC      H7S           -24.2146340826      -24.6137727095       -8.2900713540  MEMB      96              0.0000000000
     11082        96  SLPC      C28           -24.2377953223      -26.6326712020       -7.4615339582  MEMB      96              0.0000000000
     11083        96  SLPC      H8R           -23.9195361858      -27.6398616769       -7.8139879010  MEMB      96              0.0000000000
     11084        96  SLPC      H8S           -25.3515864796      -26.6311535123       -7.4991901826  MEMB      96              0.0000000000
     11085        96  SLPC      C29           -23.7825929744      -26.4445922840       -6.0339627544  MEMB      96              0.0000000000
     11086        96  SLPC      H9R           -23.1898824919      -27.2809716521       -5.6318762349  MEMB      96              0.0000000000
     11087        96  SLPC      C210          -24.0324780646      -25.4022528193       -5.2189596084  MEMB      96              0.0000000000
     11088        96  SLPC      H10R          -23.5988944979      -25.4242661017       -4.2055523442  MEMB      96              0.0000000000
     11089        96  SLPC      C211          -24.8318743582      -24.1606311672       -5.5350698495  MEMB      96              0.0000000000
     11090        96  SLPC      H11R          -25.2731220438      -24.2133891547       -6.5523656408  MEMB      96              0.0000000000
     11091        96  SLPC      H11S          -24.1365211565      -23.2900221066       -5.5432828322  MEMB      96              0.0000000000
     11092        96  SLPC      C212          -25.9527024818      -23.9147065491       -4.5575315508  MEMB      96              0.0000000000
     11093        96  SLPC      H12R          -26.2150370407      -24.7569586074       -3.8968373406  MEMB      96              0.0000000000
     11094        96  SLPC      C213          -26.6446490678      -22.7658154387       -4.4423425465  MEMB      96              0.0000000000
     11095        96  SLPC      H13R          -27.3977200433      -22.6822992767       -3.6430887173  MEMB      96              0.0000000000
     11096        96  SLPC      C214          -26.4433011040      -21.5069879625       -5.2520398548  MEMB      96              0.0000000000
     11097        96  SLPC      H14R          -27.3506149083      -21.3099028749       -5.8663918677  MEMB      96              0.0000000000
     11098        96  SLPC      H14S          -25.5842813356      -21.5847084621       -5.9547876988  MEMB      96              0.0000000000
     11099        96  SLPC      C215          -26.2221039313      -20.2918765181       -4.3288366431  MEMB      96              0.0000000000
     11100        96  SLPC      H15R          -27.1444640788      -20.1570999532       -3.7232727739  MEMB      96              0.0000000000
     11101        96  SLPC      H15S          -26.1131202909      -19.3757042427       -4.9516953623  MEMB      96              0.0000000000
     11102        96  SLPC      C216          -24.9811167095      -20.4171441119       -3.4194220706  MEMB      96              0.0000000000
     11103        96  SLPC      H16R          -24.0901028878      -20.0533465244       -3.9771607370  MEMB      96              0.0000000000
     11104        96  SLPC      H16S          -24.7876464157      -21.4845712723       -3.1745544729  MEMB      96              0.0000000000
     11105        96  SLPC      C217          -25.0847872230      -19.6775706949       -2.0754703093  MEMB      96              0.0000000000
     11106        96  SLPC      H17R          -25.1207508304      -18.5882750477       -2.2794912063  MEMB      96              0.0000000000
     11107        96  SLPC      H17S          -24.1457108755      -19.8631288739       -1.5052170086  MEMB      96              0.0000000000
     11108        96  SLPC      C218          -26.2751060833      -20.0989192960       -1.2007433706  MEMB      96              0.0000000000
     11109        96  SLPC      H18R          -26.2129333747      -19.6289915268       -0.1965737821  MEMB      96              0.0000000000
     11110        96  SLPC      H18S          -26.2912983700      -21.2021142878       -1.0774961204  MEMB      96              0.0000000000
     11111        96  SLPC      H18T          -27.2399547104      -19.7931192167       -1.6555611705  MEMB      96              0.0000000000
     11112        96  SLPC      C33           -25.9357259620      -21.4405488406      -10.2276925049  MEMB      96              0.0000000000
     11113        96  SLPC      H3X           -26.2077736479      -22.5031687563      -10.4184290030  MEMB      96              0.0000000000
     11114        96  SLPC      H3Y           -26.7449728200      -20.9987746430       -9.6023488182  MEMB      96              0.0000000000
     11115        96  SLPC      C34           -24.6455776130      -21.4402711641       -9.4083875366  MEMB      96              0.0000000000
     11116        96  SLPC      H4X           -23.8702368012      -22.0290882729       -9.9427871399  MEMB      96              0.0000000000
     11117        96  SLPC      H4Y           -24.8476760713      -21.9578442772       -8.4424991959  MEMB      96              0.0000000000
     11118        96  SLPC      C35           -24.1268916826      -20.0272449922       -9.1597309048  MEMB      96              0.0000000000
     11119        96  SLPC      H5X           -25.0105447689      -19.3636577079       -9.0248648812  MEMB      96              0.0000000000
     11120        96  SLPC      H5Y           -23.5589146094      -19.6848492911      -10.0524132584  MEMB      96              0.0000000000
     11121        96  SLPC      C36           -23.2756902951      -19.8964790049       -7.9003836505  MEMB      96              0.0000000000
     11122        96  SLPC      H6X           -23.6926000955      -20.5721756018       -7.1229144808  MEMB      96              0.0000000000
     11123        96  SLPC      H6Y           -23.3735222920      -18.8582600904       -7.5082904799  MEMB      96              0.0000000000
     11124        96  SLPC      C37           -21.7896702540      -20.1862191499       -8.1395081174  MEMB      96              0.0000000000
     11125        96  SLPC      H7X           -21.3928418177      -19.4740902473       -8.8983850568  MEMB      96              0.0000000000
     11126        96  SLPC      H7Y           -21.6671003413      -21.2103655920       -8.5535444880  MEMB      96              0.0000000000
     11127        96  SLPC      C38           -20.9759160780      -20.0606049165       -6.8460815292  MEMB      96              0.0000000000
     11128        96  SLPC      H8X           -21.1698149995      -19.0636153040       -6.3887653664  MEMB      96              0.0000000000
     11129        96  SLPC      H8Y           -19.8909519565      -20.1165550830       -7.0895625474  MEMB      96              0.0000000000
     11130        96  SLPC      C39           -21.3285170040      -21.1670828248       -5.8434771830  MEMB      96              0.0000000000
     11131        96  SLPC      H9X           -21.1508937154      -22.1558022117       -6.3258182061  MEMB      96              0.0000000000
     11132        96  SLPC      H9Y           -22.4078335263      -21.1162258614       -5.5760149017  MEMB      96              0.0000000000
     11133        96  SLPC      C310          -20.5284647946      -21.0911742073       -4.5425888633  MEMB      96              0.0000000000
     11134        96  SLPC      H10X          -20.7623450106      -20.1362583251       -4.0189947151  MEMB      96              0.0000000000
     11135        96  SLPC      H10Y          -19.4400254050      -21.0943127556       -4.7782644366  MEMB      96              0.0000000000
     11136        96  SLPC      C311          -20.8423660596      -22.2753635470       -3.6183782449  MEMB      96              0.0000000000
     11137        96  SLPC      H11X          -20.6046737541      -23.2188272469       -4.1601092793  MEMB      96              0.0000000000
     11138        96  SLPC      H11Y          -21.9284534424      -22.2854984400       -3.3773349665  MEMB      96              0.0000000000
     11139        96  SLPC      C312          -20.0175597780      -22.2116548707       -2.3310125095  MEMB      96              0.0000000000
     11140        96  SLPC      H12X          -20.4178564772      -21.4178027183       -1.6636833850  MEMB      96              0.0000000000
     11141        96  SLPC      H12Y          -18.9910429326      -21.8985686635       -2.6212333519  MEMB      96              0.0000000000
     11142        96  SLPC      C313          -19.8966815919      -23.5413008282       -1.5686635091  MEMB      96              0.0000000000
     11143        96  SLPC      H13X          -19.2834414026      -23.3358043487       -0.6660733936  MEMB      96              0.0000000000
     11144        96  SLPC      H13Y          -19.3291328117      -24.2681413837       -2.1913491183  MEMB      96              0.0000000000
     11145        96  SLPC      C314          -21.2166978177      -24.2008147526       -1.1326898183  MEMB      96              0.0000000000
     11146        96  SLPC      H14X          -20.9837478879      -25.0013059256       -0.3934452775  MEMB      96              0.0000000000
     11147        96  SLPC      H14Y          -21.6770451888      -24.6904345183       -2.0190670908  MEMB      96              0.0000000000
     11148        96  SLPC      C315          -22.2198268287      -23.2218397065       -0.5115454362  MEMB      96              0.0000000000
     11149        96  SLPC      H15X          -22.5016865237      -22.4571875890       -1.2705499872  MEMB      96              0.0000000000
     11150        96  SLPC      H15Y          -21.7382481847      -22.6941538602        0.3399800687  MEMB      96              0.0000000000
     11151        96  SLPC      C316          -23.5215803498      -23.8764767736       -0.0299175570  MEMB      96              0.0000000000
     11152        96  SLPC      H16X          -24.2018081478      -23.0508772270        0.2737761022  MEMB      96              0.0000000000
     11153        96  SLPC      H16Y          -23.3304949201      -24.4994239786        0.8702076043  MEMB      96              0.0000000000
     11154        96  SLPC      C317          -24.2190580832      -24.7136292751       -1.1115602494  MEMB      96              0.0000000000
     11155        96  SLPC      H17X          -23.7621591556      -25.7282511880       -1.1475774770  MEMB      96              0.0000000000
     11156        96  SLPC      H17Y          -24.0434431547      -24.2289442923       -2.1006685020  MEMB      96              0.0000000000
     11157        96  SLPC      C318          -25.7268576744      -24.8229180685       -0.9000308234  MEMB      96              0.0000000000
     11158        96  SLPC      H18X          -26.1636515307      -23.8017559144       -0.8824193698  MEMB      96              0.0000000000
     11159        96  SLPC      H18Y          -25.9730254191      -25.3163765110        0.0620243354  MEMB      96              0.0000000000
     11160        96  SLPC      H18Z          -26.2106602442      -25.3969504455       -1.7177916472  MEMB      96              0.0000000000
     11161        97  TIP3      OH2             9.2769415993        9.3743639477       20.2871414212  TIP3      1               0.0000000000
     11162        97  TIP3      H1              8.5960303787        9.3154523069       20.9712643100  TIP3      1               0.0000000000
     11163        97  TIP3      H2              9.4288442643       10.3274756563       20.1972096469  TIP3      1               0.0000000000
     11164        98  TIP3      OH2             6.5157731209        5.6040740992       20.0899377646  TIP3      2               0.0000000000
     11165        98  TIP3      H1              6.6247081362        4.8327562510       20.6628397653  TIP3      2               0.0000000000
     11166        98  TIP3      H2              6.3039685451        5.2567772307       19.2210227730  TIP3      2               0.0000000000
     11167        99  TIP3      OH2            13.9123469011       -0.1028865275       20.9678766089  TIP3      3               0.0000000000
     11168        99  TIP3      H1             13.0469096774       -0.0694943807       21.4299177537  TIP3      3               0.0000000000
     11169        99  TIP3      H2             13.9020042705        0.7885342572       20.5895433092  TIP3      3               0.0000000000
     11170       100  TIP3      OH2             8.5899785689        0.8384703457       21.4349274888  TIP3      4               0.0000000000
     11171       100  TIP3      H1              7.7267400647        1.3042897056       21.5165776202  TIP3      4               0.0000000000
     11172       100  TIP3      H2              8.6793948376        0.8462653650       20.4627219396  TIP3      4               0.0000000000
     11173       101  TIP3      OH2            10.6432026670       -2.5509937811       20.0163979358  TIP3      5               0.0000000000
     11174       101  TIP3      H1             10.1038815086       -3.3642784148       20.0738759746  TIP3      5               0.0000000000
     11175       101  TIP3      H2             10.5710364151       -2.4096023194       19.0442318601  TIP3      5               0.0000000000
     11176       102  TIP3      OH2            11.9121818243        2.7083225992       20.8359281254  TIP3      6               0.0000000000
     11177       102  TIP3      H1             11.4304804620        3.4991783633       20.5628341136  TIP3      6               0.0000000000
     11178       102  TIP3      H2             11.4576087192        2.4543567381       21.6596776058  TIP3      6               0.0000000000
     11179       103  TIP3      OH2            11.3317334651       -0.2346443110       21.9614560591  TIP3      7               0.0000000000
     11180       103  TIP3      H1             10.5020632254        0.2899908951       21.9925554571  TIP3      7               0.0000000000
     11181       103  TIP3      H2             10.9945693368       -1.0107887584       21.4690285984  TIP3      7               0.0000000000
     11182       104  TIP3      OH2            -7.1935290318        6.8956938918       18.7389232688  TIP3      8               0.0000000000
     11183       104  TIP3      H1             -6.8531583618        6.4592734840       19.5533600035  TIP3      8               0.0000000000
     11184       104  TIP3      H2             -6.6959922955        7.7328069129       18.7089349380  TIP3      8               0.0000000000
     11185       105  TIP3      OH2            -5.3857895759      -14.6622335902       20.9882621364  TIP3      9               0.0000000000
     11186       105  TIP3      H1             -4.8497040229      -13.8779202340       20.8297000923  TIP3      9               0.0000000000
     11187       105  TIP3      H2             -6.0046480935      -14.6647421495       20.2423530318  TIP3      9               0.0000000000
     11188       106  TIP3      OH2            -4.5800579231      -11.3953770393       20.5728408057  TIP3      10              0.0000000000
     11189       106  TIP3      H1             -3.6185231900      -11.4911700477       20.4985780953  TIP3      10              0.0000000000
     11190       106  TIP3      H2             -4.6596284949      -10.4286859679       20.6909706252  TIP3      10              0.0000000000
     11191       107  TIP3      OH2           -13.9442250958       -1.1226950655       20.5169774299  TIP3      11              0.0000000000
     11192       107  TIP3      H1            -13.0258682158       -1.1379123945       20.8235206072  TIP3      11              0.0000000000
     11193       107  TIP3      H2            -14.2900438043       -1.9649156251       20.8647868699  TIP3      11              0.0000000000
     11194       108  TIP3      OH2           -16.9616283176        0.1913234351       19.9751481147  TIP3      12              0.0000000000
     11195       108  TIP3      H1            -17.8450497363       -0.2259925671       20.0044726217  TIP3      12              0.0000000000
     11196       108  TIP3      H2            -16.4943148678       -0.4858843556       19.4567266582  TIP3      12              0.0000000000
     11197       109  TIP3      OH2           -15.1425415617        0.8295829890       21.9403496092  TIP3      13              0.0000000000
     11198       109  TIP3      H1            -14.5545446365        0.1253122418       21.6238388111  TIP3      13              0.0000000000
     11199       109  TIP3      H2            -15.8677167238        0.6599837127       21.2959734250  TIP3      13              0.0000000000
     11200       110  TIP3      OH2            -1.5636572870      -16.5796544257       20.8167009552  TIP3      14              0.0000000000
     11201       110  TIP3      H1             -2.2771005811      -15.9656685927       21.0420223169  TIP3      14              0.0000000000
     11202       110  TIP3      H2             -0.7849250428      -16.0523614573       21.0693605033  TIP3      14              0.0000000000
     11203       111  TIP3      OH2           -13.8375236859      -13.3772131730       22.6343444848  TIP3      15              0.0000000000
     11204       111  TIP3      H1            -13.5269913246      -12.6869242009       22.0377787628  TIP3      15              0.0000000000
     11205       111  TIP3      H2            -14.6662262827      -13.6518919267       22.2126825848  TIP3      15              0.0000000000
     11206       112  TIP3      OH2           -25.7197981025       12.4161390756       22.1549429153  TIP3      16              0.0000000000
     11207       112  TIP3      H1            -24.9711916731       12.6806288159       21.6055500802  TIP3      16              0.0000000000
     11208       112  TIP3      H2            -26.2123702749       11.8418107157       21.5525438892  TIP3      16              0.0000000000
     11209       113  TIP3      OH2           -25.2403064600       15.6483573927       19.5850491141  TIP3      17              0.0000000000
     11210       113  TIP3      H1            -25.8852762456       16.3645384716       19.5162916806  TIP3      17              0.0000000000
     11211       113  TIP3      H2            -24.8712149560       15.8876145225       20.4413325418  TIP3      17              0.0000000000
     11212       114  TIP3      OH2            10.1239210331       24.8569409599       20.6444771887  TIP3      18              0.0000000000
     11213       114  TIP3      H1             10.8999132760       25.2419450015       20.2115257565  TIP3      18              0.0000000000
     11214       114  TIP3      H2             10.1680185617       25.2211574874       21.5456724663  TIP3      18              0.0000000000
     11215       115  TIP3      OH2           -17.9384468443      -23.8357371447       20.1575495646  TIP3      19              0.0000000000
     11216       115  TIP3      H1            -17.2169423277      -23.9604087611       19.5224780956  TIP3      19              0.0000000000
     11217       115  TIP3      H2            -17.8266153623      -22.9299383937       20.4703770423  TIP3      19              0.0000000000
     11218       116  TIP3      OH2           -22.7861673695       25.3255532024       20.6448411299  TIP3      20              0.0000000000
     11219       116  TIP3      H1            -21.9467027874       24.8865299749       20.8408272440  TIP3      20              0.0000000000
     11220       116  TIP3      H2            -22.5779666144       26.2331574543       20.9336191054  TIP3      20              0.0000000000
     11221       117  TIP3      OH2           -25.8247600045      -24.3400592675       19.8833798993  TIP3      21              0.0000000000
     11222       117  TIP3      H1            -26.7139284752      -23.9309076954       19.8765128318  TIP3      21              0.0000000000
     11223       117  TIP3      H2            -25.4811576838      -24.0294679046       19.0411279279  TIP3      21              0.0000000000
     11224       118  TIP3      OH2            -2.9781967691       -5.0186972929      -20.3106908156  TIP3      22              0.0000000000
     11225       118  TIP3      H1             -3.4795319697       -4.2143251024      -20.4886337733  TIP3      22              0.0000000000
     11226       118  TIP3      H2             -2.0870713366       -4.6093876437      -20.2006869713  TIP3      22              0.0000000000
     11227       119  TIP3      OH2            -1.2072097056       -9.1971947534      -19.7604261162  TIP3      23              0.0000000000
     11228       119  TIP3      H1             -1.1983665685       -8.2264086854      -19.8513083611  TIP3      23              0.0000000000
     11229       119  TIP3      H2             -2.1561343982       -9.3135350709      -19.5881126929  TIP3      23              0.0000000000
     11230       120  TIP3      OH2             9.5706237864       -2.6050020901      -18.9286325949  TIP3      24              0.0000000000
     11231       120  TIP3      H1              8.9767257666       -1.8492789430      -18.8024835027  TIP3      24              0.0000000000
     11232       120  TIP3      H2              9.8807764379       -2.7586867705      -18.0295262528  TIP3      24              0.0000000000
     11233       121  TIP3      OH2             7.8154666478       -1.1735893984      -22.3214545208  TIP3      25              0.0000000000
     11234       121  TIP3      H1              7.2988749437       -0.9650295785      -21.5365523011  TIP3      25              0.0000000000
     11235       121  TIP3      H2              8.2926500249       -0.3505209279      -22.4847022740  TIP3      25              0.0000000000
     11236       122  TIP3      OH2             9.9859735619        1.1706657050      -20.1791327263  TIP3      26              0.0000000000
     11237       122  TIP3      H1             10.1387121064        0.6796676719      -21.0130498575  TIP3      26              0.0000000000
     11238       122  TIP3      H2             10.8493805929        1.5862664610      -20.0582645102  TIP3      26              0.0000000000
     11239       123  TIP3      OH2             7.4282496274      -14.0892636202      -19.7849615477  TIP3      27              0.0000000000
     11240       123  TIP3      H1              6.8780207784      -14.0387307754      -20.5773285643  TIP3      27              0.0000000000
     11241       123  TIP3      H2              7.0879976280      -14.8868397618      -19.3637654502  TIP3      27              0.0000000000
     11242       124  TIP3      OH2            -5.9972505283       13.9568213453      -20.8176146899  TIP3      28              0.0000000000
     11243       124  TIP3      H1             -5.4567327332       13.3981252793      -21.3834855512  TIP3      28              0.0000000000
     11244       124  TIP3      H2             -6.6392278686       14.2811174534      -21.4774938019  TIP3      28              0.0000000000
     11245       125  TIP3      OH2            -2.3596452871       16.1552276872      -20.4848891237  TIP3      29              0.0000000000
     11246       125  TIP3      H1             -1.8301864246       16.8069344394      -20.9938499827  TIP3      29              0.0000000000
     11247       125  TIP3      H2             -2.0350582940       16.3789718809      -19.5937448768  TIP3      29              0.0000000000
     11248       126  TIP3      OH2             1.4982892376       18.7205267190      -19.5791501013  TIP3      30              0.0000000000
     11249       126  TIP3      H1              2.1787933002       18.1697663850      -19.1282011778  TIP3      30              0.0000000000
     11250       126  TIP3      H2              0.7384014146       18.1494215771      -19.3617840415  TIP3      30              0.0000000000
     11251       127  TIP3      OH2            -0.5781731911       17.8989680927      -21.5068608763  TIP3      31              0.0000000000
     11252       127  TIP3      H1             -0.8838049859       18.0716454495      -22.4190692067  TIP3      31              0.0000000000
     11253       127  TIP3      H2              0.1063209464       18.5737145846      -21.4018559771  TIP3      31              0.0000000000
     11254       128  TIP3      OH2           -15.0698234572      -17.0734056765      -20.4003532297  TIP3      32              0.0000000000
     11255       128  TIP3      H1            -14.4227618203      -16.9189883345      -21.0866872130  TIP3      32              0.0000000000
     11256       128  TIP3      H2            -14.7318487091      -16.4746131350      -19.7066213393  TIP3      32              0.0000000000
     11257       129  TIP3      OH2           -13.8664051248      -12.4997707751      -19.4425736697  TIP3      33              0.0000000000
     11258       129  TIP3      H1            -13.6350289432      -11.6166757278      -19.0842030666  TIP3      33              0.0000000000
     11259       129  TIP3      H2            -14.7739357736      -12.3463243888      -19.7351295159  TIP3      33              0.0000000000
     11260       130  TIP3      OH2            15.6375727135      -14.6812473895      -20.0267445373  TIP3      34              0.0000000000
     11261       130  TIP3      H1             16.2566111594      -14.4610074227      -20.7431841146  TIP3      34              0.0000000000
     11262       130  TIP3      H2             14.7899881680      -14.4446227157      -20.4418579620  TIP3      34              0.0000000000
     11263       131  TIP3      OH2           -10.7781365324      -20.6365182272      -20.1761624917  TIP3      35              0.0000000000
     11264       131  TIP3      H1            -10.7075783108      -19.8177525904      -20.6925671702  TIP3      35              0.0000000000
     11265       131  TIP3      H2            -11.3671866500      -21.1794853643      -20.7402250701  TIP3      35              0.0000000000
     11266       132  TIP3      OH2            19.0865019874       10.2198396828      -20.3117611306  TIP3      36              0.0000000000
     11267       132  TIP3      H1             18.9276837010       10.8596420533      -21.0021340248  TIP3      36              0.0000000000
     11268       132  TIP3      H2             19.5668397719       10.7780477495      -19.6838721358  TIP3      36              0.0000000000
     11269       133  TIP3      OH2            23.1607227193       13.3059274562      -19.9031241520  TIP3      37              0.0000000000
     11270       133  TIP3      H1             22.3611736866       13.3607371571      -20.4791683462  TIP3      37              0.0000000000
     11271       133  TIP3      H2             23.0851027927       14.1433425782      -19.4187312084  TIP3      37              0.0000000000
     11272       134  TIP3      OH2           -21.7862736939       15.3102676751      -20.8414739757  TIP3      38              0.0000000000
     11273       134  TIP3      H1            -22.2763769580       14.8564058891      -20.1375135944  TIP3      38              0.0000000000
     11274       134  TIP3      H2            -21.4303205759       14.5343426757      -21.3130289568  TIP3      38              0.0000000000
     11275       135  TIP3      OH2           -23.1493740372      -18.4661505657      -20.1664639743  TIP3      39              0.0000000000
     11276       135  TIP3      H1            -22.5427343735      -17.9995046797      -19.5495980622  TIP3      39              0.0000000000
     11277       135  TIP3      H2            -22.5226199158      -18.8959443752      -20.7725005925  TIP3      39              0.0000000000
     11278       136  TIP3      OH2           -19.7308263589      -17.2056802143      -22.0738028507  TIP3      40              0.0000000000
     11279       136  TIP3      H1            -19.9933538938      -16.2778708097      -22.0585530391  TIP3      40              0.0000000000
     11280       136  TIP3      H2            -20.0272402340      -17.5035328716      -21.2061383272  TIP3      40              0.0000000000
     11281       137  TIP3      OH2           -14.7026289611      -20.8513832973      -19.8520791107  TIP3      41              0.0000000000
     11282       137  TIP3      H1            -15.1967121890      -21.5800069547      -19.4157185376  TIP3      41              0.0000000000
     11283       137  TIP3      H2            -15.4183370962      -20.2146238015      -19.9806244385  TIP3      41              0.0000000000
     11284       138  TIP3      OH2           -18.6974065194      -24.0214328649      -20.0911489051  TIP3      42              0.0000000000
     11285       138  TIP3      H1            -19.4814744826      -23.8804506303      -19.5438401150  TIP3      42              0.0000000000
     11286       138  TIP3      H2            -18.9027537324      -23.5701747096      -20.9195553647  TIP3      42              0.0000000000
     11287       139  TIP3      OH2            22.6198784881      -14.1884273736      -20.8482882221  TIP3      43              0.0000000000
     11288       139  TIP3      H1             22.1159744188      -13.3814125150      -20.6554113469  TIP3      43              0.0000000000
     11289       139  TIP3      H2             21.9748631075      -14.7142985840      -21.3385970292  TIP3      43              0.0000000000
     11290       140  TIP3      OH2            25.4253081245      -18.6100670656      -20.1655817640  TIP3      44              0.0000000000
     11291       140  TIP3      H1             25.4781222428      -17.6330699529      -20.1613620831  TIP3      44              0.0000000000
     11292       140  TIP3      H2             25.9877785148      -18.7699876327      -20.9281949384  TIP3      44              0.0000000000
     11293       141  TIP3      OH2            24.6488504732      -15.9499167700      -20.3833827318  TIP3      45              0.0000000000
     11294       141  TIP3      H1             25.0198446715      -15.5078147435      -21.1555783970  TIP3      45              0.0000000000
     11295       141  TIP3      H2             23.7951480912      -15.4684448094      -20.3153281540  TIP3      45              0.0000000000
     11296       142  TIP3      OH2            23.0471420918      -20.1195609746      -20.1465116671  TIP3      46              0.0000000000
     11297       142  TIP3      H1             23.8331693832      -19.5423871847      -20.1502060870  TIP3      46              0.0000000000
     11298       142  TIP3      H2             22.5181678890      -19.6231266885      -19.4989027685  TIP3      46              0.0000000000
     11299       143  TIP3      OH2           -13.9734480957      -16.2274280566       26.6060067575  TIP3      47              0.0000000000
     11300       143  TIP3      H1            -13.7234437664      -15.4050700223       27.0511068813  TIP3      47              0.0000000000
     11301       143  TIP3      H2            -14.6645838160      -15.8964052183       26.0302082254  TIP3      47              0.0000000000
     11302       144  TIP3      OH2           -14.9246253256      -16.8909803695       30.4606539776  TIP3      48              0.0000000000
     11303       144  TIP3      H1            -14.5572510549      -17.1403254541       31.3257102856  TIP3      48              0.0000000000
     11304       144  TIP3      H2            -15.4428368464      -17.7008735570       30.2580066286  TIP3      48              0.0000000000
     11305       145  TIP3      OH2           -22.9911790291      -17.1835214203       31.6607369300  TIP3      49              0.0000000000
     11306       145  TIP3      H1            -23.0447310127      -18.1180345357       31.9586743137  TIP3      49              0.0000000000
     11307       145  TIP3      H2            -22.2940030410      -16.8780006272       32.2565372687  TIP3      49              0.0000000000
     11308       146  TIP3      OH2           -11.7644469161      -13.7099524629       28.9950501772  TIP3      50              0.0000000000
     11309       146  TIP3      H1            -11.9265290793      -14.5367902913       29.4781459849  TIP3      50              0.0000000000
     11310       146  TIP3      H2            -11.4424758054      -13.1630199897       29.7298350272  TIP3      50              0.0000000000
     11311       147  TIP3      OH2           -22.0957658167      -12.2178624339       30.1873343238  TIP3      51              0.0000000000
     11312       147  TIP3      H1            -22.5777822490      -13.0557825696       30.1074944729  TIP3      51              0.0000000000
     11313       147  TIP3      H2            -21.2059855038      -12.4889295986       29.8979093654  TIP3      51              0.0000000000
     11314       148  TIP3      OH2           -25.7667743368      -19.0238972347       26.2389702005  TIP3      52              0.0000000000
     11315       148  TIP3      H1            -26.3799395980      -18.2764734130       26.1316697193  TIP3      52              0.0000000000
     11316       148  TIP3      H2            -25.6678856902      -19.2930881248       25.2983790390  TIP3      52              0.0000000000
     11317       149  TIP3      OH2           -24.1949572845      -16.8006690917       27.9257877355  TIP3      53              0.0000000000
     11318       149  TIP3      H1            -24.0410652636      -17.7031360380       28.2773914360  TIP3      53              0.0000000000
     11319       149  TIP3      H2            -23.5086863405      -16.8173409678       27.2520593825  TIP3      53              0.0000000000
     11320       150  TIP3      OH2           -14.4081013587       -8.8201679832       28.8230336543  TIP3      54              0.0000000000
     11321       150  TIP3      H1            -13.6093569099       -9.3753244578       28.8907950943  TIP3      54              0.0000000000
     11322       150  TIP3      H2            -14.9615058746       -9.2311779194       29.5011875416  TIP3      54              0.0000000000
     11323       151  TIP3      OH2           -16.9901354512      -13.9738572580       31.0712942253  TIP3      55              0.0000000000
     11324       151  TIP3      H1            -16.8183862205      -14.7115748940       30.4660943081  TIP3      55              0.0000000000
     11325       151  TIP3      H2            -16.0733150076      -13.6669855274       31.2337037413  TIP3      55              0.0000000000
     11326       152  TIP3      OH2            -8.1242171548      -23.4098010331       31.0168980683  TIP3      56              0.0000000000
     11327       152  TIP3      H1             -8.0181187328      -22.6981476400       31.6780791282  TIP3      56              0.0000000000
     11328       152  TIP3      H2             -7.3916498985      -23.1973971670       30.4097434684  TIP3      56              0.0000000000
     11329       153  TIP3      OH2           -13.3443721933      -19.9585422840       31.1772273171  TIP3      57              0.0000000000
     11330       153  TIP3      H1            -14.1686863663      -20.4799957969       31.2902072111  TIP3      57              0.0000000000
     11331       153  TIP3      H2            -13.4462844006      -19.6698583448       30.2354367476  TIP3      57              0.0000000000
     11332       154  TIP3      OH2           -20.4729662903      -21.5313580166       28.1468616712  TIP3      58              0.0000000000
     11333       154  TIP3      H1            -20.7042168849      -20.8467447788       27.4836320879  TIP3      58              0.0000000000
     11334       154  TIP3      H2            -20.6877813031      -22.3178454079       27.6032547204  TIP3      58              0.0000000000
     11335       155  TIP3      OH2           -12.6349500109      -22.0744249393       26.4649576975  TIP3      59              0.0000000000
     11336       155  TIP3      H1            -12.1703263500      -21.9235876266       27.3130836283  TIP3      59              0.0000000000
     11337       155  TIP3      H2            -12.2021506736      -21.4032109609       25.9084385698  TIP3      59              0.0000000000
     11338       156  TIP3      OH2           -23.3409640316      -19.2117279119       28.8570461243  TIP3      60              0.0000000000
     11339       156  TIP3      H1            -22.9138732810      -19.4620160728       29.6966307979  TIP3      60              0.0000000000
     11340       156  TIP3      H2            -23.3957038510      -20.0994410710       28.4558620318  TIP3      60              0.0000000000
     11341       157  TIP3      OH2            -7.9611091757      -21.4801475595       33.3671364028  TIP3      61              0.0000000000
     11342       157  TIP3      H1             -8.3997307990      -20.6020883715       33.4036891203  TIP3      61              0.0000000000
     11343       157  TIP3      H2             -7.2961190375      -21.3726776949       34.0681073104  TIP3      61              0.0000000000
     11344       158  TIP3      OH2           -21.1561153408      -22.6975530712       32.1889186007  TIP3      62              0.0000000000
     11345       158  TIP3      H1            -21.5328320273      -22.1486341377       31.4627032024  TIP3      62              0.0000000000
     11346       158  TIP3      H2            -21.9480951489      -22.7752755275       32.7669109558  TIP3      62              0.0000000000
     11347       159  TIP3      OH2           -14.0834593314      -13.3450337137       25.8571972353  TIP3      63              0.0000000000
     11348       159  TIP3      H1            -14.3160237858      -13.0364042615       24.9689170050  TIP3      63              0.0000000000
     11349       159  TIP3      H2            -14.5324473939      -12.6858824918       26.4333099471  TIP3      63              0.0000000000
     11350       160  TIP3      OH2           -19.0441402864      -15.1911369208       32.4433758810  TIP3      64              0.0000000000
     11351       160  TIP3      H1            -19.6635274069      -14.5212304819       32.8064203664  TIP3      64              0.0000000000
     11352       160  TIP3      H2            -18.3910909845      -14.6116394668       31.9806713883  TIP3      64              0.0000000000
     11353       161  TIP3      OH2           -10.8379471438      -21.4025512472       28.5077285600  TIP3      65              0.0000000000
     11354       161  TIP3      H1            -10.7881491617      -22.2295889186       29.0213086134  TIP3      65              0.0000000000
     11355       161  TIP3      H2             -9.9896953062      -20.9925698285       28.7660583772  TIP3      65              0.0000000000
     11356       162  TIP3      OH2           -21.7826453684      -20.7202216248       30.4004838481  TIP3      66              0.0000000000
     11357       162  TIP3      H1            -21.1023929113      -20.1650474435       30.8561093591  TIP3      66              0.0000000000
     11358       162  TIP3      H2            -21.2907292056      -20.9933474672       29.5873394443  TIP3      66              0.0000000000
     11359       163  TIP3      OH2           -20.3530209264      -12.8563509653       32.9484978237  TIP3      67              0.0000000000
     11360       163  TIP3      H1            -20.6355864611      -12.2670210435       32.2398351207  TIP3      67              0.0000000000
     11361       163  TIP3      H2            -21.2188531149      -12.9731796211       33.4068227881  TIP3      67              0.0000000000
     11362       164  TIP3      OH2           -10.9943749798      -12.1280998700       31.1269044285  TIP3      68              0.0000000000
     11363       164  TIP3      H1            -11.9604517391      -12.0280503167       31.3059166539  TIP3      68              0.0000000000
     11364       164  TIP3      H2            -10.8389482094      -11.2603014601       30.6996903968  TIP3      68              0.0000000000
     11365       165  TIP3      OH2           -10.7139377769      -23.4115213936       31.9872219606  TIP3      69              0.0000000000
     11366       165  TIP3      H1            -11.2141493575      -24.2257290245       31.7896335206  TIP3      69              0.0000000000
     11367       165  TIP3      H2             -9.8128828366      -23.6901441725       31.7028011782  TIP3      69              0.0000000000
     11368       166  TIP3      OH2           -17.4793946617      -24.8055838149       29.7489267039  TIP3      70              0.0000000000
     11369       166  TIP3      H1            -17.4734205701      -25.6782596696       30.1548490969  TIP3      70              0.0000000000
     11370       166  TIP3      H2            -18.3918213617      -24.4972423410       29.9890847475  TIP3      70              0.0000000000
     11371       167  TIP3      OH2           -12.2709131674      -10.3816713031       27.5896259601  TIP3      71              0.0000000000
     11372       167  TIP3      H1            -11.8667270351      -11.0740277039       27.0259978413  TIP3      71              0.0000000000
     11373       167  TIP3      H2            -11.6162895388       -9.6668120098       27.4913125709  TIP3      71              0.0000000000
     11374       168  TIP3      OH2           -11.1349064713      -12.4937235468       25.9558781491  TIP3      72              0.0000000000
     11375       168  TIP3      H1            -11.8039614630      -12.8917028567       25.3790297929  TIP3      72              0.0000000000
     11376       168  TIP3      H2            -11.2398481048      -13.0617586261       26.7402713589  TIP3      72              0.0000000000
     11377       169  TIP3      OH2            -9.7867794430      -13.5990751018       34.7209760261  TIP3      73              0.0000000000
     11378       169  TIP3      H1             -9.9939375942      -14.3205658564       34.0760490860  TIP3      73              0.0000000000
     11379       169  TIP3      H2             -9.6550716801      -12.8484996778       34.1082321855  TIP3      73              0.0000000000
     11380       170  TIP3      OH2            -8.0454949919      -17.2686626256       32.0517452770  TIP3      74              0.0000000000
     11381       170  TIP3      H1             -8.4330230348      -16.4590355648       32.4198635180  TIP3      74              0.0000000000
     11382       170  TIP3      H2             -7.2173997688      -16.9194910486       31.6659532817  TIP3      74              0.0000000000
     11383       171  TIP3      OH2           -11.6224123555      -17.9293661057       34.1577772554  TIP3      75              0.0000000000
     11384       171  TIP3      H1            -11.3402257804      -17.0638380086       34.5065091522  TIP3      75              0.0000000000
     11385       171  TIP3      H2            -12.4315459375      -17.6661669391       33.6608911941  TIP3      75              0.0000000000
     11386       172  TIP3      OH2           -18.9808718002      -12.5395269603       29.6690448935  TIP3      76              0.0000000000
     11387       172  TIP3      H1            -19.0144231471      -12.7030821973       28.7036271034  TIP3      76              0.0000000000
     11388       172  TIP3      H2            -18.1728292594      -13.0089202098       29.9610741669  TIP3      76              0.0000000000
     11389       173  TIP3      OH2           -19.5632334658      -17.0755760731       30.6235066227  TIP3      77              0.0000000000
     11390       173  TIP3      H1            -19.7135158045      -16.5826735680       29.8048702665  TIP3      77              0.0000000000
     11391       173  TIP3      H2            -19.4254631242      -16.3803741859       31.2958422238  TIP3      77              0.0000000000
     11392       174  TIP3      OH2           -13.4901676158      -11.4002171999       31.4875640059  TIP3      78              0.0000000000
     11393       174  TIP3      H1            -13.5897744830      -10.6626739673       32.1158322470  TIP3      78              0.0000000000
     11394       174  TIP3      H2            -13.9553032380      -12.1230555367       31.9567126713  TIP3      78              0.0000000000
     11395       175  TIP3      OH2           -19.0009141568      -12.6803347322       35.2935738309  TIP3      79              0.0000000000
     11396       175  TIP3      H1            -19.7473368821      -12.2039925504       35.7184280825  TIP3      79              0.0000000000
     11397       175  TIP3      H2            -19.3964808383      -12.7930961304       34.3980024440  TIP3      79              0.0000000000
     11398       176  TIP3      OH2           -21.8382462307      -16.7355123876       34.7541414608  TIP3      80              0.0000000000
     11399       176  TIP3      H1            -21.9767107851      -16.0173318287       35.3883188341  TIP3      80              0.0000000000
     11400       176  TIP3      H2            -22.7657580057      -17.0141726009       34.5723840368  TIP3      80              0.0000000000
     11401       177  TIP3      OH2           -14.7948877007      -10.8064865516       26.7177167284  TIP3      81              0.0000000000
     11402       177  TIP3      H1            -14.0356416510      -10.5756344834       27.2979994870  TIP3      81              0.0000000000
     11403       177  TIP3      H2            -15.3028724462       -9.9856096408       26.6861712056  TIP3      81              0.0000000000
     11404       178  TIP3      OH2           -20.7989362721      -10.9584395175       36.3071781810  TIP3      82              0.0000000000
     11405       178  TIP3      H1            -20.7180738485      -10.4897889138       35.4446200536  TIP3      82              0.0000000000
     11406       178  TIP3      H2            -21.7390023460      -11.2006042659       36.2714095339  TIP3      82              0.0000000000
     11407       179  TIP3      OH2            -9.1623131534      -25.2403326301       22.9882221928  TIP3      83              0.0000000000
     11408       179  TIP3      H1            -10.0696233217      -25.3238890786       23.3528813044  TIP3      83              0.0000000000
     11409       179  TIP3      H2             -9.2695050469      -24.3655774178       22.6001335362  TIP3      83              0.0000000000
     11410       180  TIP3      OH2           -24.9427592151      -14.3946354281       33.7639954027  TIP3      84              0.0000000000
     11411       180  TIP3      H1            -25.6698037732      -14.3337060565       33.1151022488  TIP3      84              0.0000000000
     11412       180  TIP3      H2            -24.5619624934      -15.2572841778       33.5352431008  TIP3      84              0.0000000000
     11413       181  TIP3      OH2           -24.9231910507      -11.1820278929       29.7412476461  TIP3      85              0.0000000000
     11414       181  TIP3      H1            -24.2061636529      -11.6771503971       30.1665418972  TIP3      85              0.0000000000
     11415       181  TIP3      H2            -25.3594152167      -10.8112351212       30.5284406669  TIP3      85              0.0000000000
     11416       182  TIP3      OH2            -7.1229493265      -11.2402460506       36.2181699524  TIP3      86              0.0000000000
     11417       182  TIP3      H1             -7.1626837027      -12.2196350648       36.1734488070  TIP3      86              0.0000000000
     11418       182  TIP3      H2             -8.0309680918      -11.0619361506       36.5415302756  TIP3      86              0.0000000000
     11419       183  TIP3      OH2           -16.3175461507      -11.6039041805       35.1293236570  TIP3      87              0.0000000000
     11420       183  TIP3      H1            -16.1897030986      -10.7470889629       35.5784548678  TIP3      87              0.0000000000
     11421       183  TIP3      H2            -17.2923662903      -11.7210614339       35.0838331644  TIP3      87              0.0000000000
     11422       184  TIP3      OH2           -15.5140995373       -8.1315050082       24.4729796330  TIP3      88              0.0000000000
     11423       184  TIP3      H1            -15.5822041712       -7.8526871785       23.5254856282  TIP3      88              0.0000000000
     11424       184  TIP3      H2            -15.6688950249       -7.2611715846       24.8968343304  TIP3      88              0.0000000000
     11425       185  TIP3      OH2           -21.8688409014       -8.8621804588       26.7969470020  TIP3      89              0.0000000000
     11426       185  TIP3      H1            -21.6081234279       -9.1158892949       27.7137773001  TIP3      89              0.0000000000
     11427       185  TIP3      H2            -22.5294411649       -9.5643603955       26.6239707989  TIP3      89              0.0000000000
     11428       186  TIP3      OH2           -12.5873917901       -8.5740035188       22.3647547073  TIP3      90              0.0000000000
     11429       186  TIP3      H1            -13.1490578986       -9.2828275401       22.0374146518  TIP3      90              0.0000000000
     11430       186  TIP3      H2            -12.6815784219       -8.6991873939       23.3275957900  TIP3      90              0.0000000000
     11431       187  TIP3      OH2           -13.0163469272       -8.8744133128       25.0281943810  TIP3      91              0.0000000000
     11432       187  TIP3      H1            -13.9446648843       -8.5596163287       24.9960933290  TIP3      91              0.0000000000
     11433       187  TIP3      H2            -13.1313797754       -9.6989269448       25.5307445354  TIP3      91              0.0000000000
     11434       188  TIP3      OH2           -10.7023743944      -19.4984341255       36.5438496159  TIP3      92              0.0000000000
     11435       188  TIP3      H1            -11.0347456487      -19.1786491306       35.6880354169  TIP3      92              0.0000000000
     11436       188  TIP3      H2            -10.7192794743      -20.4796584001       36.4354262517  TIP3      92              0.0000000000
     11437       189  TIP3      OH2           -22.6516046613      -13.0064526712       34.3293531517  TIP3      93              0.0000000000
     11438       189  TIP3      H1            -22.6491816455      -13.3219124681       35.2562294866  TIP3      93              0.0000000000
     11439       189  TIP3      H2            -23.5520714466      -13.3349286801       34.0992593456  TIP3      93              0.0000000000
     11440       190  TIP3      OH2           -19.9050316438      -23.9199266995       30.3074051855  TIP3      94              0.0000000000
     11441       190  TIP3      H1            -20.7356812974      -24.2979549010       29.9604217141  TIP3      94              0.0000000000
     11442       190  TIP3      H2            -20.2556908479      -23.3486330181       31.0251511717  TIP3      94              0.0000000000
     11443       191  TIP3      OH2           -15.6433562103      -24.6023656155       34.2031444986  TIP3      95              0.0000000000
     11444       191  TIP3      H1            -16.0877945478      -24.6701276855       35.0677736131  TIP3      95              0.0000000000
     11445       191  TIP3      H2            -16.3190027383      -25.0401129715       33.6529353225  TIP3      95              0.0000000000
     11446       192  TIP3      OH2           -12.3909207806      -20.7630431270       34.2666987569  TIP3      96              0.0000000000
     11447       192  TIP3      H1            -12.7657434714      -21.0510575023       35.1353677446  TIP3      96              0.0000000000
     11448       192  TIP3      H2            -12.7702162034      -19.8698045193       34.1843482790  TIP3      96              0.0000000000
     11449       193  TIP3      OH2           -19.6917073658      -19.5264133903       31.5651518486  TIP3      97              0.0000000000
     11450       193  TIP3      H1            -19.8918061248      -19.2459356240       32.4901125000  TIP3      97              0.0000000000
     11451       193  TIP3      H2            -19.6292904454      -18.6415009641       31.1249498059  TIP3      97              0.0000000000
     11452       194  TIP3      OH2           -15.2556292305      -19.1774952954       25.0812914432  TIP3      98              0.0000000000
     11453       194  TIP3      H1            -15.4189017367      -18.2222799820       25.0154468242  TIP3      98              0.0000000000
     11454       194  TIP3      H2            -14.4885302474      -19.3092602684       24.5130090951  TIP3      98              0.0000000000
     11455       195  TIP3      OH2           -16.0825172964      -18.2628154381       37.3743963848  TIP3      99              0.0000000000
     11456       195  TIP3      H1            -16.2687718445      -19.2214622526       37.2417562376  TIP3      99              0.0000000000
     11457       195  TIP3      H2            -15.1609569128      -18.3437184222       37.6891317223  TIP3      99              0.0000000000
     11458       196  TIP3      OH2           -13.4393241887      -19.0698993867       28.5511803730  TIP3      100             0.0000000000
     11459       196  TIP3      H1            -13.6786230754      -18.3707298527       27.9141312058  TIP3      100             0.0000000000
     11460       196  TIP3      H2            -13.7088122337      -19.8559288533       28.0615145550  TIP3      100             0.0000000000
     11461       197  TIP3      OH2           -22.8998766552      -19.4764669952       33.0097168580  TIP3      101             0.0000000000
     11462       197  TIP3      H1            -22.5408393078      -19.1851771292       33.8622678786  TIP3      101             0.0000000000
     11463       197  TIP3      H2            -22.8799998295      -20.4500697488       33.0642195131  TIP3      101             0.0000000000
     11464       198  TIP3      OH2           -25.9058914920      -23.5553102528       27.9438613909  TIP3      102             0.0000000000
     11465       198  TIP3      H1            -25.1498016270      -23.0986044650       28.3592146828  TIP3      102             0.0000000000
     11466       198  TIP3      H2            -25.6401476298      -23.5263085280       26.9999802020  TIP3      102             0.0000000000
     11467       199  TIP3      OH2           -24.0050808111      -22.3020197555       23.4918524023  TIP3      103             0.0000000000
     11468       199  TIP3      H1            -23.1448118158      -21.9033024389       23.3076111264  TIP3      103             0.0000000000
     11469       199  TIP3      H2            -24.5343231770      -21.9540550792       22.7584527643  TIP3      103             0.0000000000
     11470       200  TIP3      OH2           -13.9817228493      -17.8167206567       32.7682971788  TIP3      104             0.0000000000
     11471       200  TIP3      H1            -13.6537948344      -18.6159507493       32.2929217136  TIP3      104             0.0000000000
     11472       200  TIP3      H2            -14.6509382422      -18.2144337472       33.3661727253  TIP3      104             0.0000000000
     11473       201  TIP3      OH2           -17.7740660165      -21.3258953908       28.1012880556  TIP3      105             0.0000000000
     11474       201  TIP3      H1            -18.7339790304      -21.5625637430       28.1469825368  TIP3      105             0.0000000000
     11475       201  TIP3      H2            -17.3828492994      -21.8275375070       28.8382961122  TIP3      105             0.0000000000
     11476       202  TIP3      OH2           -13.1289277028      -22.9041106394       30.5117392080  TIP3      106             0.0000000000
     11477       202  TIP3      H1            -13.9787577317      -23.0399341520       30.9659836561  TIP3      106             0.0000000000
     11478       202  TIP3      H2            -13.2592025438      -23.4494078986       29.7137799215  TIP3      106             0.0000000000
     11479       203  TIP3      OH2           -10.1684152109       -7.0039823593       37.3170743022  TIP3      107             0.0000000000
     11480       203  TIP3      H1            -10.0829948805       -6.0508323834       37.1458129127  TIP3      107             0.0000000000
     11481       203  TIP3      H2             -9.5398699880       -7.0874765891       38.0472403994  TIP3      107             0.0000000000
     11482       204  TIP3      OH2           -22.9507593494      -14.1148300426       36.8535488309  TIP3      108             0.0000000000
     11483       204  TIP3      H1            -22.1280597392      -14.3336015853       37.3676657590  TIP3      108             0.0000000000
     11484       204  TIP3      H2            -23.6642944868      -14.4473318755       37.4301112925  TIP3      108             0.0000000000
     11485       205  TIP3      OH2           -16.1939366085      -19.2245956287       29.8874566156  TIP3      109             0.0000000000
     11486       205  TIP3      H1            -15.8445985028      -19.4680270925       29.0192031236  TIP3      109             0.0000000000
     11487       205  TIP3      H2            -17.1167247244      -19.5216375871       29.8198265610  TIP3      109             0.0000000000
     11488       206  TIP3      OH2           -21.3529168517      -23.0811163823       26.0988512162  TIP3      110             0.0000000000
     11489       206  TIP3      H1            -21.7416769303      -23.9612201418       26.2543477589  TIP3      110             0.0000000000
     11490       206  TIP3      H2            -20.5745091450      -23.2788636534       25.5749822122  TIP3      110             0.0000000000
     11491       207  TIP3      OH2           -17.6592188493      -21.0814697134       32.2323556061  TIP3      111             0.0000000000
     11492       207  TIP3      H1            -18.4247455701      -20.5121978550       31.9835327083  TIP3      111             0.0000000000
     11493       207  TIP3      H2            -16.9451319627      -20.4346020236       32.2682677620  TIP3      111             0.0000000000
     11494       208  TIP3      OH2           -10.0912088887      -15.2575619073       32.6739474218  TIP3      112             0.0000000000
     11495       208  TIP3      H1             -9.7283145370      -14.9230418235       31.8215366045  TIP3      112             0.0000000000
     11496       208  TIP3      H2            -10.9088892542      -15.6559106291       32.3255124478  TIP3      112             0.0000000000
     11497       209  TIP3      OH2           -13.6739789555      -21.2836932727       22.9808402827  TIP3      113             0.0000000000
     11498       209  TIP3      H1            -14.3190082728      -21.0340169886       22.3009937837  TIP3      113             0.0000000000
     11499       209  TIP3      H2            -12.8113038697      -21.1825540549       22.5257803275  TIP3      113             0.0000000000
     11500       210  TIP3      OH2           -15.8703934613      -14.1617185582       34.5454098683  TIP3      114             0.0000000000
     11501       210  TIP3      H1            -15.8747651572      -14.4931724290       35.4458220002  TIP3      114             0.0000000000
     11502       210  TIP3      H2            -15.9778564785      -13.1945914378       34.7047082257  TIP3      114             0.0000000000
     11503       211  TIP3      OH2           -24.4291412120      -17.0750053950       34.3522704557  TIP3      115             0.0000000000
     11504       211  TIP3      H1            -24.6567650304      -16.9416565844       35.2925756763  TIP3      115             0.0000000000
     11505       211  TIP3      H2            -25.2090352484      -17.5980241414       34.0606501007  TIP3      115             0.0000000000
     11506       212  TIP3      OH2           -18.5837151856      -17.1221615542       36.4478871155  TIP3      116             0.0000000000
     11507       212  TIP3      H1            -18.6927173836      -17.1771213844       35.4831978108  TIP3      116             0.0000000000
     11508       212  TIP3      H2            -17.7211706206      -17.5811161336       36.5579288980  TIP3      116             0.0000000000
     11509       213  TIP3      OH2           -12.9557221635      -12.1325598596       35.1109553566  TIP3      117             0.0000000000
     11510       213  TIP3      H1            -13.8004266499      -11.9121210945       34.7086878306  TIP3      117             0.0000000000
     11511       213  TIP3      H2            -13.1260562685      -11.7376899890       35.9957229049  TIP3      117             0.0000000000
     11512       214  TIP3      OH2            -7.3310177032      -14.1341800797       35.8317845731  TIP3      118             0.0000000000
     11513       214  TIP3      H1             -8.1687753646      -13.9143929791       35.3659673329  TIP3      118             0.0000000000
     11514       214  TIP3      H2             -6.7521297112      -14.2623658581       35.0562734551  TIP3      118             0.0000000000
     11515       215  TIP3      OH2            -9.6768007285      -11.3679057910       23.6419489835  TIP3      119             0.0000000000
     11516       215  TIP3      H1            -10.0494644289      -11.4325551420       24.5380691275  TIP3      119             0.0000000000
     11517       215  TIP3      H2             -9.2685654880      -12.2355020651       23.5828475375  TIP3      119             0.0000000000
     11518       216  TIP3      OH2           -11.8811247865      -16.1554482995       30.6783929074  TIP3      120             0.0000000000
     11519       216  TIP3      H1            -12.7815297978      -16.4775177611       30.4959929434  TIP3      120             0.0000000000
     11520       216  TIP3      H2            -11.3209770959      -16.7038493088       30.0882967757  TIP3      120             0.0000000000
     11521       217  TIP3      OH2           -19.6200975559      -11.8430608213       27.0683777993  TIP3      121             0.0000000000
     11522       217  TIP3      H1            -18.9580747763      -11.2654599110       26.6563014533  TIP3      121             0.0000000000
     11523       217  TIP3      H2            -20.4486193809      -11.4801118671       26.7349120409  TIP3      121             0.0000000000
     11524       218  TIP3      OH2           -17.6515478149       -9.9359482679       32.9773557085  TIP3      122             0.0000000000
     11525       218  TIP3      H1            -17.0613240157       -9.2503687410       32.6051379426  TIP3      122             0.0000000000
     11526       218  TIP3      H2            -17.1106120412      -10.2606527177       33.7139801954  TIP3      122             0.0000000000
     11527       219  TIP3      OH2           -19.2097603379       -9.0091566001       26.0884318748  TIP3      123             0.0000000000
     11528       219  TIP3      H1            -20.1356242607       -8.8782898808       26.3643054665  TIP3      123             0.0000000000
     11529       219  TIP3      H2            -18.8777298993       -8.1083749616       26.1735111907  TIP3      123             0.0000000000
     11530       220  TIP3      OH2           -14.5065361906      -13.9158954283       32.1160373982  TIP3      124             0.0000000000
     11531       220  TIP3      H1            -15.0341699293      -14.2338304023       32.8887581685  TIP3      124             0.0000000000
     11532       220  TIP3      H2            -14.0228564635      -14.7202113658       31.8744550743  TIP3      124             0.0000000000
     11533       221  TIP3      OH2           -11.1658417775       -9.7552985589       34.8366194404  TIP3      125             0.0000000000
     11534       221  TIP3      H1            -11.9972729061      -10.2463695219       34.6970754819  TIP3      125             0.0000000000
     11535       221  TIP3      H2            -11.2018442582       -9.0859354835       34.1111281011  TIP3      125             0.0000000000
     11536       222  TIP3      OH2           -23.4236475686      -22.5055887255       33.8043335895  TIP3      126             0.0000000000
     11537       222  TIP3      H1            -24.1944148841      -21.9564603202       34.0489903685  TIP3      126             0.0000000000
     11538       222  TIP3      H2            -23.8635039211      -23.3871024300       33.8820484499  TIP3      126             0.0000000000
     11539       223  TIP3      OH2           -23.8619795834      -10.3119490698       32.2765186439  TIP3      127             0.0000000000
     11540       223  TIP3      H1            -23.0854883933      -10.7980283787       32.5949017089  TIP3      127             0.0000000000
     11541       223  TIP3      H2            -24.3157249654      -10.1111965869       33.1004981790  TIP3      127             0.0000000000
     11542       224  TIP3      OH2           -17.5143121906      -11.6949015667       20.9174630312  TIP3      128             0.0000000000
     11543       224  TIP3      H1            -17.9391330882      -12.2631797995       20.2647816248  TIP3      128             0.0000000000
     11544       224  TIP3      H2            -18.1199227454      -11.7933374824       21.6768778947  TIP3      128             0.0000000000
     11545       225  TIP3      OH2           -19.1088691653      -12.7611002520       23.1761739042  TIP3      129             0.0000000000
     11546       225  TIP3      H1            -19.0586045912      -13.6560326796       22.7995620422  TIP3      129             0.0000000000
     11547       225  TIP3      H2            -18.2155781474      -12.5431059852       23.4814343020  TIP3      129             0.0000000000
     11548       226  TIP3      OH2           -14.6275895213      -22.2410141872       33.2532716554  TIP3      130             0.0000000000
     11549       226  TIP3      H1            -14.2069162071      -22.1263330265       34.1236269637  TIP3      130             0.0000000000
     11550       226  TIP3      H2            -15.0569785719      -23.1204268454       33.3876145103  TIP3      130             0.0000000000
     11551       227  TIP3      OH2           -13.9839363079      -23.4324582463       24.5191541330  TIP3      131             0.0000000000
     11552       227  TIP3      H1            -14.0357353223      -22.6118146796       23.9691231535  TIP3      131             0.0000000000
     11553       227  TIP3      H2            -13.3904165612      -23.0773923421       25.2311482069  TIP3      131             0.0000000000
     11554       228  TIP3      OH2           -16.6554646765      -10.8139952976       23.5157767452  TIP3      132             0.0000000000
     11555       228  TIP3      H1            -16.4828713880      -10.0895843949       24.1324728272  TIP3      132             0.0000000000
     11556       228  TIP3      H2            -16.0654292898      -10.6176993989       22.7789084774  TIP3      132             0.0000000000
     11557       229  TIP3      OH2           -16.5750993940      -21.5224892126       25.5856665197  TIP3      133             0.0000000000
     11558       229  TIP3      H1            -16.1922329962      -20.6366990074       25.4386934288  TIP3      133             0.0000000000
     11559       229  TIP3      H2            -17.0147946295      -21.3728031008       26.4467808866  TIP3      133             0.0000000000
     11560       230  TIP3      OH2           -15.3812540139      -19.5895635326       34.2437606335  TIP3      134             0.0000000000
     11561       230  TIP3      H1            -16.1605799291      -19.4153764273       34.7979331897  TIP3      134             0.0000000000
     11562       230  TIP3      H2            -15.3673435726      -20.5604672112       34.1680028122  TIP3      134             0.0000000000
     11563       231  TIP3      OH2           -15.5448860358      -24.5101147675       26.3661792813  TIP3      135             0.0000000000
     11564       231  TIP3      H1            -15.9732481835      -23.6743460450       26.5932302482  TIP3      135             0.0000000000
     11565       231  TIP3      H2            -14.9089113191      -24.1706269675       25.6991377278  TIP3      135             0.0000000000
     11566       232  TIP3      OH2           -19.5995467928      -22.3076747138       22.4992927047  TIP3      136             0.0000000000
     11567       232  TIP3      H1            -20.1207048347      -21.6941148119       23.0440539303  TIP3      136             0.0000000000
     11568       232  TIP3      H2            -18.8733432049      -22.5575298266       23.0998754554  TIP3      136             0.0000000000
     11569       233  TIP3      OH2            -9.9370504687      -21.8368910069       35.4333709554  TIP3      137             0.0000000000
     11570       233  TIP3      H1            -10.8225815629      -21.8647890500       35.0334283479  TIP3      137             0.0000000000
     11571       233  TIP3      H2             -9.3801742854      -22.0745059401       34.6660678911  TIP3      137             0.0000000000
     11572       234  TIP3      OH2           -10.9004638972      -18.1864731054       29.0544519656  TIP3      138             0.0000000000
     11573       234  TIP3      H1            -11.7563753652      -18.6608195807       28.9795636189  TIP3      138             0.0000000000
     11574       234  TIP3      H2            -10.3809609221      -18.7601307867       29.6343206408  TIP3      138             0.0000000000
     11575       235  TIP3      OH2           -24.2541695974      -19.6531430564       21.2809869334  TIP3      139             0.0000000000
     11576       235  TIP3      H1            -23.4746338538      -19.0904864548       21.4081415310  TIP3      139             0.0000000000
     11577       235  TIP3      H2            -24.1599199481      -19.8149932891       20.3219844092  TIP3      139             0.0000000000
     11578       236  TIP3      OH2           -10.4296733592       -9.3702063181       30.5929822887  TIP3      140             0.0000000000
     11579       236  TIP3      H1            -10.4893975970       -8.6668218463       29.9173925195  TIP3      140             0.0000000000
     11580       236  TIP3      H2             -9.4793581601       -9.3098383319       30.8397415012  TIP3      140             0.0000000000
     11581       237  TIP3      OH2           -22.4485761697      -24.4879019757       29.2967743647  TIP3      141             0.0000000000
     11582       237  TIP3      H1            -22.6812062481      -24.8262348005       28.4093788903  TIP3      141             0.0000000000
     11583       237  TIP3      H2            -22.5202539698      -25.2964836790       29.8463723305  TIP3      141             0.0000000000
     11584       238  TIP3      OH2           -23.6874079111      -10.7657284106       26.1923175295  TIP3      142             0.0000000000
     11585       238  TIP3      H1            -24.5453159779      -10.4093732528       26.4671522148  TIP3      142             0.0000000000
     11586       238  TIP3      H2            -23.6304413241      -10.4402982789       25.2725321436  TIP3      142             0.0000000000
     11587       239  TIP3      OH2           -24.4399624262       -7.9319443174       37.3507974428  TIP3      143             0.0000000000
     11588       239  TIP3      H1            -23.7579582646       -8.0962199008       38.0576119231  TIP3      143             0.0000000000
     11589       239  TIP3      H2            -24.5497670826       -8.8348660694       37.0076306490  TIP3      143             0.0000000000
     11590       240  TIP3      OH2           -20.1019445086       -9.4479270524       38.4323970877  TIP3      144             0.0000000000
     11591       240  TIP3      H1            -19.3917699852      -10.0298820494       38.7383339584  TIP3      144             0.0000000000
     11592       240  TIP3      H2            -20.2151999111       -9.7769338958       37.5072844481  TIP3      144             0.0000000000
     11593       241  TIP3      OH2           -15.2907565894      -10.1301072836       20.9395230582  TIP3      145             0.0000000000
     11594       241  TIP3      H1            -16.0586324375      -10.7424893713       20.9609995840  TIP3      145             0.0000000000
     11595       241  TIP3      H2            -14.9474736384      -10.3262333164       20.0492256510  TIP3      145             0.0000000000
     11596       242  TIP3      OH2           -13.6160053468      -11.1679170513       37.4677493180  TIP3      146             0.0000000000
     11597       242  TIP3      H1            -13.9023598501      -11.9509610824       37.9889931938  TIP3      146             0.0000000000
     11598       242  TIP3      H2            -12.7802009117      -10.9530584345       37.9371730185  TIP3      146             0.0000000000
     11599       243  TIP3      OH2           -11.4517087242      -11.1114509156       20.4504836183  TIP3      147             0.0000000000
     11600       243  TIP3      H1            -10.7594967264      -11.0963069868       21.1242502754  TIP3      147             0.0000000000
     11601       243  TIP3      H2            -11.3910894518      -10.2324633480       20.0576810789  TIP3      147             0.0000000000
     11602       244  TIP3      OH2           -25.4332605374      -14.7538931643       38.0812564884  TIP3      148             0.0000000000
     11603       244  TIP3      H1            -25.3684191855      -15.7167104487       38.0304269331  TIP3      148             0.0000000000
     11604       244  TIP3      H2            -26.1510981378      -14.5834273855       37.4392831168  TIP3      148             0.0000000000
     11605       245  TIP3      OH2           -18.1226138486      -14.5388758168       36.9577697131  TIP3      149             0.0000000000
     11606       245  TIP3      H1            -18.3835937732      -13.9568768933       36.1993702392  TIP3      149             0.0000000000
     11607       245  TIP3      H2            -18.2355064104      -15.4531500443       36.6181759729  TIP3      149             0.0000000000
     11608       246  TIP3      OH2           -12.2179448365      -14.6365708953       35.2936125176  TIP3      150             0.0000000000
     11609       246  TIP3      H1            -11.3479488284      -14.1995034927       35.4074505340  TIP3      150             0.0000000000
     11610       246  TIP3      H2            -12.7448210804      -13.8454939793       35.0345690921  TIP3      150             0.0000000000
     11611       247  TIP3      OH2           -24.5060522610      -17.3899685829       37.3781139022  TIP3      151             0.0000000000
     11612       247  TIP3      H1            -23.6691643922      -17.2830578870       37.8481046494  TIP3      151             0.0000000000
     11613       247  TIP3      H2            -24.6988227385      -18.3116597666       37.6212042027  TIP3      151             0.0000000000
     11614       248  TIP3      OH2           -19.9474219630      -18.3480206776       33.8606084770  TIP3      152             0.0000000000
     11615       248  TIP3      H1            -20.5252264432      -17.6807743372       34.3124640993  TIP3      152             0.0000000000
     11616       248  TIP3      H2            -19.1068138480      -17.8553375209       33.7730156379  TIP3      152             0.0000000000
     11617       249  TIP3      OH2           -14.7388270946      -15.3739118860       38.2246293689  TIP3      153             0.0000000000
     11618       249  TIP3      H1            -14.0759246595      -15.9732089376       37.8360474025  TIP3      153             0.0000000000
     11619       249  TIP3      H2            -15.4327330489      -15.9644220929       38.5539176035  TIP3      153             0.0000000000
     11620       250  TIP3      OH2           -19.5173848395      -20.2574214795       35.7087412178  TIP3      154             0.0000000000
     11621       250  TIP3      H1            -19.4047933039      -21.1379273298       35.2935519964  TIP3      154             0.0000000000
     11622       250  TIP3      H2            -19.6450983083      -19.6736023249       34.9349063695  TIP3      154             0.0000000000
     11623       251  TIP3      OH2           -18.9881071913      -22.6852734129       33.8586741811  TIP3      155             0.0000000000
     11624       251  TIP3      H1            -18.4541298482      -22.2565814705       33.1370248537  TIP3      155             0.0000000000
     11625       251  TIP3      H2            -19.8238763501      -22.8629830818       33.3825261841  TIP3      155             0.0000000000
     11626       252  TIP3      OH2           -17.5272163810      -16.9677006006       33.7402429926  TIP3      156             0.0000000000
     11627       252  TIP3      H1            -16.6187884361      -16.6243628250       33.8321851365  TIP3      156             0.0000000000
     11628       252  TIP3      H2            -18.0063855604      -16.2092007124       33.3312871651  TIP3      156             0.0000000000
     11629       253  TIP3      OH2           -13.4389212884      -19.4052987976       38.5296941810  TIP3      157             0.0000000000
     11630       253  TIP3      H1            -13.0893036795      -20.2628938230       38.8108916546  TIP3      157             0.0000000000
     11631       253  TIP3      H2            -12.6480874856      -18.9794637566       38.1714623141  TIP3      157             0.0000000000
     11632       254  TIP3      OH2           -12.5813820605      -16.6923080722       37.0837109575  TIP3      158             0.0000000000
     11633       254  TIP3      H1            -12.5494093247      -16.0369343429       36.3419221448  TIP3      158             0.0000000000
     11634       254  TIP3      H2            -11.7157542299      -17.1211108564       36.9879145073  TIP3      158             0.0000000000
     11635       255  TIP3      OH2           -21.4028553616      -19.4650560349       38.4479869915  TIP3      159             0.0000000000
     11636       255  TIP3      H1            -21.7531713370      -20.3404508382       38.1501785078  TIP3      159             0.0000000000
     11637       255  TIP3      H2            -20.7869276590      -19.2734804428       37.7117004383  TIP3      159             0.0000000000
     11638       256  TIP3      OH2           -18.1665426442      -25.3613034969       33.2353468393  TIP3      160             0.0000000000
     11639       256  TIP3      H1            -18.5616907933      -24.5322379093       33.5629697693  TIP3      160             0.0000000000
     11640       256  TIP3      H2            -18.9072540995      -25.7937919428       32.7802829518  TIP3      160             0.0000000000
     11641       257  TIP3      OH2           -16.9149999949      -20.8831220472       37.0242141205  TIP3      161             0.0000000000
     11642       257  TIP3      H1            -17.1185651737      -21.4153248162       37.8109304459  TIP3      161             0.0000000000
     11643       257  TIP3      H2            -17.5402229038      -21.2969036944       36.4089924525  TIP3      161             0.0000000000
     11644       258  TIP3      OH2           -13.7633541873      -21.7198451394       36.4728325408  TIP3      162             0.0000000000
     11645       258  TIP3      H1            -14.6527155973      -21.4463544792       36.7698077762  TIP3      162             0.0000000000
     11646       258  TIP3      H2            -13.4780629505      -22.2819920916       37.2312966179  TIP3      162             0.0000000000
     11647       259  TIP3      OH2           -12.9150753895      -23.2720970566       38.6350285456  TIP3      163             0.0000000000
     11648       259  TIP3      H1            -12.7827330582      -24.2026043713       38.3496278626  TIP3      163             0.0000000000
     11649       259  TIP3      H2            -12.7961974760      -23.2773718334       39.5983054420  TIP3      163             0.0000000000
     11650       260  TIP3      OH2           -22.7682027134      -21.7649555217       37.8948403410  TIP3      164             0.0000000000
     11651       260  TIP3      H1            -22.9948984876      -22.4691106057       37.2428121487  TIP3      164             0.0000000000
     11652       260  TIP3      H2            -23.0019872984      -22.2375756654       38.7270523826  TIP3      164             0.0000000000
     11653       261  TIP3      OH2           -17.6414030242      -25.6236167409       36.1591519739  TIP3      165             0.0000000000
     11654       261  TIP3      H1            -18.2009176821      -26.0982229064       36.8106096167  TIP3      165             0.0000000000
     11655       261  TIP3      H2            -18.2070970842      -25.5908860379       35.3707856986  TIP3      165             0.0000000000
     11656       262  TIP3      OH2           -17.1359557554      -23.6498421766       38.5137451070  TIP3      166             0.0000000000
     11657       262  TIP3      H1            -16.9337708864      -24.5469968209       38.2263005258  TIP3      166             0.0000000000
     11658       262  TIP3      H2            -18.1149610154      -23.6299489950       38.4507581222  TIP3      166             0.0000000000
     11659       263  TIP3      OH2           -25.4970175699       -7.0819060801       25.9108392420  TIP3      167             0.0000000000
     11660       263  TIP3      H1            -26.2029896273       -7.5862120897       25.4889332562  TIP3      167             0.0000000000
     11661       263  TIP3      H2            -25.3637716840       -7.5749947262       26.7365822609  TIP3      167             0.0000000000
     11662       264  TIP3      OH2           -24.7804314846       -8.9587210601       28.0941449391  TIP3      168             0.0000000000
     11663       264  TIP3      H1            -24.5872611108       -9.8939176208       28.3284636038  TIP3      168             0.0000000000
     11664       264  TIP3      H2            -24.2112866665       -8.5378457612       28.7787243047  TIP3      168             0.0000000000
     11665       265  TIP3      OH2            -7.9244850032       -8.3903999475       30.9848383509  TIP3      169             0.0000000000
     11666       265  TIP3      H1             -7.4532278556       -8.1099960990       31.7801230439  TIP3      169             0.0000000000
     11667       265  TIP3      H2             -8.2216016733       -7.5470308313       30.6030810995  TIP3      169             0.0000000000
     11668       266  TIP3      OH2            -7.6468572020       -9.4067989866       34.0012398081  TIP3      170             0.0000000000
     11669       266  TIP3      H1             -8.2366041372      -10.0542903604       33.5403505097  TIP3      170             0.0000000000
     11670       266  TIP3      H2             -7.7069859673       -9.7671782794       34.9096035008  TIP3      170             0.0000000000
     11671       267  TIP3      OH2            -8.9392381410      -13.4582076585       39.0479931912  TIP3      171             0.0000000000
     11672       267  TIP3      H1             -9.8670087002      -13.7164516805       38.8537676398  TIP3      171             0.0000000000
     11673       267  TIP3      H2             -9.0456548561      -12.6261625943       39.5255263505  TIP3      171             0.0000000000
     11674       268  TIP3      OH2            -8.1743056159      -14.4710588646       24.2890158182  TIP3      172             0.0000000000
     11675       268  TIP3      H1             -7.2437886770      -14.1968732831       24.1960648415  TIP3      172             0.0000000000
     11676       268  TIP3      H2             -8.0878372329      -15.1475564395       25.0014324354  TIP3      172             0.0000000000
     11677       269  TIP3      OH2            -8.0689780231      -16.6385036884       26.0173423109  TIP3      173             0.0000000000
     11678       269  TIP3      H1             -8.7211844711      -17.3308867358       26.2633259844  TIP3      173             0.0000000000
     11679       269  TIP3      H2             -7.5677990854      -16.5700701657       26.8591143939  TIP3      173             0.0000000000
     11680       270  TIP3      OH2            -8.3925135475      -14.4382289362       30.6711734292  TIP3      174             0.0000000000
     11681       270  TIP3      H1             -7.5703560115      -14.9689766340       30.6376326212  TIP3      174             0.0000000000
     11682       270  TIP3      H2             -8.0527000669      -13.5506620444       30.4889935138  TIP3      174             0.0000000000
     11683       271  TIP3      OH2            -9.3647353595      -11.3225685860       33.1879298249  TIP3      175             0.0000000000
     11684       271  TIP3      H1            -10.1247521923      -10.8557082234       33.5856671925  TIP3      175             0.0000000000
     11685       271  TIP3      H2             -9.7760103663      -11.7312735620       32.3840794782  TIP3      175             0.0000000000
     11686       272  TIP3      OH2            -9.8437418949      -18.5497099966       26.4745513191  TIP3      176             0.0000000000
     11687       272  TIP3      H1            -10.2373222425      -19.4030330021       26.2071227589  TIP3      176             0.0000000000
     11688       272  TIP3      H2            -10.2278723053      -18.3749118257       27.3560300695  TIP3      176             0.0000000000
     11689       273  TIP3      OH2           -24.1433205905      -15.2143919254       30.1921988520  TIP3      177             0.0000000000
     11690       273  TIP3      H1            -24.2390132646      -15.6607151033       29.3239153566  TIP3      177             0.0000000000
     11691       273  TIP3      H2            -23.6559625153      -15.9119705157       30.6888386363  TIP3      177             0.0000000000
     11692       274  TIP3      OH2            -9.0424377488      -16.7134679581       35.9445385211  TIP3      178             0.0000000000
     11693       274  TIP3      H1             -8.5484180481      -17.5398679921       36.1287575898  TIP3      178             0.0000000000
     11694       274  TIP3      H2             -8.3198111262      -16.0695962409       35.8477933408  TIP3      178             0.0000000000
     11695       275  TIP3      OH2            -7.8613416297      -19.0818109362       36.5594302837  TIP3      179             0.0000000000
     11696       275  TIP3      H1             -8.7390392244      -19.5116115258       36.4731515404  TIP3      179             0.0000000000
     11697       275  TIP3      H2             -7.2685117910      -19.8375875132       36.3522792204  TIP3      179             0.0000000000
     11698       276  TIP3      OH2           -10.7739398943      -20.6954496182       24.8942349661  TIP3      180             0.0000000000
     11699       276  TIP3      H1            -10.4363696495      -21.5792578118       25.1787969212  TIP3      180             0.0000000000
     11700       276  TIP3      H2            -10.4081440592      -20.6365512795       24.0020890610  TIP3      180             0.0000000000
     11701       277  TIP3      OH2            -9.1784726258      -20.3615541199       30.7994864758  TIP3      181             0.0000000000
     11702       277  TIP3      H1             -8.2397853935      -20.2644470080       30.5082056209  TIP3      181             0.0000000000
     11703       277  TIP3      H2             -9.0715573746      -19.9137784993       31.6692449510  TIP3      181             0.0000000000
     11704       278  TIP3      OH2            -9.3773893349      -19.2547004070       33.3161389734  TIP3      182             0.0000000000
     11705       278  TIP3      H1            -10.1889246955      -18.8691179802       33.7067368167  TIP3      182             0.0000000000
     11706       278  TIP3      H2             -8.9159380415      -18.4339724081       33.0259451839  TIP3      182             0.0000000000
     11707       279  TIP3      OH2           -25.2299605475      -20.7417061221       37.6631928496  TIP3      183             0.0000000000
     11708       279  TIP3      H1            -24.3522719259      -21.0706914713       37.3760915523  TIP3      183             0.0000000000
     11709       279  TIP3      H2            -25.7433601323      -21.5778262211       37.5596700049  TIP3      183             0.0000000000
     11710       280  TIP3      OH2            -6.5295138577      -25.5449913524       38.8544376681  TIP3      184             0.0000000000
     11711       280  TIP3      H1             -7.0327344172      -26.3721455472       38.7646226778  TIP3      184             0.0000000000
     11712       280  TIP3      H2             -6.8105978853      -25.0666630331       38.0619128843  TIP3      184             0.0000000000
     11713       281  TIP3      OH2            -9.8379457178      -23.1124264342       25.2682291513  TIP3      185             0.0000000000
     11714       281  TIP3      H1             -9.5215344472      -23.6240650641       26.0418807146  TIP3      185             0.0000000000
     11715       281  TIP3      H2            -10.4312566929      -23.7556320455       24.8274797563  TIP3      185             0.0000000000
     11716       282  TIP3      OH2           -23.7095802131      -22.1252778111       28.5857913104  TIP3      186             0.0000000000
     11717       282  TIP3      H1            -22.9519096383      -22.7478820458       28.5491553596  TIP3      186             0.0000000000
     11718       282  TIP3      H2            -23.7317988618      -21.9366185859       29.5394652535  TIP3      186             0.0000000000
     11719       283  TIP3      OH2           -25.4715409628      -19.3641719409       30.6586354377  TIP3      187             0.0000000000
     11720       283  TIP3      H1            -25.1509045170      -19.2576444631       29.7510942014  TIP3      187             0.0000000000
     11721       283  TIP3      H2            -24.8940643864      -18.7558113147       31.1351576050  TIP3      187             0.0000000000
     11722       284  TIP3      OH2            -8.3894412871      -23.9105964319       37.1250530472  TIP3      188             0.0000000000
     11723       284  TIP3      H1             -9.0779035351      -23.2335829039       37.3024303118  TIP3      188             0.0000000000
     11724       284  TIP3      H2             -8.5175412820      -24.0673055875       36.1641366694  TIP3      188             0.0000000000
     11725       285  TIP3      OH2           -25.1092743205      -23.7879609712       25.4203538045  TIP3      189             0.0000000000
     11726       285  TIP3      H1            -25.9796669699      -23.5782534139       25.0514358289  TIP3      189             0.0000000000
     11727       285  TIP3      H2            -24.5380068617      -23.3054741796       24.7707835764  TIP3      189             0.0000000000
     11728       286  TIP3      OH2           -10.3769760821       -8.1347111161       26.8963172105  TIP3      190             0.0000000000
     11729       286  TIP3      H1            -10.6563957044       -7.6460655318       26.0938670660  TIP3      190             0.0000000000
     11730       286  TIP3      H2            -10.7915933752       -7.5751035279       27.5726484497  TIP3      190             0.0000000000
     11731       287  TIP3      OH2           -25.0529575947      -24.8462800518       33.2687384289  TIP3      191             0.0000000000
     11732       287  TIP3      H1            -25.4053102835      -25.7037726412       33.5559039893  TIP3      191             0.0000000000
     11733       287  TIP3      H2            -25.6458434556      -24.5168850120       32.5614815598  TIP3      191             0.0000000000
     11734       288  TIP3      OH2           -23.5923244381      -11.5267219812       37.1629177980  TIP3      192             0.0000000000
     11735       288  TIP3      H1            -23.4851258262      -12.5009931866       37.1207256010  TIP3      192             0.0000000000
     11736       288  TIP3      H2            -23.3785702731      -11.3010397004       38.0713787132  TIP3      192             0.0000000000
     11737       289  TIP3      OH2           -20.2861379016       -9.8548742025       33.8294875791  TIP3      193             0.0000000000
     11738       289  TIP3      H1            -20.3990560285       -8.9964458912       33.3730662753  TIP3      193             0.0000000000
     11739       289  TIP3      H2            -19.4019996586      -10.1076023889       33.4902232555  TIP3      193             0.0000000000
     11740       290  TIP3      OH2           -16.3915625157       -8.8874053791       35.9972193743  TIP3      194             0.0000000000
     11741       290  TIP3      H1            -16.2437167839       -9.0621704151       36.9451166771  TIP3      194             0.0000000000
     11742       290  TIP3      H2            -15.4925654533       -8.5318499944       35.8037890843  TIP3      194             0.0000000000
     11743       291  TIP3      OH2           -14.0022724313       -7.7870473809       35.9869244489  TIP3      195             0.0000000000
     11744       291  TIP3      H1            -13.1689678324       -7.8775376535       35.5067657843  TIP3      195             0.0000000000
     11745       291  TIP3      H2            -13.7543588530       -7.4050103958       36.8638629087  TIP3      195             0.0000000000
     11746       292  TIP3      OH2            -8.8576823038      -24.9579546351       34.6603409562  TIP3      196             0.0000000000
     11747       292  TIP3      H1             -9.7895710072      -24.8857836288       34.4120391548  TIP3      196             0.0000000000
     11748       292  TIP3      H2             -8.7896462158      -25.9170353383       34.8079167424  TIP3      196             0.0000000000
     11749       293  TIP3      OH2           -22.8281350163       -6.9635435118       33.4372949477  TIP3      197             0.0000000000
     11750       293  TIP3      H1            -23.5472481689       -6.5489531939       32.9220667768  TIP3      197             0.0000000000
     11751       293  TIP3      H2            -23.1082201967       -6.7208028470       34.3375670512  TIP3      197             0.0000000000
     11752       294  TIP3      OH2           -20.4010110094       -7.5167872274       32.4487601560  TIP3      198             0.0000000000
     11753       294  TIP3      H1            -21.2543069510       -7.2599776129       32.8764423294  TIP3      198             0.0000000000
     11754       294  TIP3      H2            -20.5597754957       -7.2241208166       31.5382406237  TIP3      198             0.0000000000
     11755       295  TIP3      OH2           -15.8801808506       -8.0828595839       31.7908818769  TIP3      199             0.0000000000
     11756       295  TIP3      H1            -16.2685953924       -7.7009326702       30.9806392218  TIP3      199             0.0000000000
     11757       295  TIP3      H2            -15.8139945607       -7.2709822194       32.3422308157  TIP3      199             0.0000000000
     11758       296  TIP3      OH2           -13.8153351984       -9.3492770939       33.1993488735  TIP3      200             0.0000000000
     11759       296  TIP3      H1            -14.4784888691       -8.9767865122       32.5727934189  TIP3      200             0.0000000000
     11760       296  TIP3      H2            -13.1770620716       -8.6187677382       33.2170383603  TIP3      200             0.0000000000
     11761       297  TIP3      OH2           -10.8870068099       -7.9524766732       32.8990671367  TIP3      201             0.0000000000
     11762       297  TIP3      H1            -10.7895465860       -7.0269378701       32.6079038227  TIP3      201             0.0000000000
     11763       297  TIP3      H2            -10.8519107172       -8.4146213215       32.0364318049  TIP3      201             0.0000000000
     11764       298  TIP3      OH2           -23.3617266653       -8.4927546943       30.3491667665  TIP3      202             0.0000000000
     11765       298  TIP3      H1            -23.7651503128       -9.0380059129       31.0572800321  TIP3      202             0.0000000000
     11766       298  TIP3      H2            -22.5377734476       -8.9895395790       30.1403056395  TIP3      202             0.0000000000
     11767       299  TIP3      OH2           -21.2806383075       -9.6853707497       29.2769173834  TIP3      203             0.0000000000
     11768       299  TIP3      H1            -21.4519185607      -10.5816386801       29.6251146551  TIP3      203             0.0000000000
     11769       299  TIP3      H2            -20.3274453413       -9.5709606466       29.4997617098  TIP3      203             0.0000000000
     11770       300  TIP3      OH2           -18.7628663458       -9.6453242753       30.1713551443  TIP3      204             0.0000000000
     11771       300  TIP3      H1            -18.5244369936      -10.5824462184       30.0430068132  TIP3      204             0.0000000000
     11772       300  TIP3      H2            -18.6748949926       -9.5684992912       31.1367010220  TIP3      204             0.0000000000
     11773       301  TIP3      OH2           -15.7310998119      -22.9468622704       29.2853394006  TIP3      205             0.0000000000
     11774       301  TIP3      H1            -16.4115614072      -23.5848460210       29.5969199607  TIP3      205             0.0000000000
     11775       301  TIP3      H2            -15.2729226951      -23.5386576120       28.6825228085  TIP3      205             0.0000000000
     11776       302  TIP3      OH2           -10.3445648973      -25.4102606044       28.8660891990  TIP3      206             0.0000000000
     11777       302  TIP3      H1             -9.5981147035      -25.1948012914       28.2632602838  TIP3      206             0.0000000000
     11778       302  TIP3      H2            -11.0973442848      -25.0564374573       28.3588262344  TIP3      206             0.0000000000
     11779       303  TIP3      OH2            -8.4191891880      -24.4374331001       27.1282936535  TIP3      207             0.0000000000
     11780       303  TIP3      H1             -7.8054815435      -24.9000975288       26.5468777857  TIP3      207             0.0000000000
     11781       303  TIP3      H2             -7.8408999119      -23.6852024072       27.4145329278  TIP3      207             0.0000000000
     11782       304  TIP3      OH2           -22.7676833689      -25.2679265296       26.6342169869  TIP3      208             0.0000000000
     11783       304  TIP3      H1            -23.5388616497      -24.8471764048       26.2030096125  TIP3      208             0.0000000000
     11784       304  TIP3      H2            -22.9532369861      -26.2138222271       26.4918047031  TIP3      208             0.0000000000
     11785       305  TIP3      OH2           -18.2048233868      -24.2478609005       27.1640425787  TIP3      209             0.0000000000
     11786       305  TIP3      H1            -17.5159488406      -24.7144668507       26.6661957950  TIP3      209             0.0000000000
     11787       305  TIP3      H2            -17.8578240778      -24.2809507978       28.0743496118  TIP3      209             0.0000000000
     11788       306  TIP3      OH2           -13.1371303780      -24.9945161172       28.1680306248  TIP3      210             0.0000000000
     11789       306  TIP3      H1            -13.5208508260      -24.9227332127       27.2798843928  TIP3      210             0.0000000000
     11790       306  TIP3      H2            -13.1053628300      -25.9653228671       28.2979878642  TIP3      210             0.0000000000
     11791       307  TIP3      OH2           -11.6259949936      -24.6450232054       23.7931628077  TIP3      211             0.0000000000
     11792       307  TIP3      H1            -12.5186236000      -24.2512263766       23.7060286709  TIP3      211             0.0000000000
     11793       307  TIP3      H2            -11.7381448234      -25.2857396232       24.5347945279  TIP3      211             0.0000000000
     11794       308  TIP3      OH2           -24.3125793263       -9.0431404379       24.0484658234  TIP3      212             0.0000000000
     11795       308  TIP3      H1            -24.5787251924       -8.9662196375       23.1152999154  TIP3      212             0.0000000000
     11796       308  TIP3      H2            -24.2090171233       -8.0702182660       24.1983484994  TIP3      212             0.0000000000
     11797       309  TIP3      OH2           -21.9066513394      -23.9666738311       21.4906026553  TIP3      213             0.0000000000
     11798       309  TIP3      H1            -22.1286905926      -23.3268497256       20.7957550479  TIP3      213             0.0000000000
     11799       309  TIP3      H2            -21.0509881115      -23.5880554058       21.7649542919  TIP3      213             0.0000000000
     11800       310  TIP3      OH2           -17.4919961239      -23.3824537622       23.9192822131  TIP3      214             0.0000000000
     11801       310  TIP3      H1            -16.6224825474      -23.7507206637       24.1214461730  TIP3      214             0.0000000000
     11802       310  TIP3      H2            -17.4266144603      -22.5459781472       24.4304331836  TIP3      214             0.0000000000
     11803       311  TIP3      OH2           -15.5132621645       -7.3647852580       21.8505351843  TIP3      215             0.0000000000
     11804       311  TIP3      H1            -15.2855672074       -6.6314314980       21.2449632684  TIP3      215             0.0000000000
     11805       311  TIP3      H2            -15.1736555467       -8.1430161552       21.3734173410  TIP3      215             0.0000000000
     11806       312  TIP3      OH2           -23.5394993115      -24.1446928228       36.5756075965  TIP3      216             0.0000000000
     11807       312  TIP3      H1            -24.0199511781      -24.8198966337       36.0782344534  TIP3      216             0.0000000000
     11808       312  TIP3      H2            -22.6692706100      -24.5895808138       36.6973729234  TIP3      216             0.0000000000
     11809       313  TIP3      OH2           -21.2472582423      -25.4036107237       37.5875561928  TIP3      217             0.0000000000
     11810       313  TIP3      H1            -20.5675098218      -24.7682968167       37.8690611684  TIP3      217             0.0000000000
     11811       313  TIP3      H2            -21.2138469081      -26.0337926827       38.3177747108  TIP3      217             0.0000000000
     11812       314  TIP3      OH2           -12.3873293124       26.0938357345       37.5977476997  TIP3      218             0.0000000000
     11813       314  TIP3      H1            -12.9798044527       25.6719935342       38.2576890643  TIP3      218             0.0000000000
     11814       314  TIP3      H2            -11.8524451398       25.3567845686       37.2486547062  TIP3      218             0.0000000000
     11815       315  TIP3      OH2            -9.3410625356       -9.5675412297       36.6898517620  TIP3      219             0.0000000000
     11816       315  TIP3      H1             -9.8966954164       -9.7898766783       35.9024222744  TIP3      219             0.0000000000
     11817       315  TIP3      H2             -9.6159859024       -8.6376884576       36.8306476833  TIP3      219             0.0000000000
     11818       316  TIP3      OH2             4.8976343081      -15.9068315587       26.7993340221  TIP3      220             0.0000000000
     11819       316  TIP3      H1              4.7628699164      -14.9870422721       26.4654132639  TIP3      220             0.0000000000
     11820       316  TIP3      H2              4.2893397841      -16.3261944642       26.1515183509  TIP3      220             0.0000000000
     11821       317  TIP3      OH2             3.7759349490      -16.8148657397       30.2049742224  TIP3      221             0.0000000000
     11822       317  TIP3      H1              4.0361204997      -17.3190067648       31.0065409086  TIP3      221             0.0000000000
     11823       317  TIP3      H2              3.1890160015      -17.4707917497       29.7763721957  TIP3      221             0.0000000000
     11824       318  TIP3      OH2            -4.0147772415      -17.1822650563       31.5957731312  TIP3      222             0.0000000000
     11825       318  TIP3      H1             -4.1966412916      -18.0435206951       32.0290630260  TIP3      222             0.0000000000
     11826       318  TIP3      H2             -3.0964021428      -17.0285807327       31.8682015375  TIP3      222             0.0000000000
     11827       319  TIP3      OH2             7.2061837324      -13.8628153783       29.0129105348  TIP3      223             0.0000000000
     11828       319  TIP3      H1              8.1419418804      -14.1148881856       29.1076619324  TIP3      223             0.0000000000
     11829       319  TIP3      H2              7.2204287778      -13.0141662428       29.5098950363  TIP3      223             0.0000000000
     11830       320  TIP3      OH2            -3.2170229432      -11.9704925394       30.2725125517  TIP3      224             0.0000000000
     11831       320  TIP3      H1             -3.5183018267      -12.8677863094       30.0491754707  TIP3      224             0.0000000000
     11832       320  TIP3      H2             -2.2571989097      -12.1127102950       30.1714765091  TIP3      224             0.0000000000
     11833       321  TIP3      OH2            -6.1215557541      -18.9811348081       25.6814188176  TIP3      225             0.0000000000
     11834       321  TIP3      H1             -6.1393438957      -18.0439035560       25.4313743593  TIP3      225             0.0000000000
     11835       321  TIP3      H2             -7.0430298405      -19.2351359966       25.5561217916  TIP3      225             0.0000000000
     11836       322  TIP3      OH2            -6.1217369349      -16.6932354968       27.9748521376  TIP3      226             0.0000000000
     11837       322  TIP3      H1             -5.7125629477      -17.5703068486       28.1492357515  TIP3      226             0.0000000000
     11838       322  TIP3      H2             -5.3632083432      -16.1737641174       27.6750573739  TIP3      226             0.0000000000
     11839       323  TIP3      OH2             4.4312835113       -8.6327834003       28.4369302363  TIP3      227             0.0000000000
     11840       323  TIP3      H1              5.1583941359       -9.2340179810       28.1309825956  TIP3      227             0.0000000000
     11841       323  TIP3      H2              4.2836936744       -9.0131155208       29.3202114658  TIP3      227             0.0000000000
     11842       324  TIP3      OH2             2.0315029548      -14.6960587878       31.2113158996  TIP3      228             0.0000000000
     11843       324  TIP3      H1              2.4852436958      -15.5121605650       30.9175126947  TIP3      228             0.0000000000
     11844       324  TIP3      H2              2.7962748589      -14.1454903541       31.4751319902  TIP3      228             0.0000000000
     11845       325  TIP3      OH2            10.5227862687      -23.4711479457       31.0043681540  TIP3      229             0.0000000000
     11846       325  TIP3      H1             10.6549537420      -22.8003505266       31.7003123277  TIP3      229             0.0000000000
     11847       325  TIP3      H2             11.2136095641      -23.1739948980       30.3880761056  TIP3      229             0.0000000000
     11848       326  TIP3      OH2             5.5955220157      -19.7889934596       31.3005950588  TIP3      230             0.0000000000
     11849       326  TIP3      H1              5.7295243918      -20.7448573982       31.4360204193  TIP3      230             0.0000000000
     11850       326  TIP3      H2              5.3640855148      -19.8096163247       30.3450724794  TIP3      230             0.0000000000
     11851       327  TIP3      OH2            -1.3530524745      -21.7914632684       27.9939355268  TIP3      231             0.0000000000
     11852       327  TIP3      H1             -1.3279740210      -20.9702450171       27.4587053261  TIP3      231             0.0000000000
     11853       327  TIP3      H2             -1.9058528830      -22.3606725238       27.4204652844  TIP3      231             0.0000000000
     11854       328  TIP3      OH2             5.7660162356      -21.8188878087       26.9635539038  TIP3      232             0.0000000000
     11855       328  TIP3      H1              6.5655069778      -21.8980113660       27.5293059009  TIP3      232             0.0000000000
     11856       328  TIP3      H2              6.1128972218      -21.2276741632       26.2760773657  TIP3      232             0.0000000000
     11857       329  TIP3      OH2            -4.9751831172      -19.0058808971       28.7741299129  TIP3      233             0.0000000000
     11858       329  TIP3      H1             -4.2357484877      -19.2870802223       29.3383513716  TIP3      233             0.0000000000
     11859       329  TIP3      H2             -4.7732643541      -19.5729438716       27.9912383812  TIP3      233             0.0000000000
     11860       330  TIP3      OH2             0.2603830283      -17.8103354098       28.2740850533  TIP3      234             0.0000000000
     11861       330  TIP3      H1              0.8962924428      -18.4081137926       28.7003135950  TIP3      234             0.0000000000
     11862       330  TIP3      H2             -0.2745616840      -18.4425786145       27.7471479335  TIP3      234             0.0000000000
     11863       331  TIP3      OH2            10.8816725234      -21.8500222673       33.2641658003  TIP3      235             0.0000000000
     11864       331  TIP3      H1             10.4272261246      -21.0222897689       33.0289183122  TIP3      235             0.0000000000
     11865       331  TIP3      H2             11.0473674834      -21.6875241235       34.2101928069  TIP3      235             0.0000000000
     11866       332  TIP3      OH2            -2.3163532336      -22.9029447384       32.0019102825  TIP3      236             0.0000000000
     11867       332  TIP3      H1             -2.7780999136      -22.6793629756       31.1759352633  TIP3      236             0.0000000000
     11868       332  TIP3      H2             -2.9924428582      -22.5469539640       32.6165957541  TIP3      236             0.0000000000
     11869       333  TIP3      OH2             4.2673746342      -13.4327182412       26.0474753540  TIP3      237             0.0000000000
     11870       333  TIP3      H1              3.3240264412      -13.5442181368       25.8386727781  TIP3      237             0.0000000000
     11871       333  TIP3      H2              4.2687001275      -12.4895300066       26.2933648382  TIP3      237             0.0000000000
     11872       334  TIP3      OH2            -0.3613327680      -15.2875098495       32.2362526972  TIP3      238             0.0000000000
     11873       334  TIP3      H1             -0.8885414749      -14.5749111840       32.6633614572  TIP3      238             0.0000000000
     11874       334  TIP3      H2              0.3826871574      -14.7740770885       31.8464285207  TIP3      238             0.0000000000
     11875       335  TIP3      OH2             7.8415512468      -21.8108213245       28.6476158132  TIP3      239             0.0000000000
     11876       335  TIP3      H1              8.0020913059      -22.3916573914       29.4053199428  TIP3      239             0.0000000000
     11877       335  TIP3      H2              8.6968278208      -21.3568395997       28.5554106598  TIP3      239             0.0000000000
     11878       336  TIP3      OH2            -2.9703148002      -20.6303613943       30.0586795490  TIP3      240             0.0000000000
     11879       336  TIP3      H1             -2.3051214784      -20.1600144665       30.6156957310  TIP3      240             0.0000000000
     11880       336  TIP3      H2             -2.3855235122      -21.0069561451       29.3546629869  TIP3      240             0.0000000000
     11881       337  TIP3      OH2            -1.4047427478      -13.0680878132       33.1947714372  TIP3      241             0.0000000000
     11882       337  TIP3      H1             -1.6256772801      -12.3845285477       32.5445734020  TIP3      241             0.0000000000
     11883       337  TIP3      H2             -2.2992697356      -13.2114499295       33.5989281108  TIP3      241             0.0000000000
     11884       338  TIP3      OH2            -5.5943562703      -13.2855115288       23.8016633500  TIP3      242             0.0000000000
     11885       338  TIP3      H1             -6.1718502478      -12.8696796054       23.1526376586  TIP3      242             0.0000000000
     11886       338  TIP3      H2             -5.3123777441      -12.5524923015       24.3801054597  TIP3      242             0.0000000000
     11887       339  TIP3      OH2             7.7903252093      -11.6966804367       30.5810096720  TIP3      243             0.0000000000
     11888       339  TIP3      H1              6.8706576207      -11.4412029459       30.8478990166  TIP3      243             0.0000000000
     11889       339  TIP3      H2              8.1665526953      -10.8036555954       30.4715268791  TIP3      243             0.0000000000
     11890       340  TIP3      OH2             7.7594885272      -23.2706836283       32.6729671349  TIP3      244             0.0000000000
     11891       340  TIP3      H1              6.9202474164      -22.8646300928       32.3828427859  TIP3      244             0.0000000000
     11892       340  TIP3      H2              8.2538936340      -23.2707305212       31.8440228064  TIP3      244             0.0000000000
     11893       341  TIP3      OH2             1.1528715151      -24.9170561349       28.8622748919  TIP3      245             0.0000000000
     11894       341  TIP3      H1              1.6310142434      -25.5603651134       29.4086610812  TIP3      245             0.0000000000
     11895       341  TIP3      H2              0.5633051651      -24.5129105392       29.5537657014  TIP3      245             0.0000000000
     11896       342  TIP3      OH2             6.4980670622      -10.2023648737       27.7522420609  TIP3      246             0.0000000000
     11897       342  TIP3      H1              6.5352034299      -10.8735725115       27.0428614320  TIP3      246             0.0000000000
     11898       342  TIP3      H2              7.1981076543       -9.5908073434       27.4274893360  TIP3      246             0.0000000000
     11899       343  TIP3      OH2             7.2211042604      -11.9072993226       25.8695594066  TIP3      247             0.0000000000
     11900       343  TIP3      H1              7.3183754033      -12.4367946530       25.0529556577  TIP3      247             0.0000000000
     11901       343  TIP3      H2              7.2526496885      -12.5973563773       26.5471508816  TIP3      247             0.0000000000
     11902       344  TIP3      OH2             8.8916113798      -13.6578313721       34.7678307222  TIP3      248             0.0000000000
     11903       344  TIP3      H1              8.9528488739      -14.3398592904       34.0590745241  TIP3      248             0.0000000000
     11904       344  TIP3      H2              8.9001415163      -12.8656016235       34.2032301313  TIP3      248             0.0000000000
     11905       345  TIP3      OH2             3.4014546186      -16.2956130199       24.4098787134  TIP3      249             0.0000000000
     11906       345  TIP3      H1              2.8230196438      -16.0773505782       23.6543395167  TIP3      249             0.0000000000
     11907       345  TIP3      H2              4.2028171222      -16.5409234432       23.8935461072  TIP3      249             0.0000000000
     11908       346  TIP3      OH2             3.7910652150      -18.7114057959       22.3450747930  TIP3      250             0.0000000000
     11909       346  TIP3      H1              4.3839666741      -17.9393347658       22.2961434850  TIP3      250             0.0000000000
     11910       346  TIP3      H2              4.0484848928      -19.2423052350       21.5825202784  TIP3      250             0.0000000000
     11911       347  TIP3      OH2            10.9127212922      -17.1480229646       32.1187636492  TIP3      251             0.0000000000
     11912       347  TIP3      H1             10.5686519251      -16.3391190283       32.5198452600  TIP3      251             0.0000000000
     11913       347  TIP3      H2             11.4610258709      -16.7956690426       31.3995010233  TIP3      251             0.0000000000
     11914       348  TIP3      OH2             7.2786140568      -16.7475159620       25.3322943909  TIP3      252             0.0000000000
     11915       348  TIP3      H1              6.4810761234      -16.8330555603       25.8836867621  TIP3      252             0.0000000000
     11916       348  TIP3      H2              7.8732449172      -17.4538015992       25.6621617094  TIP3      252             0.0000000000
     11917       349  TIP3      OH2             6.9206648142      -18.3012483030       34.2453438966  TIP3      253             0.0000000000
     11918       349  TIP3      H1              6.7963739734      -17.4162607510       34.6367011727  TIP3      253             0.0000000000
     11919       349  TIP3      H2              6.1326086299      -18.3343385988       33.6735465236  TIP3      253             0.0000000000
     11920       350  TIP3      OH2            -1.2800868831      -15.6827125061       27.1606043301  TIP3      254             0.0000000000
     11921       350  TIP3      H1             -1.7740222991      -15.9179495338       26.3410280460  TIP3      254             0.0000000000
     11922       350  TIP3      H2             -0.7745403503      -16.4989270803       27.3586106845  TIP3      254             0.0000000000
     11923       351  TIP3      OH2            -0.2560014109      -12.3755028645       29.7027669305  TIP3      255             0.0000000000
     11924       351  TIP3      H1             -0.2139947069      -12.3442217496       28.7223645997  TIP3      255             0.0000000000
     11925       351  TIP3      H2              0.3371660884      -13.1119672741       29.9112383575  TIP3      255             0.0000000000
     11926       352  TIP3      OH2            -1.0350584420      -17.3538199070       30.6667178786  TIP3      256             0.0000000000
     11927       352  TIP3      H1             -0.6270851466      -17.2284737746       29.7825875311  TIP3      256             0.0000000000
     11928       352  TIP3      H2             -0.6208685763      -16.6372515123       31.2034535924  TIP3      256             0.0000000000
     11929       353  TIP3      OH2             5.3454735908      -11.2594167446       31.5356672051  TIP3      257             0.0000000000
     11930       353  TIP3      H1              5.1990715850      -10.4918931919       32.1346849761  TIP3      257             0.0000000000
     11931       353  TIP3      H2              5.0204036569      -12.0089286455       32.0786664451  TIP3      257             0.0000000000
     11932       354  TIP3      OH2            -0.0364258356      -12.7326141977       35.4449215557  TIP3      258             0.0000000000
     11933       354  TIP3      H1             -0.7372109351      -12.1539610298       35.8356416069  TIP3      258             0.0000000000
     11934       354  TIP3      H2             -0.4224240338      -12.8395959818       34.5408344252  TIP3      258             0.0000000000
     11935       355  TIP3      OH2             5.6657664783      -16.9904359450       23.1274636621  TIP3      259             0.0000000000
     11936       355  TIP3      H1              6.4748093361      -17.0385309115       23.6780811794  TIP3      259             0.0000000000
     11937       355  TIP3      H2              5.9443123876      -16.4790227356       22.3538132425  TIP3      259             0.0000000000
     11938       356  TIP3      OH2            -3.0277282709      -16.5103582477       34.4977936790  TIP3      260             0.0000000000
     11939       356  TIP3      H1             -2.9966380332      -15.9732270602       35.3173652484  TIP3      260             0.0000000000
     11940       356  TIP3      H2             -3.9797518730      -16.7392587671       34.4695333692  TIP3      260             0.0000000000
     11941       357  TIP3      OH2             3.4070320765      -10.6734101321       26.5953576446  TIP3      261             0.0000000000
     11942       357  TIP3      H1              3.7017059657       -9.9681204276       27.1986202567  TIP3      261             0.0000000000
     11943       357  TIP3      H2              2.9187440194      -10.1330645763       25.9606026486  TIP3      261             0.0000000000
     11944       358  TIP3      OH2            -1.8086686372      -10.7996772925       35.9475804092  TIP3      262             0.0000000000
     11945       358  TIP3      H1             -1.7923532964      -10.5364378261       34.9965892425  TIP3      262             0.0000000000
     11946       358  TIP3      H2             -2.7696762649      -10.9640055656       36.0738047205  TIP3      262             0.0000000000
     11947       359  TIP3      OH2             9.8025548825      -25.5421530443       22.9446862832  TIP3      263             0.0000000000
     11948       359  TIP3      H1              8.8319577226      -25.4029596649       22.9118944384  TIP3      263             0.0000000000
     11949       359  TIP3      H2             10.1073446711      -24.6245192502       22.9383073668  TIP3      263             0.0000000000
     11950       360  TIP3      OH2            -2.6676727238      -16.7422376004       25.0317362311  TIP3      264             0.0000000000
     11951       360  TIP3      H1             -2.7839386136      -15.9880228894       24.4085786332  TIP3      264             0.0000000000
     11952       360  TIP3      H2             -2.6338608952      -17.5028632321       24.4388408660  TIP3      264             0.0000000000
     11953       361  TIP3      OH2            -5.9977065018      -14.3264021129       33.4957340922  TIP3      265             0.0000000000
     11954       361  TIP3      H1             -6.3435202907      -14.3818781926       32.5923169984  TIP3      265             0.0000000000
     11955       361  TIP3      H2             -5.6697650427      -15.2435630951       33.6088522296  TIP3      265             0.0000000000
     11956       362  TIP3      OH2            -6.3553894127      -11.5642182597       30.4989418133  TIP3      266             0.0000000000
     11957       362  TIP3      H1             -5.5271327955      -11.8334555237       30.0675864458  TIP3      266             0.0000000000
     11958       362  TIP3      H2             -6.3163762939      -10.6013656101       30.4456185086  TIP3      266             0.0000000000
     11959       363  TIP3      OH2            11.8075732667      -11.2107760284       36.1609438577  TIP3      267             0.0000000000
     11960       363  TIP3      H1             11.5193382236      -12.1451084009       36.2026043814  TIP3      267             0.0000000000
     11961       363  TIP3      H2             11.0270579262      -10.7966275750       36.6036198998  TIP3      267             0.0000000000
     11962       364  TIP3      OH2             2.7479870799      -11.4585075422       34.8600877434  TIP3      268             0.0000000000
     11963       364  TIP3      H1              3.0037567739      -10.7602566183       35.4874734120  TIP3      268             0.0000000000
     11964       364  TIP3      H2              1.9096378528      -11.7762584636       35.2327570353  TIP3      268             0.0000000000
     11965       365  TIP3      OH2             3.0365491072       -7.7768633453       24.4427211384  TIP3      269             0.0000000000
     11966       365  TIP3      H1              2.1397815173       -7.9822527358       24.1197269734  TIP3      269             0.0000000000
     11967       365  TIP3      H2              2.8931389130       -6.9914953514       24.9968648945  TIP3      269             0.0000000000
     11968       366  TIP3      OH2            -3.4116335301       -8.8626587941       27.0611794033  TIP3      270             0.0000000000
     11969       366  TIP3      H1             -2.9580971078       -8.9235114264       27.9352243904  TIP3      270             0.0000000000
     11970       366  TIP3      H2             -3.9665443699       -9.6603660731       27.0548245403  TIP3      270             0.0000000000
     11971       367  TIP3      OH2             6.0981146417       -8.4903884627       24.4032050000  TIP3      271             0.0000000000
     11972       367  TIP3      H1              5.3072606491       -8.4658834137       24.9467779808  TIP3      271             0.0000000000
     11973       367  TIP3      H2              6.7959547812       -8.7353176957       25.0330587689  TIP3      271             0.0000000000
     11974       368  TIP3      OH2             8.1752821495      -19.5940060899       36.3398026030  TIP3      272             0.0000000000
     11975       368  TIP3      H1              7.8189591406      -19.1151924866       35.5628857514  TIP3      272             0.0000000000
     11976       368  TIP3      H2              8.2644543313      -20.5184546490       36.0281022351  TIP3      272             0.0000000000
     11977       369  TIP3      OH2            -3.8182825161      -13.0898801998       34.3452820062  TIP3      273             0.0000000000
     11978       369  TIP3      H1             -3.7238113104      -13.5176689899       35.2215896686  TIP3      273             0.0000000000
     11979       369  TIP3      H2             -4.7081975019      -13.4071505788       34.0927546679  TIP3      273             0.0000000000
     11980       370  TIP3      OH2            -0.6408312831      -24.3188351168       30.5907350633  TIP3      274             0.0000000000
     11981       370  TIP3      H1             -1.4434228530      -24.5405486268       30.0803553527  TIP3      274             0.0000000000
     11982       370  TIP3      H2             -1.0869734499      -23.8760829353       31.3438659893  TIP3      274             0.0000000000
     11983       371  TIP3      OH2             3.4512000975      -24.7785995856       34.2868072976  TIP3      275             0.0000000000
     11984       371  TIP3      H1              2.9208973945      -24.5927693790       35.0841714407  TIP3      275             0.0000000000
     11985       371  TIP3      H2              2.7124033311      -24.9207814271       33.6605122604  TIP3      275             0.0000000000
     11986       372  TIP3      OH2             6.0644504333      -21.1534374406       34.6487141277  TIP3      276             0.0000000000
     11987       372  TIP3      H1              5.5796028883      -21.3323195567       35.4949061008  TIP3      276             0.0000000000
     11988       372  TIP3      H2              6.1931142461      -20.1904892424       34.6928453617  TIP3      276             0.0000000000
     11989       373  TIP3      OH2            -1.0215634603      -19.7597141856       31.6923536547  TIP3      277             0.0000000000
     11990       373  TIP3      H1             -1.5200092595      -19.5111231124       32.4949514536  TIP3      277             0.0000000000
     11991       373  TIP3      H2             -0.9987469017      -18.8699331683       31.2667586060  TIP3      277             0.0000000000
     11992       374  TIP3      OH2            -1.6698131655      -19.2544980855       26.9822409894  TIP3      278             0.0000000000
     11993       374  TIP3      H1             -2.5887039242      -19.4297475377       26.7198425935  TIP3      278             0.0000000000
     11994       374  TIP3      H2             -1.2583905463      -19.1255493359       26.0883527195  TIP3      278             0.0000000000
     11995       375  TIP3      OH2             4.1397045412      -18.6831083707       25.6385088299  TIP3      279             0.0000000000
     11996       375  TIP3      H1              3.4404362438      -18.0969105937       25.2978406727  TIP3      279             0.0000000000
     11997       375  TIP3      H2              4.6357117266      -18.8361183731       24.8180938177  TIP3      279             0.0000000000
     11998       376  TIP3      OH2             2.9454109558      -18.4867176467       37.1825659951  TIP3      280             0.0000000000
     11999       376  TIP3      H1              2.6738896113      -19.4282197107       37.3071205092  TIP3      280             0.0000000000
     12000       376  TIP3      H2              3.8143486719      -18.5020059158       37.6558538553  TIP3      280             0.0000000000
     12001       377  TIP3      OH2             5.1914321849      -19.4707560719       28.5726545028  TIP3      281             0.0000000000
     12002       377  TIP3      H1              4.9900430010      -18.8047454186       27.8866876615  TIP3      281             0.0000000000
     12003       377  TIP3      H2              5.1340399404      -20.2762697450       28.0273317669  TIP3      281             0.0000000000
     12004       378  TIP3      OH2            -4.1111647709      -19.5710989210       32.8375616552  TIP3      282             0.0000000000
     12005       378  TIP3      H1             -3.6158677391      -19.3502614075       33.6490143693  TIP3      282             0.0000000000
     12006       378  TIP3      H2             -4.1160567280      -20.5520199645       32.8830834352  TIP3      282             0.0000000000
     12007       379  TIP3      OH2            -1.3077077659      -22.4892379783       19.8145230281  TIP3      283             0.0000000000
     12008       379  TIP3      H1             -1.3551669495      -22.4254566565       20.7887155784  TIP3      283             0.0000000000
     12009       379  TIP3      H2             -2.0481076095      -21.9212607091       19.5509411048  TIP3      283             0.0000000000
     12010       380  TIP3      OH2            -6.7519040853      -22.3647307009       27.6007540836  TIP3      284             0.0000000000
     12011       380  TIP3      H1             -6.0487791726      -22.1659767815       28.2369871998  TIP3      284             0.0000000000
     12012       380  TIP3      H2             -6.3529047251      -22.0689973020       26.7727254302  TIP3      284             0.0000000000
     12013       381  TIP3      OH2            -6.2493372527      -21.2626372021       22.8232658826  TIP3      285             0.0000000000
     12014       381  TIP3      H1             -5.7146735200      -21.5188305511       22.0542047490  TIP3      285             0.0000000000
     12015       381  TIP3      H2             -6.7723392792      -20.5174708603       22.4787372218  TIP3      285             0.0000000000
     12016       382  TIP3      OH2             4.5339298458      -17.8752595266       32.7419154042  TIP3      286             0.0000000000
     12017       382  TIP3      H1              4.9638996100      -18.6402126593       32.2831533200  TIP3      286             0.0000000000
     12018       382  TIP3      H2              3.8687373822      -18.3719345676       33.2808451456  TIP3      286             0.0000000000
     12019       383  TIP3      OH2             1.6109050580      -21.7863664079       27.6100561755  TIP3      287             0.0000000000
     12020       383  TIP3      H1              0.7016649033      -21.9897150161       27.9073356091  TIP3      287             0.0000000000
     12021       383  TIP3      H2              2.1333528972      -22.0149622706       28.4023793226  TIP3      287             0.0000000000
     12022       384  TIP3      OH2            -4.2219715198      -20.6362119828       26.7791265163  TIP3      288             0.0000000000
     12023       384  TIP3      H1             -4.7251519510      -20.1964339359       26.0594156098  TIP3      288             0.0000000000
     12024       384  TIP3      H2             -3.7633582305      -21.3618485471       26.3089243755  TIP3      288             0.0000000000
     12025       385  TIP3      OH2            -0.7151704034      -19.6112570122       24.5906451216  TIP3      289             0.0000000000
     12026       385  TIP3      H1              0.0810643245      -20.1873845599       24.5799570825  TIP3      289             0.0000000000
     12027       385  TIP3      H2             -0.8966855866      -19.4834829661       23.6332566667  TIP3      289             0.0000000000
     12028       386  TIP3      OH2             5.6143354063      -22.4930161726       30.8435104434  TIP3      290             0.0000000000
     12029       386  TIP3      H1              4.8296535451      -22.7210602242       31.3679022610  TIP3      290             0.0000000000
     12030       386  TIP3      H2              5.4574767590      -22.9917239102       30.0237798205  TIP3      290             0.0000000000
     12031       387  TIP3      OH2            -1.4332520212      -19.0170449691       22.1340911004  TIP3      291             0.0000000000
     12032       387  TIP3      H1             -2.3115385636      -19.1710787788       21.7827168618  TIP3      291             0.0000000000
     12033       387  TIP3      H2             -1.2069420415      -18.2120239868       21.6182676896  TIP3      291             0.0000000000
     12034       388  TIP3      OH2             8.8672979140       -7.2610062390       37.3271823948  TIP3      292             0.0000000000
     12035       388  TIP3      H1              9.2157320386       -6.8155611831       36.5301966919  TIP3      292             0.0000000000
     12036       388  TIP3      H2              9.4698778602       -6.9346984598       38.0106362311  TIP3      292             0.0000000000
     12037       389  TIP3      OH2            -3.6633650135      -14.7746309996       36.5194453098  TIP3      293             0.0000000000
     12038       389  TIP3      H1             -2.8904448370      -14.4582105095       37.0470085011  TIP3      293             0.0000000000
     12039       389  TIP3      H2             -4.3175961106      -14.8818483449       37.2393934847  TIP3      293             0.0000000000
     12040       390  TIP3      OH2             2.4843942532      -19.2588042021       29.5393447289  TIP3      294             0.0000000000
     12041       390  TIP3      H1              3.0668678540      -19.7563151559       28.9437328175  TIP3      294             0.0000000000
     12042       390  TIP3      H2              2.2033985048      -19.9535529436       30.1607896935  TIP3      294             0.0000000000
     12043       391  TIP3      OH2            -2.8032720478      -23.0142324645       26.0241419687  TIP3      295             0.0000000000
     12044       391  TIP3      H1             -3.2613821004      -23.8205729818       26.3090627097  TIP3      295             0.0000000000
     12045       391  TIP3      H2             -2.2020805511      -23.3131715278       25.3195754109  TIP3      295             0.0000000000
     12046       392  TIP3      OH2             1.5897224030      -20.8410948843       31.7666465549  TIP3      296             0.0000000000
     12047       392  TIP3      H1              0.7374969641      -20.3540840630       31.7465888411  TIP3      296             0.0000000000
     12048       392  TIP3      H2              2.1101810774      -20.3270985648       32.3948649351  TIP3      296             0.0000000000
     12049       393  TIP3      OH2             9.0087774484      -14.9079189108       32.4391479664  TIP3      297             0.0000000000
     12050       393  TIP3      H1              9.5426544911      -14.3799090865       31.8051171593  TIP3      297             0.0000000000
     12051       393  TIP3      H2              8.5378995884      -15.4567633318       31.8085776443  TIP3      297             0.0000000000
     12052       394  TIP3      OH2             2.7124177611      -14.5120546719       34.4318932465  TIP3      298             0.0000000000
     12053       394  TIP3      H1              3.1920243748      -14.5103157545       35.2705627507  TIP3      298             0.0000000000
     12054       394  TIP3      H2              2.4439019264      -13.5862927601       34.3621183293  TIP3      298             0.0000000000
     12055       395  TIP3      OH2            -3.3136594979      -14.9256028190       29.1028890361  TIP3      299             0.0000000000
     12056       395  TIP3      H1             -2.6537534374      -15.0742599005       28.3867779501  TIP3      299             0.0000000000
     12057       395  TIP3      H2             -3.0958980944      -15.6311393222       29.7238223999  TIP3      299             0.0000000000
     12058       396  TIP3      OH2            -5.6862774338      -17.0860380722       34.4139138702  TIP3      300             0.0000000000
     12059       396  TIP3      H1             -5.7214108887      -17.2232425144       35.3875540243  TIP3      300             0.0000000000
     12060       396  TIP3      H2             -6.4521895689      -17.6012149503       34.1238393845  TIP3      300             0.0000000000
     12061       397  TIP3      OH2             0.2918586109      -17.2652972415       36.4180500193  TIP3      301             0.0000000000
     12062       397  TIP3      H1              0.1680758917      -17.1157446576       35.4652412888  TIP3      301             0.0000000000
     12063       397  TIP3      H2              1.1598140357      -17.7065173419       36.4500292151  TIP3      301             0.0000000000
     12064       398  TIP3      OH2             5.7874215113      -11.9401277656       34.9914505827  TIP3      302             0.0000000000
     12065       398  TIP3      H1              4.9263212915      -11.7078001769       34.6007041425  TIP3      302             0.0000000000
     12066       398  TIP3      H2              5.6318026978      -11.6657383400       35.9278894074  TIP3      302             0.0000000000
     12067       399  TIP3      OH2            11.3820977976      -14.0061227387       35.8831008457  TIP3      303             0.0000000000
     12068       399  TIP3      H1             10.4870742444      -13.9226551708       35.4855566134  TIP3      303             0.0000000000
     12069       399  TIP3      H2             11.9155193513      -14.0985730704       35.0674037586  TIP3      303             0.0000000000
     12070       400  TIP3      OH2             9.4248554971      -11.2397179089       23.5473658621  TIP3      304             0.0000000000
     12071       400  TIP3      H1              9.4113359173      -11.8046545212       24.3256291717  TIP3      304             0.0000000000
     12072       400  TIP3      H2             10.3422232922      -11.3685058980       23.2398604078  TIP3      304             0.0000000000
     12073       401  TIP3      OH2             6.7663000418      -16.4953961627       30.5859588291  TIP3      305             0.0000000000
     12074       401  TIP3      H1              6.5479195494      -16.9700358566       31.4034478276  TIP3      305             0.0000000000
     12075       401  TIP3      H2              7.2121931891      -17.1919027161       30.0426573800  TIP3      305             0.0000000000
     12076       402  TIP3      OH2            -0.9264629153      -11.4721412288       27.1052624223  TIP3      306             0.0000000000
     12077       402  TIP3      H1             -0.6807751566      -10.6344515907       26.6699475025  TIP3      306             0.0000000000
     12078       402  TIP3      H2             -1.8386154597      -11.5711977047       26.8033615494  TIP3      306             0.0000000000
     12079       403  TIP3      OH2             0.8961346308      -13.7897604868       26.7921891435  TIP3      307             0.0000000000
     12080       403  TIP3      H1              0.2549945467      -13.0834879916       26.6102867274  TIP3      307             0.0000000000
     12081       403  TIP3      H2              0.3426153217      -14.5917443007       26.8573788609  TIP3      307             0.0000000000
     12082       404  TIP3      OH2             1.1804584384       -9.5994622240       33.3193332841  TIP3      308             0.0000000000
     12083       404  TIP3      H1              1.7996255636       -8.9634559159       32.9310852141  TIP3      308             0.0000000000
     12084       404  TIP3      H2              1.7837692589      -10.0940900105       33.9072872857  TIP3      308             0.0000000000
     12085       405  TIP3      OH2            -1.0987799417       -9.0904684345       25.6276557449  TIP3      309             0.0000000000
     12086       405  TIP3      H1             -2.0006858104       -8.8879164621       25.9535193867  TIP3      309             0.0000000000
     12087       405  TIP3      H2             -0.5767632887       -8.3852866096       26.0665765236  TIP3      309             0.0000000000
     12088       406  TIP3      OH2             4.4513804117      -13.9737219961       32.2347118987  TIP3      310             0.0000000000
     12089       406  TIP3      H1              3.9338634735      -14.2399874210       33.0243803519  TIP3      310             0.0000000000
     12090       406  TIP3      H2              5.0208963903      -14.7519798657       32.1222564125  TIP3      310             0.0000000000
     12091       407  TIP3      OH2             6.4951776155      -13.3582235758       22.1437485614  TIP3      311             0.0000000000
     12092       407  TIP3      H1              6.8824831248      -13.5939599366       23.0124731150  TIP3      311             0.0000000000
     12093       407  TIP3      H2              5.6254165664      -13.7827697886       22.1418093572  TIP3      311             0.0000000000
     12094       408  TIP3      OH2             7.3726839482       -9.6062442914       35.1718995340  TIP3      312             0.0000000000
     12095       408  TIP3      H1              6.7072588654      -10.2487918835       34.8374869839  TIP3      312             0.0000000000
     12096       408  TIP3      H2              7.6120525980       -9.0796760288       34.3711363666  TIP3      312             0.0000000000
     12097       409  TIP3      OH2            11.3775753063       -7.9559240119       22.4179776611  TIP3      313             0.0000000000
     12098       409  TIP3      H1             11.8734918878       -8.2297768485       21.6254812362  TIP3      313             0.0000000000
     12099       409  TIP3      H2             11.0640525902       -7.0717055994       22.1591424333  TIP3      313             0.0000000000
     12100       410  TIP3      OH2            -4.2105232619      -22.2713656988       33.7451419103  TIP3      314             0.0000000000
     12101       410  TIP3      H1             -4.9151675615      -22.0489406444       34.3736282963  TIP3      314             0.0000000000
     12102       410  TIP3      H2             -4.2383631460      -23.2461175630       33.8250242047  TIP3      314             0.0000000000
     12103       411  TIP3      OH2             7.7422623217      -14.2568178668       24.4599793098  TIP3      315             0.0000000000
     12104       411  TIP3      H1              7.5283678254      -15.1893553528       24.7139441187  TIP3      315             0.0000000000
     12105       411  TIP3      H2              8.6723085240      -14.3632298757       24.1431655824  TIP3      315             0.0000000000
     12106       412  TIP3      OH2            -4.8957195223      -10.3426917135       32.8019752502  TIP3      316             0.0000000000
     12107       412  TIP3      H1             -5.6395181277      -10.9589816607       32.6374299545  TIP3      316             0.0000000000
     12108       412  TIP3      H2             -4.1394396338      -10.9636669203       32.8817126127  TIP3      316             0.0000000000
     12109       413  TIP3      OH2            -2.8287566942      -14.6504908819       23.2979244964  TIP3      317             0.0000000000
     12110       413  TIP3      H1             -3.7690219174      -14.3923591317       23.3585943475  TIP3      317             0.0000000000
     12111       413  TIP3      H2             -2.4010886020      -13.8345068584       23.0251617411  TIP3      317             0.0000000000
     12112       414  TIP3      OH2             3.9229403471      -22.2447487748       33.4753681418  TIP3      318             0.0000000000
     12113       414  TIP3      H1              4.7619897582      -21.9874946660       33.9052734181  TIP3      318             0.0000000000
     12114       414  TIP3      H2              3.8517150544      -23.1711907383       33.7671217822  TIP3      318             0.0000000000
     12115       415  TIP3      OH2             4.8298692541      -23.0049923227       24.6406915816  TIP3      319             0.0000000000
     12116       415  TIP3      H1              5.3140203690      -22.5252672601       23.9526471320  TIP3      319             0.0000000000
     12117       415  TIP3      H2              5.3618440486      -22.8260449776       25.4324090917  TIP3      319             0.0000000000
     12118       416  TIP3      OH2             1.4158852810      -21.1526904932       24.9901286603  TIP3      320             0.0000000000
     12119       416  TIP3      H1              2.3649111876      -20.9858438656       24.9663803593  TIP3      320             0.0000000000
     12120       416  TIP3      H2              1.3238370253      -21.3914954128       25.9399580926  TIP3      320             0.0000000000
     12121       417  TIP3      OH2             3.1976764835      -19.6863707367       34.2337426561  TIP3      321             0.0000000000
     12122       417  TIP3      H1              2.8868840888      -19.6384292220       35.1509248962  TIP3      321             0.0000000000
     12123       417  TIP3      H2              3.3144738666      -20.6520126601       34.0902760180  TIP3      321             0.0000000000
     12124       418  TIP3      OH2             2.9709372130      -24.2985242797       26.1804226272  TIP3      322             0.0000000000
     12125       418  TIP3      H1              2.7461330801      -23.5477817617       26.7478068686  TIP3      322             0.0000000000
     12126       418  TIP3      H2              3.5502762724      -23.8730920250       25.5088997225  TIP3      322             0.0000000000
     12127       419  TIP3      OH2             0.3752501945       -9.5245263799       23.3827029899  TIP3      323             0.0000000000
     12128       419  TIP3      H1             -0.1134543470       -9.0210900549       22.7068705225  TIP3      323             0.0000000000
     12129       419  TIP3      H2             -0.2581434590       -9.4334171146       24.1289148289  TIP3      323             0.0000000000
     12130       420  TIP3      OH2            -0.8552950709      -23.3986983968       22.7124948449  TIP3      324             0.0000000000
     12131       420  TIP3      H1             -0.2055129438      -22.8355140594       23.1634958422  TIP3      324             0.0000000000
     12132       420  TIP3      H2             -0.2063443641      -24.0290683729       22.3078463205  TIP3      324             0.0000000000
     12133       421  TIP3      OH2             8.7442061497      -22.0977383761       35.2181162941  TIP3      325             0.0000000000
     12134       421  TIP3      H1              7.7831203631      -22.0447121936       35.1033683799  TIP3      325             0.0000000000
     12135       421  TIP3      H2              8.9632269449      -22.5173727101       34.3652425934  TIP3      325             0.0000000000
     12136       422  TIP3      OH2             7.8324115615      -18.4939306118       29.0479224530  TIP3      326             0.0000000000
     12137       422  TIP3      H1              7.1676185590      -19.1936013395       29.1681723066  TIP3      326             0.0000000000
     12138       422  TIP3      H2              8.5782874527      -18.8564547396       29.5769937631  TIP3      326             0.0000000000
     12139       423  TIP3      OH2            -5.6887346713      -19.0771737610       20.4772113943  TIP3      327             0.0000000000
     12140       423  TIP3      H1             -6.6238748938      -18.8830556958       20.2955821928  TIP3      327             0.0000000000
     12141       423  TIP3      H2             -5.5643572582      -19.8916646464       19.9846910620  TIP3      327             0.0000000000
     12142       424  TIP3      OH2             8.6486479315       -9.0814889181       30.8952612674  TIP3      328             0.0000000000
     12143       424  TIP3      H1              8.5694636041       -8.3748849702       30.2154202810  TIP3      328             0.0000000000
     12144       424  TIP3      H2              9.6231973663       -9.1218274965       30.9699091608  TIP3      328             0.0000000000
     12145       425  TIP3      OH2            -3.2953543054      -24.7327451094       29.3861914310  TIP3      329             0.0000000000
     12146       425  TIP3      H1             -3.8789374215      -24.9640282347       28.6413212422  TIP3      329             0.0000000000
     12147       425  TIP3      H2             -3.2529480135      -25.6089913488       29.8342283861  TIP3      329             0.0000000000
     12148       426  TIP3      OH2            -4.8658677893      -11.0696677584       25.7579367455  TIP3      330             0.0000000000
     12149       426  TIP3      H1             -5.7349568949      -10.9105337199       26.1474280879  TIP3      330             0.0000000000
     12150       426  TIP3      H2             -4.8816817745      -10.4721990655       24.9787794353  TIP3      330             0.0000000000
     12151       427  TIP3      OH2            -5.7957679853       -8.3703343671       37.0078747175  TIP3      331             0.0000000000
     12152       427  TIP3      H1             -4.9521198791       -8.4885196613       37.5218855623  TIP3      331             0.0000000000
     12153       427  TIP3      H2             -6.2695061282       -9.1792470967       37.2808744563  TIP3      331             0.0000000000
     12154       428  TIP3      OH2            -1.0797622351       -9.7924542104       38.6375569712  TIP3      332             0.0000000000
     12155       428  TIP3      H1             -0.1866720809      -10.1634438254       38.7849159522  TIP3      332             0.0000000000
     12156       428  TIP3      H2             -1.2414333881      -10.1210613475       37.7325752696  TIP3      332             0.0000000000
     12157       429  TIP3      OH2             5.3011232685      -11.0118668963       37.4491886300  TIP3      333             0.0000000000
     12158       429  TIP3      H1              5.0558518914      -11.6296391765       38.1678163928  TIP3      333             0.0000000000
     12159       429  TIP3      H2              6.0999572953      -10.5980032801       37.8639393260  TIP3      333             0.0000000000
     12160       430  TIP3      OH2            -5.2008835774      -14.7341416493       38.7829039186  TIP3      334             0.0000000000
     12161       430  TIP3      H1             -5.1269873467      -15.6765037982       38.9754592661  TIP3      334             0.0000000000
     12162       430  TIP3      H2             -6.0562638940      -14.7390683869       38.3057035508  TIP3      334             0.0000000000
     12163       431  TIP3      OH2             1.0756365559      -14.5067651294       37.1337316028  TIP3      335             0.0000000000
     12164       431  TIP3      H1              0.8217252466      -13.9885239563       36.3342500195  TIP3      335             0.0000000000
     12165       431  TIP3      H2              1.1791110821      -15.4250376387       36.7974503079  TIP3      335             0.0000000000
     12166       432  TIP3      OH2             6.4123652067      -14.6646279433       35.1248427935  TIP3      336             0.0000000000
     12167       432  TIP3      H1              7.3603693238      -14.3987631904       35.0891923620  TIP3      336             0.0000000000
     12168       432  TIP3      H2              6.0406220133      -13.7614479913       35.0647065637  TIP3      336             0.0000000000
     12169       433  TIP3      OH2            -5.1468070593      -17.4203704441       37.1434536900  TIP3      337             0.0000000000
     12170       433  TIP3      H1             -4.2759277741      -17.8160927903       37.2657419567  TIP3      337             0.0000000000
     12171       433  TIP3      H2             -5.6121424319      -17.8061425456       37.9114859397  TIP3      337             0.0000000000
     12172       434  TIP3      OH2            -1.5565141868      -18.6365284965       33.9728334536  TIP3      338             0.0000000000
     12173       434  TIP3      H1             -1.9634547445      -17.8092351524       34.3363508981  TIP3      338             0.0000000000
     12174       434  TIP3      H2             -0.6305904673      -18.3224336844       33.9124160928  TIP3      338             0.0000000000
     12175       435  TIP3      OH2             4.2940018758      -15.6800500930       38.3789925209  TIP3      339             0.0000000000
     12176       435  TIP3      H1              4.8328842334      -16.3522890063       37.9022426994  TIP3      339             0.0000000000
     12177       435  TIP3      H2              3.5065586822      -16.1965711560       38.6156653499  TIP3      339             0.0000000000
     12178       436  TIP3      OH2            -0.5302744506      -20.6785381080       35.4964897791  TIP3      340             0.0000000000
     12179       436  TIP3      H1             -0.3933101036      -21.4331126062       34.8953685401  TIP3      340             0.0000000000
     12180       436  TIP3      H2             -1.1058762265      -20.0839381940       34.9781468441  TIP3      340             0.0000000000
     12181       437  TIP3      OH2             0.1478077456      -22.8438089315       33.2975049722  TIP3      341             0.0000000000
     12182       437  TIP3      H1              0.7128364310      -22.2912479368       32.7055910602  TIP3      341             0.0000000000
     12183       437  TIP3      H2             -0.7363095392      -22.7276639969       32.8893965884  TIP3      341             0.0000000000
     12184       438  TIP3      OH2             1.0492790957      -16.9816204729       33.7311737076  TIP3      342             0.0000000000
     12185       438  TIP3      H1              1.9725283216      -16.6814626704       33.7252770778  TIP3      342             0.0000000000
     12186       438  TIP3      H2              0.5932315614      -16.2787866382       33.2058573203  TIP3      342             0.0000000000
     12187       439  TIP3      OH2             5.2489454896      -19.1392338948       38.5912916011  TIP3      343             0.0000000000
     12188       439  TIP3      H1              5.4548429784      -20.0670317732       38.7690116046  TIP3      343             0.0000000000
     12189       439  TIP3      H2              6.1012491091      -18.8240430518       38.2648931741  TIP3      343             0.0000000000
     12190       440  TIP3      OH2             6.2692300155      -16.9139734139       36.9451884106  TIP3      344             0.0000000000
     12191       440  TIP3      H1              6.4200349535      -16.1412398740       36.3603891569  TIP3      344             0.0000000000
     12192       440  TIP3      H2              7.1723227532      -17.2438128173       37.0379771442  TIP3      344             0.0000000000
     12193       441  TIP3      OH2            -2.0029707883      -20.0705655740       37.9955770241  TIP3      345             0.0000000000
     12194       441  TIP3      H1             -2.8897379622      -20.4627187693       38.0379089825  TIP3      345             0.0000000000
     12195       441  TIP3      H2             -1.7329973084      -20.2542130097       37.0743759508  TIP3      345             0.0000000000
     12196       442  TIP3      OH2             0.8301511942      -25.3875450235       33.6952707390  TIP3      346             0.0000000000
     12197       442  TIP3      H1              0.5543821481      -24.4383999996       33.6411426667  TIP3      346             0.0000000000
     12198       442  TIP3      H2              0.0627363678      -25.7767806269       33.2333420423  TIP3      346             0.0000000000
     12199       443  TIP3      OH2             1.8177023451      -20.9670664059       37.5652938395  TIP3      347             0.0000000000
     12200       443  TIP3      H1              1.6395276669      -21.7215306362       38.1700879634  TIP3      347             0.0000000000
     12201       443  TIP3      H2              1.1697323814      -21.1266876662       36.8595186774  TIP3      347             0.0000000000
     12202       444  TIP3      OH2             4.6094410827      -21.7733398262       36.8777023201  TIP3      348             0.0000000000
     12203       444  TIP3      H1              3.7141979002      -21.9520487457       37.2058929589  TIP3      348             0.0000000000
     12204       444  TIP3      H2              5.1568022983      -22.2965876986       37.5023024163  TIP3      348             0.0000000000
     12205       445  TIP3      OH2             6.2526916089      -23.2488499358       38.7175087492  TIP3      349             0.0000000000
     12206       445  TIP3      H1              6.1237579750      -24.1934897110       38.4700567345  TIP3      349             0.0000000000
     12207       445  TIP3      H2              6.3569871308      -23.2522481589       39.6794660765  TIP3      349             0.0000000000
     12208       446  TIP3      OH2            -4.0818867631      -22.0670517357       37.6643577863  TIP3      350             0.0000000000
     12209       446  TIP3      H1             -4.1441855927      -22.7924270202       37.0063049708  TIP3      350             0.0000000000
     12210       446  TIP3      H2             -4.0998015562      -22.5485787332       38.5091810258  TIP3      350             0.0000000000
     12211       447  TIP3      OH2             1.4092849064      -24.9918408025       36.2937461464  TIP3      351             0.0000000000
     12212       447  TIP3      H1              0.8270252617      -25.3576971188       36.9836879434  TIP3      351             0.0000000000
     12213       447  TIP3      H2              1.0202300610      -25.3457287018       35.4718219746  TIP3      351             0.0000000000
     12214       448  TIP3      OH2             1.4865069823      -23.4643506351       38.8208886833  TIP3      352             0.0000000000
     12215       448  TIP3      H1              1.7252392514      -24.3220893986       38.4401573679  TIP3      352             0.0000000000
     12216       448  TIP3      H2              0.5143893272      -23.5030947450       38.6915836587  TIP3      352             0.0000000000
     12217       449  TIP3      OH2            -7.2130468319       -7.7471081612       26.1895284305  TIP3      353             0.0000000000
     12218       449  TIP3      H1             -8.0685117814       -8.1779682887       26.3598096939  TIP3      353             0.0000000000
     12219       449  TIP3      H2             -6.6556187010       -8.1448914475       26.8866689386  TIP3      353             0.0000000000
     12220       450  TIP3      OH2            -6.4079816949       -9.2660034368       28.3764734689  TIP3      354             0.0000000000
     12221       450  TIP3      H1             -7.2435414171       -9.6277992060       28.6959140551  TIP3      354             0.0000000000
     12222       450  TIP3      H2             -6.0999798090       -8.7244627923       29.1257208948  TIP3      354             0.0000000000
     12223       451  TIP3      OH2            11.4018135871       -8.6522647327       30.8448440818  TIP3      355             0.0000000000
     12224       451  TIP3      H1             11.5097253741       -8.4826647706       31.7950812070  TIP3      355             0.0000000000
     12225       451  TIP3      H2             12.2373262979       -8.2983968588       30.4991593858  TIP3      355             0.0000000000
     12226       452  TIP3      OH2            10.9832322030       -9.2525583681       33.8956324415  TIP3      356             0.0000000000
     12227       452  TIP3      H1             10.5203438944      -10.0349788805       33.5267672302  TIP3      356             0.0000000000
     12228       452  TIP3      H2             11.3624980681       -9.6165908157       34.7144457507  TIP3      356             0.0000000000
     12229       453  TIP3      OH2             9.7814682835      -13.3911480739       39.1932526165  TIP3      357             0.0000000000
     12230       453  TIP3      H1              8.8514963132      -13.5593129431       38.9450730282  TIP3      357             0.0000000000
     12231       453  TIP3      H2              9.7686722605      -12.5434818200       39.6649757988  TIP3      357             0.0000000000
     12232       454  TIP3      OH2            10.3544720055      -14.8661831245       24.0041505760  TIP3      358             0.0000000000
     12233       454  TIP3      H1             11.2063651967      -14.4206933579       24.1244891548  TIP3      358             0.0000000000
     12234       454  TIP3      H2             10.3118552007      -15.4796063782       24.7828657789  TIP3      358             0.0000000000
     12235       455  TIP3      OH2            10.8395741204      -16.4659475329       26.1187803792  TIP3      359             0.0000000000
     12236       455  TIP3      H1             10.2927701691      -17.2545914283       26.3265087932  TIP3      359             0.0000000000
     12237       455  TIP3      H2             11.5514419586      -16.5724157080       26.7872485294  TIP3      359             0.0000000000
     12238       456  TIP3      OH2            10.4488021979      -14.1856344984       30.3587426200  TIP3      360             0.0000000000
     12239       456  TIP3      H1             11.1925932404      -14.8257658550       30.3633896440  TIP3      360             0.0000000000
     12240       456  TIP3      H2             10.9475914584      -13.3495936869       30.3422296046  TIP3      360             0.0000000000
     12241       457  TIP3      OH2             9.3513820530      -11.3734894724       33.0359361926  TIP3      361             0.0000000000
     12242       457  TIP3      H1              8.6382113317      -10.7331961446       33.1910420526  TIP3      361             0.0000000000
     12243       457  TIP3      H2              9.0426746377      -11.7732075488       32.2024113659  TIP3      361             0.0000000000
     12244       458  TIP3      OH2            11.5370611679      -16.6124003168       22.1579280878  TIP3      362             0.0000000000
     12245       458  TIP3      H1             10.9038633109      -17.2280025186       22.5612585239  TIP3      362             0.0000000000
     12246       458  TIP3      H2             11.3365652172      -15.7949328059       22.6492586419  TIP3      362             0.0000000000
     12247       459  TIP3      OH2             9.0300721999      -18.5521279676       26.5997229386  TIP3      363             0.0000000000
     12248       459  TIP3      H1              8.8041434459      -19.4551308699       26.3513709306  TIP3      363             0.0000000000
     12249       459  TIP3      H2              8.6718063772      -18.4615141895       27.5135777388  TIP3      363             0.0000000000
     12250       460  TIP3      OH2            -6.1041385556      -15.8518294275       30.8068543404  TIP3      364             0.0000000000
     12251       460  TIP3      H1             -6.1883487691      -16.2408435630       29.9137894433  TIP3      364             0.0000000000
     12252       460  TIP3      H2             -5.2357348734      -16.2366945615       31.0844466806  TIP3      364             0.0000000000
     12253       461  TIP3      OH2             9.7914476217      -16.6957614271       35.7665592348  TIP3      365             0.0000000000
     12254       461  TIP3      H1             10.1936335286      -17.5190116956       36.1375563334  TIP3      365             0.0000000000
     12255       461  TIP3      H2             10.5484858417      -16.0822910408       35.7653542586  TIP3      365             0.0000000000
     12256       462  TIP3      OH2            10.8996488445      -19.0186825572       36.5732975740  TIP3      366             0.0000000000
     12257       462  TIP3      H1             10.2296504125      -19.7038358767       36.3622976175  TIP3      366             0.0000000000
     12258       462  TIP3      H2             11.7389090260      -19.5192168565       36.4802428108  TIP3      366             0.0000000000
     12259       463  TIP3      OH2             9.6665578501      -19.9211834615       30.5520038950  TIP3      367             0.0000000000
     12260       463  TIP3      H1             10.6382775254      -19.9035498067       30.4268752411  TIP3      367             0.0000000000
     12261       463  TIP3      H2              9.6426807450      -19.6797297650       31.5043508755  TIP3      367             0.0000000000
     12262       464  TIP3      OH2             9.2513197518      -19.3109018975       33.3016617032  TIP3      368             0.0000000000
     12263       464  TIP3      H1              8.3057015880      -19.1375988355       33.5059805752  TIP3      368             0.0000000000
     12264       464  TIP3      H2              9.6304208817      -18.4184885574       33.4355455524  TIP3      368             0.0000000000
     12265       465  TIP3      OH2            -6.4235826901      -21.2900221872       36.2827771753  TIP3      369             0.0000000000
     12266       465  TIP3      H1             -5.5417850393      -21.3211588177       36.7008790870  TIP3      369             0.0000000000
     12267       465  TIP3      H2             -6.8864319943      -21.8925536204       36.8875027929  TIP3      369             0.0000000000
     12268       466  TIP3      OH2            12.2440528551      -25.4785609575       38.7866313543  TIP3      370             0.0000000000
     12269       466  TIP3      H1             11.6441105047      -26.0945267677       38.3468950277  TIP3      370             0.0000000000
     12270       466  TIP3      H2             12.4688031632      -24.8826706637       38.0553723537  TIP3      370             0.0000000000
     12271       467  TIP3      OH2             8.7648924526      -23.2876135549       25.3204673110  TIP3      371             0.0000000000
     12272       467  TIP3      H1              9.2898884749      -23.8193870676       25.9425207004  TIP3      371             0.0000000000
     12273       467  TIP3      H2              8.2404399724      -23.9373044869       24.8158325465  TIP3      371             0.0000000000
     12274       468  TIP3      OH2            -5.1026582272      -22.8239314483       30.1608241466  TIP3      372             0.0000000000
     12275       468  TIP3      H1             -4.4695569821      -23.5308052734       29.9302358903  TIP3      372             0.0000000000
     12276       468  TIP3      H2             -4.5930374699      -22.0193339162       29.9715856273  TIP3      372             0.0000000000
     12277       469  TIP3      OH2            -6.5538687681      -19.7068189295       30.7394164501  TIP3      373             0.0000000000
     12278       469  TIP3      H1             -6.0473573455      -19.5173992555       29.9182594071  TIP3      373             0.0000000000
     12279       469  TIP3      H2             -5.8895649898      -19.4892016297       31.4030234269  TIP3      373             0.0000000000
     12280       470  TIP3      OH2            11.2804104652      -23.0822413946       37.5272641397  TIP3      374             0.0000000000
     12281       470  TIP3      H1             10.3458789294      -22.8337468238       37.6940003451  TIP3      374             0.0000000000
     12282       470  TIP3      H2             11.2125068845      -23.5170886125       36.6576947833  TIP3      374             0.0000000000
     12283       471  TIP3      OH2            11.5551214543      -23.6863031322       21.5126699317  TIP3      375             0.0000000000
     12284       471  TIP3      H1             11.3425091412      -24.4161458283       20.8996667637  TIP3      375             0.0000000000
     12285       471  TIP3      H2             12.3989011183      -23.3047811426       21.2142781366  TIP3      375             0.0000000000
     12286       472  TIP3      OH2            -6.5561957564      -23.1893588574       24.7767925818  TIP3      376             0.0000000000
     12287       472  TIP3      H1             -7.5257690960      -23.1643190028       24.7876114196  TIP3      376             0.0000000000
     12288       472  TIP3      H2             -6.4000518717      -22.5541595594       24.0432129528  TIP3      376             0.0000000000
     12289       473  TIP3      OH2             8.0982111359       -8.4642990986       26.4874275126  TIP3      377             0.0000000000
     12290       473  TIP3      H1              8.7792194154       -8.8177364919       25.8691741569  TIP3      377             0.0000000000
     12291       473  TIP3      H2              8.6440561022       -7.9578899471       27.1068896442  TIP3      377             0.0000000000
     12292       474  TIP3      OH2            -6.1345160879      -24.3918538998       32.9872241676  TIP3      378             0.0000000000
     12293       474  TIP3      H1             -6.9187585796      -24.4288569058       33.5465840960  TIP3      378             0.0000000000
     12294       474  TIP3      H2             -6.5192815966      -24.1793054499       32.1271938960  TIP3      378             0.0000000000
     12295       475  TIP3      OH2            -4.3362240807      -11.3748918942       36.7785326356  TIP3      379             0.0000000000
     12296       475  TIP3      H1             -5.2954684128      -11.2977187807       36.6419273412  TIP3      379             0.0000000000
     12297       475  TIP3      H2             -4.2774291331      -11.9838491411       37.5302152629  TIP3      379             0.0000000000
     12298       476  TIP3      OH2            -1.3979400064      -10.1577785337       33.3883026758  TIP3      380             0.0000000000
     12299       476  TIP3      H1             -1.4924209692       -9.1889232288       33.2139315525  TIP3      380             0.0000000000
     12300       476  TIP3      H2             -0.4213586340      -10.1768521038       33.5006202167  TIP3      380             0.0000000000
     12301       477  TIP3      OH2             2.5378182694       -8.7124363108       35.8582078044  TIP3      381             0.0000000000
     12302       477  TIP3      H1              2.5240278734       -9.2026453412       36.7180607671  TIP3      381             0.0000000000
     12303       477  TIP3      H2              3.4807639558       -8.4371641047       35.9086035670  TIP3      381             0.0000000000
     12304       478  TIP3      OH2             4.9941184060       -7.8002188185       36.1846421346  TIP3      382             0.0000000000
     12305       478  TIP3      H1              5.8310530236       -7.9800148997       35.7394327067  TIP3      382             0.0000000000
     12306       478  TIP3      H2              5.2626319684       -7.6964878872       37.1214067650  TIP3      382             0.0000000000
     12307       479  TIP3      OH2            10.7774052451      -24.8454611152       35.0628598786  TIP3      383             0.0000000000
     12308       479  TIP3      H1              9.9325564427      -24.7936283303       34.5924289957  TIP3      383             0.0000000000
     12309       479  TIP3      H2             10.8022746485      -25.7800604468       35.3444780219  TIP3      383             0.0000000000
     12310       480  TIP3      OH2            -4.2886312306       -6.7321364875       33.3956468499  TIP3      384             0.0000000000
     12311       480  TIP3      H1             -4.7660005252       -6.0536523531       32.8754996426  TIP3      384             0.0000000000
     12312       480  TIP3      H2             -4.1404159176       -6.2253533620       34.2154193582  TIP3      384             0.0000000000
     12313       481  TIP3      OH2            -1.9326824806       -7.7189513021       32.4596184227  TIP3      385             0.0000000000
     12314       481  TIP3      H1             -2.8808452525       -7.5185445400       32.5701691233  TIP3      385             0.0000000000
     12315       481  TIP3      H2             -1.6447376425       -7.0733620935       31.7841377881  TIP3      385             0.0000000000
     12316       482  TIP3      OH2             2.9447481271       -7.7340745635       31.7939206120  TIP3      386             0.0000000000
     12317       482  TIP3      H1              2.2041257511       -7.3634735685       31.2838161382  TIP3      386             0.0000000000
     12318       482  TIP3      H2              3.0445135031       -7.0610518872       32.5002045412  TIP3      386             0.0000000000
     12319       483  TIP3      OH2             5.0229115671       -9.1206794448       33.1744147403  TIP3      387             0.0000000000
     12320       483  TIP3      H1              4.5142551717       -8.5939524325       32.5264587624  TIP3      387             0.0000000000
     12321       483  TIP3      H2              5.7449252287       -8.5122579704       33.3758594828  TIP3      387             0.0000000000
     12322       484  TIP3      OH2             7.8252030682       -7.9006415417       33.1305100586  TIP3      388             0.0000000000
     12323       484  TIP3      H1              7.9389115539       -6.9582296701       32.9515650209  TIP3      388             0.0000000000
     12324       484  TIP3      H2              8.0540547047       -8.2590008429       32.2380911379  TIP3      388             0.0000000000
     12325       485  TIP3      OH2            -4.5165996150       -8.5135403035       30.8935956035  TIP3      389             0.0000000000
     12326       485  TIP3      H1             -4.5681689620       -9.1785586979       31.6128804288  TIP3      389             0.0000000000
     12327       485  TIP3      H2             -3.7079843359       -8.8278407458       30.4178967697  TIP3      389             0.0000000000
     12328       486  TIP3      OH2            -2.3992175503       -9.2655917708       29.4567429640  TIP3      390             0.0000000000
     12329       486  TIP3      H1             -2.6903553942      -10.1911126128       29.5645171155  TIP3      390             0.0000000000
     12330       486  TIP3      H2             -1.4643892017       -9.3468459342       29.7616153897  TIP3      390             0.0000000000
     12331       487  TIP3      OH2             0.0998964055       -9.4642838261       30.4170150628  TIP3      391             0.0000000000
     12332       487  TIP3      H1              0.4441476243      -10.3348526788       30.1546923770  TIP3      391             0.0000000000
     12333       487  TIP3      H2              0.1367527376       -9.5343262225       31.3819931903  TIP3      391             0.0000000000
     12334       488  TIP3      OH2             3.1618674064      -23.1947748189       29.3203588228  TIP3      392             0.0000000000
     12335       488  TIP3      H1              2.3416207709      -23.7067633405       29.1892231121  TIP3      392             0.0000000000
     12336       488  TIP3      H2              3.7931495226      -23.9096138197       29.1063083638  TIP3      392             0.0000000000
     12337       489  TIP3      OH2             8.5383219465      -25.6073491910       28.9952321947  TIP3      393             0.0000000000
     12338       489  TIP3      H1              9.2750086802      -24.9926973526       28.8071792112  TIP3      393             0.0000000000
     12339       489  TIP3      H2              8.1653722430      -25.6789368616       28.0969418438  TIP3      393             0.0000000000
     12340       490  TIP3      OH2            10.3560905562      -24.3823568885       27.3730575760  TIP3      394             0.0000000000
     12341       490  TIP3      H1             10.8139861089      -25.0475747625       26.8378432662  TIP3      394             0.0000000000
     12342       490  TIP3      H2             10.9615607807      -23.6083293229       27.3029184484  TIP3      394             0.0000000000
     12343       491  TIP3      OH2            -4.4957235131      -25.3314134245       26.7702961938  TIP3      395             0.0000000000
     12344       491  TIP3      H1             -4.9988490804      -25.1297376862       25.9586537247  TIP3      395             0.0000000000
     12345       491  TIP3      H2             -3.9488089871      -26.0928301340       26.5059128233  TIP3      395             0.0000000000
     12346       492  TIP3      OH2             0.2317960906      -24.0977320250       26.4000628834  TIP3      396             0.0000000000
     12347       492  TIP3      H1              1.0325273661      -24.1511854595       25.8535619606  TIP3      396             0.0000000000
     12348       492  TIP3      H2              0.6356745462      -24.2432504390       27.2831723533  TIP3      396             0.0000000000
     12349       493  TIP3      OH2             5.2192812189      -25.1422945066       28.6957534325  TIP3      397             0.0000000000
     12350       493  TIP3      H1              5.8676914529      -24.6613799595       28.1728807822  TIP3      397             0.0000000000
     12351       493  TIP3      H2              5.5883506711      -26.0394083052       28.6166618072  TIP3      397             0.0000000000
     12352       494  TIP3      OH2             7.2886867291      -24.8982705960       23.5451619384  TIP3      398             0.0000000000
     12353       494  TIP3      H1              6.9702387960      -24.4833412114       22.7013127163  TIP3      398             0.0000000000
     12354       494  TIP3      H2              6.4955538182      -25.4024861779       23.7630904452  TIP3      398             0.0000000000
     12355       495  TIP3      OH2            -5.2988062532       -9.2813578427       23.6199554628  TIP3      399             0.0000000000
     12356       495  TIP3      H1             -4.6871115263       -9.3704988700       22.8767300787  TIP3      399             0.0000000000
     12357       495  TIP3      H2             -5.2538607397       -8.3249351475       23.7526586416  TIP3      399             0.0000000000
     12358       496  TIP3      OH2            10.0458593129       -8.9223884143       24.7437328489  TIP3      400             0.0000000000
     12359       496  TIP3      H1              9.7249842891       -9.6342877228       24.1399241570  TIP3      400             0.0000000000
     12360       496  TIP3      H2             10.6535916507       -8.4804295478       24.1063750964  TIP3      400             0.0000000000
     12361       497  TIP3      OH2            -4.5433572123      -24.3692857679       36.1305852213  TIP3      401             0.0000000000
     12362       497  TIP3      H1             -5.0796837892      -25.1654996174       36.2341917502  TIP3      401             0.0000000000
     12363       497  TIP3      H2             -3.7149906317      -24.6892020164       36.5520419658  TIP3      401             0.0000000000
     12364       498  TIP3      OH2            -2.6472415252      -25.6792755804       37.7809983936  TIP3      402             0.0000000000
     12365       498  TIP3      H1             -1.9070831263      -25.0804991350       37.9627624774  TIP3      402             0.0000000000
     12366       498  TIP3      H2             -2.3578521813      -26.4854475901       38.2394009416  TIP3      402             0.0000000000
     12367       499  TIP3      OH2            -4.0838565106       -8.4902657266       20.6261009714  TIP3      403             0.0000000000
     12368       499  TIP3      H1             -3.3382127932       -8.1988824391       21.1940544130  TIP3      403             0.0000000000
     12369       499  TIP3      H2             -3.8389356899       -7.9554404773       19.8295976493  TIP3      403             0.0000000000
     12370       500  TIP3      OH2             6.2196418322       25.9885243981       37.9367547754  TIP3      404             0.0000000000
     12371       500  TIP3      H1              5.5385570266       25.6471873985       38.5549727385  TIP3      404             0.0000000000
     12372       500  TIP3      H2              6.7529577647       25.1939587842       37.7685828952  TIP3      404             0.0000000000
     12373       501  TIP3      OH2             9.5776574087       -9.8626243814       36.7739654806  TIP3      405             0.0000000000
     12374       501  TIP3      H1              8.6942293524       -9.9450978301       36.3495708560  TIP3      405             0.0000000000
     12375       501  TIP3      H2              9.5896506947       -8.9016337142       36.9471495417  TIP3      405             0.0000000000
     12376       502  TIP3      OH2            23.2860183387      -15.7496313481       27.0470168351  TIP3      406             0.0000000000
     12377       502  TIP3      H1             23.1355258245      -14.8215812455       27.2818962793  TIP3      406             0.0000000000
     12378       502  TIP3      H2             22.7138466056      -15.9219802015       26.2776673673  TIP3      406             0.0000000000
     12379       503  TIP3      OH2            22.4276801179      -16.8909250379       30.7590259064  TIP3      407             0.0000000000
     12380       503  TIP3      H1             22.6861993766      -17.4345762133       31.5358023154  TIP3      407             0.0000000000
     12381       503  TIP3      H2             22.1467538693      -17.5673374663       30.1063790532  TIP3      407             0.0000000000
     12382       504  TIP3      OH2            14.5028243693      -17.3341681280       31.6702672293  TIP3      408             0.0000000000
     12383       504  TIP3      H1             14.4055601884      -18.1711797705       32.1800119632  TIP3      408             0.0000000000
     12384       504  TIP3      H2             15.2317978530      -16.9054715034       32.1360546175  TIP3      408             0.0000000000
     12385       505  TIP3      OH2            15.9902801824      -12.4042984835       29.9096754241  TIP3      409             0.0000000000
     12386       505  TIP3      H1             15.6837178068      -13.3010767990       29.6536043835  TIP3      409             0.0000000000
     12387       505  TIP3      H2             16.9437903283      -12.5920407677       29.9146410808  TIP3      409             0.0000000000
     12388       506  TIP3      OH2            12.6189121240      -19.2345186897       25.3760822652  TIP3      410             0.0000000000
     12389       506  TIP3      H1             12.6828849289      -18.2717473871       25.3148351952  TIP3      410             0.0000000000
     12390       506  TIP3      H2             11.7141705344      -19.3650384078       25.7042091068  TIP3      410             0.0000000000
     12391       507  TIP3      OH2            12.5749100590      -16.9685865849       28.0758742368  TIP3      411             0.0000000000
     12392       507  TIP3      H1             12.9430722740      -17.8541408469       28.2971579718  TIP3      411             0.0000000000
     12393       507  TIP3      H2             13.3939736497      -16.4545742730       27.9968768364  TIP3      411             0.0000000000
     12394       508  TIP3      OH2            23.3151492193       -8.7402441101       28.9052801215  TIP3      412             0.0000000000
     12395       508  TIP3      H1             23.9003947608       -9.3468772636       28.4219251073  TIP3      412             0.0000000000
     12396       508  TIP3      H2             23.2578063545       -9.1827392226       29.7727407900  TIP3      412             0.0000000000
     12397       509  TIP3      OH2            20.9703132768      -14.1972566316       31.2393193325  TIP3      413             0.0000000000
     12398       509  TIP3      H1             21.1589441411      -14.7211985309       30.4477865298  TIP3      413             0.0000000000
     12399       509  TIP3      H2             21.8248186257      -14.2611451381       31.7036643421  TIP3      413             0.0000000000
     12400       510  TIP3      OH2            23.7952574239      -20.2695046236       30.8628262315  TIP3      414             0.0000000000
     12401       510  TIP3      H1             24.7588904778      -20.1543960272       31.0044059297  TIP3      414             0.0000000000
     12402       510  TIP3      H2             23.7581304953      -20.1345754230       29.8934328261  TIP3      414             0.0000000000
     12403       511  TIP3      OH2            17.6744575945      -22.0498213426       28.4596366132  TIP3      415             0.0000000000
     12404       511  TIP3      H1             17.6700327667      -21.2710929779       27.8555912399  TIP3      415             0.0000000000
     12405       511  TIP3      H2             17.1811999503      -22.6851657320       27.8983571458  TIP3      415             0.0000000000
     12406       512  TIP3      OH2            24.7034054963      -21.2502778297       26.9885280802  TIP3      416             0.0000000000
     12407       512  TIP3      H1             25.2924514221      -21.8724755046       27.4470961323  TIP3      416             0.0000000000
     12408       512  TIP3      H2             25.3208954424      -20.5581918628       26.6635871626  TIP3      416             0.0000000000
     12409       513  TIP3      OH2            13.9207646087      -19.1226299065       28.8232880572  TIP3      417             0.0000000000
     12410       513  TIP3      H1             14.6649712968      -19.2660949236       29.4333886977  TIP3      417             0.0000000000
     12411       513  TIP3      H2             14.2641562218      -19.5809376770       28.0247221018  TIP3      417             0.0000000000
     12412       514  TIP3      OH2            18.7684374339      -17.7414231878       28.2579350714  TIP3      418             0.0000000000
     12413       514  TIP3      H1             19.5319557694      -18.1875458590       28.6799524086  TIP3      418             0.0000000000
     12414       514  TIP3      H2             18.3509693250      -18.5188580902       27.8206967214  TIP3      418             0.0000000000
     12415       515  TIP3      OH2            16.4447551989      -22.9975335246       32.0887618695  TIP3      419             0.0000000000
     12416       515  TIP3      H1             16.0795666163      -22.6444033037       31.2531418750  TIP3      419             0.0000000000
     12417       515  TIP3      H2             15.6861233092      -22.8043115514       32.6888383495  TIP3      419             0.0000000000
     12418       516  TIP3      OH2            23.1269616617      -13.1170185475       25.7543145425  TIP3      420             0.0000000000
     12419       516  TIP3      H1             22.4779250104      -13.3796748675       25.0591500771  TIP3      420             0.0000000000
     12420       516  TIP3      H2             22.7546369932      -12.2735111514       26.0870803985  TIP3      420             0.0000000000
     12421       517  TIP3      OH2            18.4400419395      -15.1407374523       32.1439697800  TIP3      421             0.0000000000
     12422       517  TIP3      H1             17.9058526358      -14.4263208641       32.5662838082  TIP3      421             0.0000000000
     12423       517  TIP3      H2             19.2201778662      -14.6619705314       31.8042930737  TIP3      421             0.0000000000
     12424       518  TIP3      OH2            15.9172186381      -20.7631324600       30.2081851809  TIP3      422             0.0000000000
     12425       518  TIP3      H1             16.5696264185      -20.2513501350       30.7509284552  TIP3      422             0.0000000000
     12426       518  TIP3      H2             16.5140489696      -21.1917868919       29.5537663844  TIP3      422             0.0000000000
     12427       519  TIP3      OH2            17.2750449312      -12.8562578162       33.1733544085  TIP3      423             0.0000000000
     12428       519  TIP3      H1             17.2247940248      -11.9042323935       32.9740736249  TIP3      423             0.0000000000
     12429       519  TIP3      H2             16.3330260519      -13.0158638485       33.4238629872  TIP3      423             0.0000000000
     12430       520  TIP3      OH2            20.0700009229      -24.9406237079       29.0448013607  TIP3      424             0.0000000000
     12431       520  TIP3      H1             20.5169451087      -25.4677158837       29.7254502035  TIP3      424             0.0000000000
     12432       520  TIP3      H2             19.4253485320      -24.4697425874       29.6330808169  TIP3      424             0.0000000000
     12433       521  TIP3      OH2            24.9995521858      -10.1934865607       27.2671026076  TIP3      425             0.0000000000
     12434       521  TIP3      H1             25.2631770955      -11.0797823249       27.5903620298  TIP3      425             0.0000000000
     12435       521  TIP3      H2             25.7299432456       -9.6523048404       27.6599360008  TIP3      425             0.0000000000
     12436       522  TIP3      OH2            22.2092276243      -16.5474919004       24.4250218264  TIP3      426             0.0000000000
     12437       522  TIP3      H1             22.2506190172      -15.5959897111       24.2694210727  TIP3      426             0.0000000000
     12438       522  TIP3      H2             21.8805313260      -16.8229848616       23.5434828377  TIP3      426             0.0000000000
     12439       523  TIP3      OH2            22.1208891537      -17.4587445166       21.8335068600  TIP3      427             0.0000000000
     12440       523  TIP3      H1             23.0969877431      -17.3762478495       21.9104529303  TIP3      427             0.0000000000
     12441       523  TIP3      H2             22.0249355476      -18.1655546507       21.1827673679  TIP3      427             0.0000000000
     12442       524  TIP3      OH2            25.1821095393      -16.5790041124       25.4279920604  TIP3      428             0.0000000000
     12443       524  TIP3      H1             24.5547857373      -16.2473413786       26.1172319119  TIP3      428             0.0000000000
     12444       524  TIP3      H2             26.0350099812      -16.2596609809       25.7596013327  TIP3      428             0.0000000000
     12445       525  TIP3      OH2            25.3446446901      -18.9184187462       34.2363602375  TIP3      429             0.0000000000
     12446       525  TIP3      H1             24.8503304365      -18.7846636776       35.0582562201  TIP3      429             0.0000000000
     12447       525  TIP3      H2             24.6571024042      -18.6990559777       33.5650766910  TIP3      429             0.0000000000
     12448       526  TIP3      OH2            17.3289043628      -15.8686354673       27.0413754122  TIP3      430             0.0000000000
     12449       526  TIP3      H1             17.1616337902      -16.3126163820       26.1811102596  TIP3      430             0.0000000000
     12450       526  TIP3      H2             17.8498177346      -16.5664373363       27.5049702973  TIP3      430             0.0000000000
     12451       527  TIP3      OH2            18.8191152501      -12.6620483575       29.5876185734  TIP3      431             0.0000000000
     12452       527  TIP3      H1             19.1276716601      -12.8116356440       28.6798782027  TIP3      431             0.0000000000
     12453       527  TIP3      H2             19.5120710044      -13.0693603846       30.1425826573  TIP3      431             0.0000000000
     12454       528  TIP3      OH2            17.6980227986      -17.2302456197       30.7316266471  TIP3      432             0.0000000000
     12455       528  TIP3      H1             18.0320768088      -17.1115075064       29.8236334856  TIP3      432             0.0000000000
     12456       528  TIP3      H2             18.0098084743      -16.4164128936       31.1797766015  TIP3      432             0.0000000000
     12457       529  TIP3      OH2            24.3967305628      -11.2121524037       31.3065575663  TIP3      433             0.0000000000
     12458       529  TIP3      H1             24.2872182669      -10.6307747660       32.0967947355  TIP3      433             0.0000000000
     12459       529  TIP3      H2             24.6003953513      -12.0629255877       31.7086525441  TIP3      433             0.0000000000
     12460       530  TIP3      OH2            19.1318702893      -12.7902047363       35.1443565077  TIP3      434             0.0000000000
     12461       530  TIP3      H1             18.5150312567      -12.2171354094       35.6682478462  TIP3      434             0.0000000000
     12462       530  TIP3      H2             18.6110111936      -12.8352827826       34.3118214466  TIP3      434             0.0000000000
     12463       531  TIP3      OH2            24.8036298323      -17.1881022303       22.6837143277  TIP3      435             0.0000000000
     12464       531  TIP3      H1             24.8945397717      -16.9476063413       23.6380751668  TIP3      435             0.0000000000
     12465       531  TIP3      H2             25.1619197550      -16.4106313654       22.2302931199  TIP3      435             0.0000000000
     12466       532  TIP3      OH2            15.6569273453      -16.4073903870       34.4519449082  TIP3      436             0.0000000000
     12467       532  TIP3      H1             15.6135775600      -15.8743431246       35.2733463658  TIP3      436             0.0000000000
     12468       532  TIP3      H2             14.7448317644      -16.7763178649       34.4474754720  TIP3      436             0.0000000000
     12469       533  TIP3      OH2            22.0496591316      -10.6413150882       26.3872718283  TIP3      437             0.0000000000
     12470       533  TIP3      H1             22.8778174026      -10.3157633794       26.7792108247  TIP3      437             0.0000000000
     12471       533  TIP3      H2             21.4376325440      -10.0558755892       26.8534498327  TIP3      437             0.0000000000
     12472       534  TIP3      OH2            17.5489359002      -10.9447535657       36.3483827391  TIP3      438             0.0000000000
     12473       534  TIP3      H1             17.4066772272      -10.4527694100       35.5135814842  TIP3      438             0.0000000000
     12474       534  TIP3      H2             16.6162849116      -11.1827567038       36.5347730342  TIP3      438             0.0000000000
     12475       535  TIP3      OH2            16.8988011408      -17.3876994380       24.7368963071  TIP3      439             0.0000000000
     12476       535  TIP3      H1             16.9927443374      -16.7734033198       23.9890945608  TIP3      439             0.0000000000
     12477       535  TIP3      H2             16.8265790678      -18.2223678664       24.2587494353  TIP3      439             0.0000000000
     12478       536  TIP3      OH2            12.6732111554      -14.4762194359       33.5362882509  TIP3      440             0.0000000000
     12479       536  TIP3      H1             12.4193679309      -14.5117706903       32.6040098490  TIP3      440             0.0000000000
     12480       536  TIP3      H2             13.0487044189      -15.3717124243       33.6772404055  TIP3      440             0.0000000000
     12481       537  TIP3      OH2            12.5709039431      -11.6258841376       30.5049493987  TIP3      441             0.0000000000
     12482       537  TIP3      H1             13.5078635356      -11.8551674061       30.5473649250  TIP3      441             0.0000000000
     12483       537  TIP3      H2             12.5969510817      -10.7117288549       30.8032391109  TIP3      441             0.0000000000
     12484       538  TIP3      OH2            21.7347943950      -11.6919389158       34.7598905528  TIP3      442             0.0000000000
     12485       538  TIP3      H1             21.8444650645      -10.8856031361       35.2932055365  TIP3      442             0.0000000000
     12486       538  TIP3      H2             20.8288549548      -11.9807666770       34.9688661964  TIP3      442             0.0000000000
     12487       539  TIP3      OH2            22.0330350099       -7.4355975320       24.1905362745  TIP3      443             0.0000000000
     12488       539  TIP3      H1             22.9687667926       -7.6525851259       24.3446197681  TIP3      443             0.0000000000
     12489       539  TIP3      H2             21.8699722258       -6.8247424175       24.9326253280  TIP3      443             0.0000000000
     12490       540  TIP3      OH2            15.6260134016       -8.6639841153       26.6006981570  TIP3      444             0.0000000000
     12491       540  TIP3      H1             15.7155603145       -9.0994429178       27.4813246316  TIP3      444             0.0000000000
     12492       540  TIP3      H2             14.9344070044       -9.2437287958       26.1889068849  TIP3      444             0.0000000000
     12493       541  TIP3      OH2            24.2641373720       -8.9100802474       24.9552527639  TIP3      445             0.0000000000
     12494       541  TIP3      H1             23.5443307840       -9.5422963489       24.8224365399  TIP3      445             0.0000000000
     12495       541  TIP3      H2             24.6771975000       -9.2468838233       25.7774242711  TIP3      445             0.0000000000
     12496       542  TIP3      OH2            14.8505004551      -13.0005095697       34.2494824213  TIP3      446             0.0000000000
     12497       542  TIP3      H1             14.9859778674      -13.3133675494       35.1649341646  TIP3      446             0.0000000000
     12498       542  TIP3      H2             14.0423669201      -13.5063534815       34.0111234376  TIP3      446             0.0000000000
     12499       543  TIP3      OH2            18.1721218255      -24.4660521969       30.7736825283  TIP3      447             0.0000000000
     12500       543  TIP3      H1             17.4134688609      -24.5778625493       30.1738852511  TIP3      447             0.0000000000
     12501       543  TIP3      H2             17.6978422897      -23.9550437128       31.4536328976  TIP3      447             0.0000000000
     12502       544  TIP3      OH2            22.1132383085      -25.2263814598       34.6048504198  TIP3      448             0.0000000000
     12503       544  TIP3      H1             21.4762085530      -25.0348435285       35.3200603758  TIP3      448             0.0000000000
     12504       544  TIP3      H2             21.5012428013      -25.3034521004       33.8502888840  TIP3      448             0.0000000000
     12505       545  TIP3      OH2            25.8788649635      -21.5416407336       34.4760805056  TIP3      449             0.0000000000
     12506       545  TIP3      H1             25.2465516515      -21.5384319866       35.2058921794  TIP3      449             0.0000000000
     12507       545  TIP3      H2             25.8541421973      -20.5997893331       34.2184036078  TIP3      449             0.0000000000
     12508       546  TIP3      OH2            22.2093287528      -22.8625804994       21.6962652549  TIP3      450             0.0000000000
     12509       546  TIP3      H1             21.4854020676      -22.9082676048       22.3474979087  TIP3      450             0.0000000000
     12510       546  TIP3      H2             21.8336948273      -23.2146487362       20.8722963315  TIP3      450             0.0000000000
     12511       547  TIP3      OH2            17.8236270687      -19.6584427843       31.7072726994  TIP3      451             0.0000000000
     12512       547  TIP3      H1             17.6690759013      -19.3951685355       32.6421256784  TIP3      451             0.0000000000
     12513       547  TIP3      H2             17.7407055744      -18.7616904729       31.2970219875  TIP3      451             0.0000000000
     12514       548  TIP3      OH2            17.4414780685      -19.8169491428       27.0490314993  TIP3      452             0.0000000000
     12515       548  TIP3      H1             16.4848549709      -19.8813496885       26.8149785980  TIP3      452             0.0000000000
     12516       548  TIP3      H2             17.8781481582      -19.8987552687       26.1640820530  TIP3      452             0.0000000000
     12517       549  TIP3      OH2            23.2274812605      -18.9606779635       25.2668002884  TIP3      453             0.0000000000
     12518       549  TIP3      H1             22.9646561174      -18.0683658876       24.9532492234  TIP3      453             0.0000000000
     12519       549  TIP3      H2             23.8981575950      -19.2430037166       24.6235585785  TIP3      453             0.0000000000
     12520       550  TIP3      OH2            22.3256067017      -18.8244782648       36.8293023210  TIP3      454             0.0000000000
     12521       550  TIP3      H1             21.7586323670      -19.5918111524       37.0491877159  TIP3      454             0.0000000000
     12522       550  TIP3      H2             23.0391224638      -18.9559507563       37.4768047320  TIP3      454             0.0000000000
     12523       551  TIP3      OH2            23.6546175862      -19.1879403892       28.3073327903  TIP3      455             0.0000000000
     12524       551  TIP3      H1             23.7536856316      -18.4575634727       27.6841364246  TIP3      455             0.0000000000
     12525       551  TIP3      H2             23.9228219371      -19.9502872831       27.7459930561  TIP3      455             0.0000000000
     12526       552  TIP3      OH2            14.6012725023      -19.6590149399       33.0403502762  TIP3      456             0.0000000000
     12527       552  TIP3      H1             15.3052743210      -19.3944357871       33.6590667692  TIP3      456             0.0000000000
     12528       552  TIP3      H2             14.7524781922      -20.6190707818       32.9931630618  TIP3      456             0.0000000000
     12529       553  TIP3      OH2            11.9302441897      -22.1587643560       27.4111340023  TIP3      457             0.0000000000
     12530       553  TIP3      H1             12.5347712944      -22.2803654348       28.1771420265  TIP3      457             0.0000000000
     12531       553  TIP3      H2             12.4388790423      -22.4725748380       26.6451660348  TIP3      457             0.0000000000
     12532       554  TIP3      OH2            12.7067060030      -21.0227442208       23.0289381723  TIP3      458             0.0000000000
     12533       554  TIP3      H1             13.6228445839      -21.1062891534       23.3057766092  TIP3      458             0.0000000000
     12534       554  TIP3      H2             12.3110773185      -20.5973579088       23.8071960818  TIP3      458             0.0000000000
     12535       555  TIP3      OH2            23.1277813287      -18.5402913912       32.8411920278  TIP3      459             0.0000000000
     12536       555  TIP3      H1             23.3628598455      -19.1989484013       32.1430938574  TIP3      459             0.0000000000
     12537       555  TIP3      H2             22.4954376290      -19.0576206017       33.3910100779  TIP3      459             0.0000000000
     12538       556  TIP3      OH2            20.3620421127      -21.7025832210       27.7302038345  TIP3      460             0.0000000000
     12539       556  TIP3      H1             19.4833900632      -21.9225746973       28.0958895838  TIP3      460             0.0000000000
     12540       556  TIP3      H2             20.9130416767      -21.8369328505       28.5194237349  TIP3      460             0.0000000000
     12541       557  TIP3      OH2            14.7473393133      -20.3490348664       26.5547375947  TIP3      461             0.0000000000
     12542       557  TIP3      H1             14.0359529547      -20.0590127368       25.9365706199  TIP3      461             0.0000000000
     12543       557  TIP3      H2             15.0529930765      -21.1910056421       26.1782039867  TIP3      461             0.0000000000
     12544       558  TIP3      OH2            18.3742445574      -20.4956439604       24.5698186700  TIP3      462             0.0000000000
     12545       558  TIP3      H1             19.3095114778      -20.7112328494       24.4230282706  TIP3      462             0.0000000000
     12546       558  TIP3      H2             18.1580969954      -20.0764536426       23.7204096637  TIP3      462             0.0000000000
     12547       559  TIP3      OH2            25.0534589868      -23.5722345029       31.0242422882  TIP3      463             0.0000000000
     12548       559  TIP3      H1             24.2181501608      -23.2414482607       31.3745694007  TIP3      463             0.0000000000
     12549       559  TIP3      H2             24.7961958551      -23.9470641125       30.1590459278  TIP3      463             0.0000000000
     12550       560  TIP3      OH2            14.9879424115      -14.6018215881       36.5081367318  TIP3      464             0.0000000000
     12551       560  TIP3      H1             15.8452648806      -14.4032519012       36.9653538087  TIP3      464             0.0000000000
     12552       560  TIP3      H2             14.4636733962      -14.9625609916       37.2442448775  TIP3      464             0.0000000000
     12553       561  TIP3      OH2            21.1974382826      -19.0576074567       29.3572365767  TIP3      465             0.0000000000
     12554       561  TIP3      H1             22.0431751048      -19.3565106342       28.9522248334  TIP3      465             0.0000000000
     12555       561  TIP3      H2             21.1257488512      -19.6780022713       30.1013412873  TIP3      465             0.0000000000
     12556       562  TIP3      OH2            16.1250872532      -22.9956971155       26.5214454626  TIP3      466             0.0000000000
     12557       562  TIP3      H1             15.5663688131      -23.7774140353       26.7139126219  TIP3      466             0.0000000000
     12558       562  TIP3      H2             16.5006030171      -23.2012213068       25.6535961403  TIP3      466             0.0000000000
     12559       563  TIP3      OH2            20.3001237993      -20.8182011265       31.5708235878  TIP3      467             0.0000000000
     12560       563  TIP3      H1             19.4178153685      -20.3877471477       31.6207792179  TIP3      467             0.0000000000
     12561       563  TIP3      H2             20.7438718504      -20.5408221985       32.3909695630  TIP3      467             0.0000000000
     12562       564  TIP3      OH2            21.1155344508      -14.0409139649       24.1583390632  TIP3      468             0.0000000000
     12563       564  TIP3      H1             20.7110815606      -14.7056429091       23.5733560626  TIP3      468             0.0000000000
     12564       564  TIP3      H2             20.5791388402      -14.1670454979       24.9799109622  TIP3      468             0.0000000000
     12565       565  TIP3      OH2            24.5104065519      -21.7108047061       22.3906624126  TIP3      469             0.0000000000
     12566       565  TIP3      H1             23.8641845204      -22.2034208433       21.8344338015  TIP3      469             0.0000000000
     12567       565  TIP3      H2             24.4937818198      -20.8435069429       21.9774531163  TIP3      469             0.0000000000
     12568       566  TIP3      OH2            21.7270886305      -14.7696054647       34.4357443315  TIP3      470             0.0000000000
     12569       566  TIP3      H1             21.6444996616      -14.8250639327       35.4005002927  TIP3      470             0.0000000000
     12570       566  TIP3      H2             21.5694175208      -13.8165196822       34.2974548130  TIP3      470             0.0000000000
     12571       567  TIP3      OH2            25.7025605344      -19.5680037143       23.6409093180  TIP3      471             0.0000000000
     12572       567  TIP3      H1             26.1100492089      -20.2366837913       23.0709897999  TIP3      471             0.0000000000
     12573       567  TIP3      H2             25.6332359527      -18.7953267294       23.0448538673  TIP3      471             0.0000000000
     12574       568  TIP3      OH2            15.7684519883      -15.0895302779       29.2560632066  TIP3      472             0.0000000000
     12575       568  TIP3      H1             16.3185651368      -15.2941450375       28.4706531257  TIP3      472             0.0000000000
     12576       568  TIP3      H2             15.8911474300      -15.8741241730       29.8069684224  TIP3      472             0.0000000000
     12577       569  TIP3      OH2            13.0950740724      -17.0278594149       34.5024686229  TIP3      473             0.0000000000
     12578       569  TIP3      H1             13.0932350198      -17.2271967184       35.4698393827  TIP3      473             0.0000000000
     12579       569  TIP3      H2             12.3553289315      -17.5760182294       34.1876656240  TIP3      473             0.0000000000
     12580       570  TIP3      OH2            19.9658126622      -17.2210067877       36.2869520706  TIP3      474             0.0000000000
     12581       570  TIP3      H1             19.9210061585      -16.9844781404       35.3305286913  TIP3      474             0.0000000000
     12582       570  TIP3      H2             20.7811964996      -17.7602641551       36.2904729815  TIP3      474             0.0000000000
     12583       571  TIP3      OH2            24.9680632788      -11.5466449044       34.8540493256  TIP3      475             0.0000000000
     12584       571  TIP3      H1             24.1690798312      -11.6599647284       34.3304840589  TIP3      475             0.0000000000
     12585       571  TIP3      H2             24.5978418891      -11.1719803228       35.6773958349  TIP3      475             0.0000000000
     12586       572  TIP3      OH2            25.2660261700      -16.2119167891       31.2338486221  TIP3      476             0.0000000000
     12587       572  TIP3      H1             24.7606648248      -16.5140104494       30.4686301952  TIP3      476             0.0000000000
     12588       572  TIP3      H2             26.0392142037      -15.7612815753       30.8409161755  TIP3      476             0.0000000000
     12589       573  TIP3      OH2            17.7620321285      -11.6550099442       26.8625101963  TIP3      477             0.0000000000
     12590       573  TIP3      H1             17.9491426202      -10.7093525098       26.9809277643  TIP3      477             0.0000000000
     12591       573  TIP3      H2             16.8070256550      -11.6095105915       26.7243420712  TIP3      477             0.0000000000
     12592       574  TIP3      OH2            19.4475005053      -14.1994531756       26.3027277864  TIP3      478             0.0000000000
     12593       574  TIP3      H1             18.8243549146      -13.5226538587       26.6213835803  TIP3      478             0.0000000000
     12594       574  TIP3      H2             19.0363397668      -15.0019486876       26.6820381890  TIP3      478             0.0000000000
     12595       575  TIP3      OH2            20.2068080139       -9.8848181618       33.2694990566  TIP3      479             0.0000000000
     12596       575  TIP3      H1             20.7813344538       -9.2123093954       32.8569282739  TIP3      479             0.0000000000
     12597       575  TIP3      H2             20.8986862097      -10.4746340433       33.6290916236  TIP3      479             0.0000000000
     12598       576  TIP3      OH2            18.1519792777       -8.7366796274       25.7816901086  TIP3      480             0.0000000000
     12599       576  TIP3      H1             17.2349038257       -8.5711979363       26.0927147901  TIP3      480             0.0000000000
     12600       576  TIP3      H2             18.5928249514       -7.9209868349       26.1131823155  TIP3      480             0.0000000000
     12601       577  TIP3      OH2            23.7040244676      -14.3824592412       32.5840032165  TIP3      481             0.0000000000
     12602       577  TIP3      H1             23.2029781752      -14.8295718132       33.2891571598  TIP3      481             0.0000000000
     12603       577  TIP3      H2             24.0139373425      -15.1219070856       32.0183476870  TIP3      481             0.0000000000
     12604       578  TIP3      OH2            25.3328732812      -13.1363808517       22.0467523625  TIP3      482             0.0000000000
     12605       578  TIP3      H1             24.8334671389      -12.9739178773       22.8525534133  TIP3      482             0.0000000000
     12606       578  TIP3      H2             24.6466038045      -13.1013955428       21.3603864984  TIP3      482             0.0000000000
     12607       579  TIP3      OH2            14.3687556691      -22.2800148346       33.6416453066  TIP3      483             0.0000000000
     12608       579  TIP3      H1             13.5768711578      -21.7401301505       33.7990713498  TIP3      483             0.0000000000
     12609       579  TIP3      H2             14.0081164973      -23.1939894383       33.7254422774  TIP3      483             0.0000000000
     12610       580  TIP3      OH2            14.2607053245      -10.2078471162       32.5206184725  TIP3      484             0.0000000000
     12611       580  TIP3      H1             14.8236263944      -10.9565078748       32.7681925926  TIP3      484             0.0000000000
     12612       580  TIP3      H2             13.8762357722       -9.9693592413       33.3766445174  TIP3      484             0.0000000000
     12613       581  TIP3      OH2            22.5345023109      -22.6159012803       33.8457426315  TIP3      485             0.0000000000
     12614       581  TIP3      H1             23.4926401871      -22.5592284167       33.9897521062  TIP3      485             0.0000000000
     12615       581  TIP3      H2             22.3855807413      -23.5616604216       34.0595003411  TIP3      485             0.0000000000
     12616       582  TIP3      OH2            23.8929679650      -22.8144222711       24.8582211924  TIP3      486             0.0000000000
     12617       582  TIP3      H1             23.9078242850      -22.4377433488       23.9528539528  TIP3      486             0.0000000000
     12618       582  TIP3      H2             23.8948781450      -22.0141242351       25.4194296746  TIP3      486             0.0000000000
     12619       583  TIP3      OH2            21.4512557879      -21.0800603514       25.3269768450  TIP3      487             0.0000000000
     12620       583  TIP3      H1             22.0647290623      -20.3192068438       25.3995950956  TIP3      487             0.0000000000
     12621       583  TIP3      H2             21.0627171418      -21.0686584237       26.2307326681  TIP3      487             0.0000000000
     12622       584  TIP3      OH2            21.6354917827      -20.0333587537       34.4637488006  TIP3      488             0.0000000000
     12623       584  TIP3      H1             21.9892726422      -19.7677525362       35.3345901118  TIP3      488             0.0000000000
     12624       584  TIP3      H2             21.8972874101      -20.9808980931       34.4493399024  TIP3      488             0.0000000000
     12625       585  TIP3      OH2            22.0082816841      -24.1294577499       26.2609831748  TIP3      489             0.0000000000
     12626       585  TIP3      H1             21.8654474922      -23.4983484725       26.9922976734  TIP3      489             0.0000000000
     12627       585  TIP3      H2             22.6265866542      -23.5993865197       25.7088074754  TIP3      489             0.0000000000
     12628       586  TIP3      OH2            17.4239357428      -23.0331285505       22.5438494389  TIP3      490             0.0000000000
     12629       586  TIP3      H1             17.4187468333      -22.2916030990       21.8867960317  TIP3      490             0.0000000000
     12630       586  TIP3      H2             18.0525455186      -22.6320145317       23.1681749111  TIP3      490             0.0000000000
     12631       587  TIP3      OH2            15.3545384497      -24.8856797222       29.4866586342  TIP3      491             0.0000000000
     12632       587  TIP3      H1             14.9606052400      -25.1877604457       28.6480463427  TIP3      491             0.0000000000
     12633       587  TIP3      H2             15.3055538157      -25.6946084882       30.0454321894  TIP3      491             0.0000000000
     12634       588  TIP3      OH2            13.7618335800      -10.2371474368       25.6260819661  TIP3      492             0.0000000000
     12635       588  TIP3      H1             12.9236036359      -10.5457244001       25.9887273863  TIP3      492             0.0000000000
     12636       588  TIP3      H2             13.5721411736      -10.4043991684       24.6731823545  TIP3      492             0.0000000000
     12637       589  TIP3      OH2            12.9022238904       -8.3153122714       37.0339047267  TIP3      493             0.0000000000
     12638       589  TIP3      H1             13.6314842695       -8.4283139018       37.6902156554  TIP3      493             0.0000000000
     12639       589  TIP3      H2             12.7455459236       -9.2546787924       36.8187116498  TIP3      493             0.0000000000
     12640       590  TIP3      OH2            17.8465518558       -9.8923880435       38.8742541977  TIP3      494             0.0000000000
     12641       590  TIP3      H1             18.6400658203      -10.3639131938       39.1759643052  TIP3      494             0.0000000000
     12642       590  TIP3      H2             17.7905178286      -10.2504412859       37.9672185554  TIP3      494             0.0000000000
     12643       591  TIP3      OH2            24.5152671124      -10.7983990550       37.3422021518  TIP3      495             0.0000000000
     12644       591  TIP3      H1             24.1781121272      -11.6743908758       37.6455420518  TIP3      495             0.0000000000
     12645       591  TIP3      H2             25.4633028359      -10.9090669360       37.5161338148  TIP3      495             0.0000000000
     12646       592  TIP3      OH2            13.2775230337      -14.3058926841       38.8102887806  TIP3      496             0.0000000000
     12647       592  TIP3      H1             12.7673674566      -15.1304384292       38.7753787846  TIP3      496             0.0000000000
     12648       592  TIP3      H2             12.8796699135      -13.8974461317       38.0348668646  TIP3      496             0.0000000000
     12649       593  TIP3      OH2            19.9216132319      -14.5499383075       37.0692317942  TIP3      497             0.0000000000
     12650       593  TIP3      H1             19.7382701364      -14.0498168297       36.2388215719  TIP3      497             0.0000000000
     12651       593  TIP3      H2             19.9754641324      -15.4984430336       36.7803552484  TIP3      497             0.0000000000
     12652       594  TIP3      OH2            24.9199486686      -14.7216244055       35.7272628360  TIP3      498             0.0000000000
     12653       594  TIP3      H1             25.6618508740      -14.5043806195       35.1265728350  TIP3      498             0.0000000000
     12654       594  TIP3      H2             24.1856770661      -14.2989816390       35.2639324358  TIP3      498             0.0000000000
     12655       595  TIP3      OH2            13.6750232997      -17.4108213100       37.1615613223  TIP3      499             0.0000000000
     12656       595  TIP3      H1             14.4978368778      -17.8834255443       37.3552192239  TIP3      499             0.0000000000
     12657       595  TIP3      H2             13.1209875867      -17.7543700376       37.8917614171  TIP3      499             0.0000000000
     12658       596  TIP3      OH2            17.2732505822      -18.4211592716       33.9466713011  TIP3      500             0.0000000000
     12659       596  TIP3      H1             16.6472416855      -17.6714058222       34.0614060737  TIP3      500             0.0000000000
     12660       596  TIP3      H2             18.1197016249      -17.9239115659       33.9825677746  TIP3      500             0.0000000000
     12661       597  TIP3      OH2            23.2020518418      -15.8631479846       38.3728474804  TIP3      501             0.0000000000
     12662       597  TIP3      H1             23.7791677946      -16.2827704008       37.7087334794  TIP3      501             0.0000000000
     12663       597  TIP3      H2             22.9846851376      -16.5764545788       38.9975115911  TIP3      501             0.0000000000
     12664       598  TIP3      OH2            18.4168322297      -20.6153073164       35.6579348390  TIP3      502             0.0000000000
     12665       598  TIP3      H1             18.6136223297      -21.3577729826       35.0691706525  TIP3      502             0.0000000000
     12666       598  TIP3      H2             18.4761686547      -19.8644234117       35.0556603683  TIP3      502             0.0000000000
     12667       599  TIP3      OH2            18.9054691203      -22.7757941511       33.4443056618  TIP3      503             0.0000000000
     12668       599  TIP3      H1             19.2924205042      -22.2442872901       32.7162672908  TIP3      503             0.0000000000
     12669       599  TIP3      H2             17.9951733171      -22.9349270319       33.1177398649  TIP3      503             0.0000000000
     12670       600  TIP3      OH2            19.7353168595      -16.8948955341       33.6618310580  TIP3      504             0.0000000000
     12671       600  TIP3      H1             20.6096823634      -16.5043325249       33.4644540587  TIP3      504             0.0000000000
     12672       600  TIP3      H2             19.1634669886      -16.2907097190       33.1319870500  TIP3      504             0.0000000000
     12673       601  TIP3      OH2            24.5312493912      -19.6043271248       38.8861402797  TIP3      505             0.0000000000
     12674       601  TIP3      H1             25.3163491557      -20.1047571884       38.5782854538  TIP3      505             0.0000000000
     12675       601  TIP3      H2             24.9420402278      -18.9147030394       39.4150399991  TIP3      505             0.0000000000
     12676       602  TIP3      OH2            16.5864313759      -19.5976456614       38.3963517723  TIP3      506             0.0000000000
     12677       602  TIP3      H1             15.9174505475      -20.2678848070       38.1107837417  TIP3      506             0.0000000000
     12678       602  TIP3      H2             17.0387035808      -19.3378117841       37.5732947142  TIP3      506             0.0000000000
     12679       603  TIP3      OH2            19.3809438920      -25.4883772927       33.6760887547  TIP3      507             0.0000000000
     12680       603  TIP3      H1             19.2335024107      -24.5241504846       33.7144006011  TIP3      507             0.0000000000
     12681       603  TIP3      H2             18.4871314247      -25.8525126430       33.4920735733  TIP3      507             0.0000000000
     12682       604  TIP3      OH2            20.7810708334      -21.3082503419       37.6207064661  TIP3      508             0.0000000000
     12683       604  TIP3      H1             20.4631051480      -21.8645245631       38.3585728720  TIP3      508             0.0000000000
     12684       604  TIP3      H2             19.9701944508      -21.2852391828       37.0802046960  TIP3      508             0.0000000000
     12685       605  TIP3      OH2            23.4210123708      -21.7748134466       36.6054289267  TIP3      509             0.0000000000
     12686       605  TIP3      H1             22.5513578663      -22.0058245561       37.0034879979  TIP3      509             0.0000000000
     12687       605  TIP3      H2             24.0553740468      -22.1491558328       37.2588152797  TIP3      509             0.0000000000
     12688       606  TIP3      OH2            25.2393897595      -22.8704062056       38.4899907258  TIP3      510             0.0000000000
     12689       606  TIP3      H1             25.3042371553      -23.8317006357       38.2869713248  TIP3      510             0.0000000000
     12690       606  TIP3      H2             25.1302252574      -22.8706083251       39.4512505456  TIP3      510             0.0000000000
     12691       607  TIP3      OH2            14.8059551721      -21.8206912253       37.7464841070  TIP3      511             0.0000000000
     12692       607  TIP3      H1             14.5466586985      -22.4554541987       37.0535936242  TIP3      511             0.0000000000
     12693       607  TIP3      H2             14.7364871905      -22.3641201136       38.5565435911  TIP3      511             0.0000000000
     12694       608  TIP3      OH2            20.0652532348      -25.1385078235       36.4782604843  TIP3      512             0.0000000000
     12695       608  TIP3      H1             19.7358625035      -25.6914039769       37.2157334245  TIP3      512             0.0000000000
     12696       608  TIP3      H2             19.5303745627      -25.4294697607       35.7173732571  TIP3      512             0.0000000000
     12697       609  TIP3      OH2            20.1927374602      -23.6976531887       39.2611927969  TIP3      513             0.0000000000
     12698       609  TIP3      H1             20.4612245672      -24.4047467283       38.6560618223  TIP3      513             0.0000000000
     12699       609  TIP3      H2             19.2412843967      -23.6258196696       39.0207060742  TIP3      513             0.0000000000
     12700       610  TIP3      OH2            11.5787036844       -7.2086968339       26.4887236648  TIP3      514             0.0000000000
     12701       610  TIP3      H1             11.0097764164       -7.7672375980       25.9295418171  TIP3      514             0.0000000000
     12702       610  TIP3      H2             12.0108580307       -7.9093740840       27.0374446641  TIP3      514             0.0000000000
     12703       611  TIP3      OH2            12.6357589689       -9.0356274684       28.1857140668  TIP3      515             0.0000000000
     12704       611  TIP3      H1             11.9910298208       -9.4836584363       28.7548793951  TIP3      515             0.0000000000
     12705       611  TIP3      H2             13.3229519691       -8.7748400290       28.8443184940  TIP3      515             0.0000000000
     12706       612  TIP3      OH2            12.6732256518      -15.7287336683       30.5957989798  TIP3      516             0.0000000000
     12707       612  TIP3      H1             12.5084327335      -16.2529228664       29.7780485444  TIP3      516             0.0000000000
     12708       612  TIP3      H2             13.4862393256      -16.1824790084       30.9247908498  TIP3      516             0.0000000000
     12709       613  TIP3      OH2            12.4697997081      -21.1761611749       36.1971194712  TIP3      517             0.0000000000
     12710       613  TIP3      H1             13.3807223919      -21.0743798226       36.5185257701  TIP3      517             0.0000000000
     12711       613  TIP3      H2             12.0989716368      -21.8006222003       36.8647453017  TIP3      517             0.0000000000
     12712       614  TIP3      OH2            13.2197061122      -22.8658044913       29.7313221118  TIP3      518             0.0000000000
     12713       614  TIP3      H1             13.8178301814      -23.6072487445       29.9223700321  TIP3      518             0.0000000000
     12714       614  TIP3      H2             13.8119419469      -22.1097705620       29.8613122464  TIP3      518             0.0000000000
     12715       615  TIP3      OH2            12.3421860118      -19.8635972262       30.8322975896  TIP3      519             0.0000000000
     12716       615  TIP3      H1             12.8145659843      -19.8760529074       29.9692373081  TIP3      519             0.0000000000
     12717       615  TIP3      H2             13.0679657829      -19.7036349433       31.4547355284  TIP3      519             0.0000000000
     12718       616  TIP3      OH2            12.2709826911      -23.3329488481       24.8849241294  TIP3      520             0.0000000000
     12719       616  TIP3      H1             11.4724895467      -22.8769721030       24.5764631146  TIP3      520             0.0000000000
     12720       616  TIP3      H2             12.6485525813      -23.6307159963       24.0355294318  TIP3      520             0.0000000000
     12721       617  TIP3      OH2            12.7044247237      -24.4113178326       32.9171749989  TIP3      521             0.0000000000
     12722       617  TIP3      H1             12.2307250136      -24.6327945565       33.7375703462  TIP3      521             0.0000000000
     12723       617  TIP3      H2             12.0202855814      -23.9641029719       32.3915586624  TIP3      521             0.0000000000
     12724       618  TIP3      OH2            14.7317246142      -11.4837292578       36.6596553370  TIP3      522             0.0000000000
     12725       618  TIP3      H1             13.8590934932      -11.6193711326       36.2468674146  TIP3      522             0.0000000000
     12726       618  TIP3      H2             14.6535839890      -12.0874865331       37.4035174982  TIP3      522             0.0000000000
     12727       619  TIP3      OH2            17.4969857106      -10.0276572166       33.6572229349  TIP3      523             0.0000000000
     12728       619  TIP3      H1             17.4000630126       -9.1345417849       33.2473310551  TIP3      523             0.0000000000
     12729       619  TIP3      H2             18.4750283611      -10.1377195116       33.5683588335  TIP3      523             0.0000000000
     12730       620  TIP3      OH2            21.6704331868       -8.6662515869       36.0084634276  TIP3      524             0.0000000000
     12731       620  TIP3      H1             21.5714824955       -9.2113563746       36.8222738147  TIP3      524             0.0000000000
     12732       620  TIP3      H2             22.6069180099       -8.4005839243       36.0502759126  TIP3      524             0.0000000000
     12733       621  TIP3      OH2            24.2752841097       -7.6478361360       36.1336615212  TIP3      525             0.0000000000
     12734       621  TIP3      H1             24.8815905339       -8.3941623753       36.0511058879  TIP3      525             0.0000000000
     12735       621  TIP3      H2             24.4355829887       -7.3647169564       37.0533496459  TIP3      525             0.0000000000
     12736       622  TIP3      OH2            14.7676583884       -6.8187124664       33.3279547398  TIP3      526             0.0000000000
     12737       622  TIP3      H1             14.0472284146       -6.2565682722       32.9802379607  TIP3      526             0.0000000000
     12738       622  TIP3      H2             14.5962710784       -6.7520861960       34.2783281332  TIP3      526             0.0000000000
     12739       623  TIP3      OH2            17.0063894062       -7.7234254609       32.3582980733  TIP3      527             0.0000000000
     12740       623  TIP3      H1             16.0899230032       -7.5669602179       32.7021155982  TIP3      527             0.0000000000
     12741       623  TIP3      H2             17.1004801505       -6.9664173251       31.7463057683  TIP3      527             0.0000000000
     12742       624  TIP3      OH2            21.9415661420       -8.0310831795       31.7740347966  TIP3      528             0.0000000000
     12743       624  TIP3      H1             21.4641373905       -7.4667400738       31.1499788998  TIP3      528             0.0000000000
     12744       624  TIP3      H2             22.0298088256       -7.4265872634       32.5448006012  TIP3      528             0.0000000000
     12745       625  TIP3      OH2            23.8284814026       -9.3274834709       33.2080191154  TIP3      529             0.0000000000
     12746       625  TIP3      H1             23.3826290979       -8.8924544393       32.4500823921  TIP3      529             0.0000000000
     12747       625  TIP3      H2             24.2211143878       -8.5771103970       33.6739951912  TIP3      529             0.0000000000
     12748       626  TIP3      OH2            14.2263512483       -8.5224810871       30.3703516197  TIP3      530             0.0000000000
     12749       626  TIP3      H1             14.1167494939       -8.9232722853       31.2617976979  TIP3      530             0.0000000000
     12750       626  TIP3      H2             15.0522927026       -8.9697221427       30.0775468619  TIP3      530             0.0000000000
     12751       627  TIP3      OH2            16.4208045334       -9.7009060828       28.9432273238  TIP3      531             0.0000000000
     12752       627  TIP3      H1             16.2415162704      -10.6171349461       29.2456271026  TIP3      531             0.0000000000
     12753       627  TIP3      H2             17.3110210529       -9.5663006176       29.3407619879  TIP3      531             0.0000000000
     12754       628  TIP3      OH2            18.7559133163       -9.6466364286       30.1921302363  TIP3      532             0.0000000000
     12755       628  TIP3      H1             18.9933143467      -10.5873567799       30.1218328698  TIP3      532             0.0000000000
     12756       628  TIP3      H2             18.9401634126       -9.4754045524       31.1282077345  TIP3      532             0.0000000000
     12757       629  TIP3      OH2            22.1465440136      -23.1916237355       29.2155681881  TIP3      533             0.0000000000
     12758       629  TIP3      H1             21.4165279995      -23.8129828040       29.0404331184  TIP3      533             0.0000000000
     12759       629  TIP3      H2             22.8799653117      -23.8208391668       29.3736674747  TIP3      533             0.0000000000
     12760       630  TIP3      OH2            14.3497218533      -25.0522507386       26.6446019469  TIP3      534             0.0000000000
     12761       630  TIP3      H1             13.7884983042      -24.8296229433       25.8752667551  TIP3      534             0.0000000000
     12762       630  TIP3      H2             14.4540616051      -26.0117598308       26.5066462165  TIP3      534             0.0000000000
     12763       631  TIP3      OH2            13.4952562295      -24.9796600560       22.8320392815  TIP3      535             0.0000000000
     12764       631  TIP3      H1             14.0435947469      -24.7890067295       22.0427091566  TIP3      535             0.0000000000
     12765       631  TIP3      H2             12.5985155429      -24.7948864231       22.4931694130  TIP3      535             0.0000000000
     12766       632  TIP3      OH2            19.1879964185      -24.3661399461       26.5861427256  TIP3      536             0.0000000000
     12767       632  TIP3      H1             20.0932203592      -24.2336884006       26.2530883698  TIP3      536             0.0000000000
     12768       632  TIP3      H2             19.4191770679      -24.5635334789       27.5217986629  TIP3      536             0.0000000000
     12769       633  TIP3      OH2            23.9921381641      -25.1609235750       28.9103947781  TIP3      537             0.0000000000
     12770       633  TIP3      H1             24.6947986043      -24.7196743676       28.3832083057  TIP3      537             0.0000000000
     12771       633  TIP3      H2             23.8816540362      -25.9705233883       28.3892291556  TIP3      537             0.0000000000
     12772       634  TIP3      OH2            14.8810420528      -23.6099903006       20.8092975431  TIP3      538             0.0000000000
     12773       634  TIP3      H1             15.3483270580      -24.0256094720       20.0742786377  TIP3      538             0.0000000000
     12774       634  TIP3      H2             15.6228751830      -23.1957566059       21.2896243068  TIP3      538             0.0000000000
     12775       635  TIP3      OH2            20.0510479703      -22.5873697447       23.6207071977  TIP3      539             0.0000000000
     12776       635  TIP3      H1             20.1245119257      -23.4062858432       24.1201896696  TIP3      539             0.0000000000
     12777       635  TIP3      H2             20.6899383892      -22.0440507618       24.1504092831  TIP3      539             0.0000000000
     12778       636  TIP3      OH2            14.0838722683      -24.6719484040       36.3860609440  TIP3      540             0.0000000000
     12779       636  TIP3      H1             13.8846089838      -25.5109310190       35.9519656636  TIP3      540             0.0000000000
     12780       636  TIP3      H2             15.0229194816      -24.8271165180       36.6370118391  TIP3      540             0.0000000000
     12781       637  TIP3      OH2            16.4719034430      -25.5477880623       37.6434742033  TIP3      541             0.0000000000
     12782       637  TIP3      H1             17.3433596230      -25.1512982234       37.8388021244  TIP3      541             0.0000000000
     12783       637  TIP3      H2             16.4215724147      -26.2802079641       38.2715610510  TIP3      541             0.0000000000
     12784       638  TIP3      OH2            25.2115096297      -25.5735623067       38.2535686571  TIP3      542             0.0000000000
     12785       638  TIP3      H1             24.6123908080      -26.1460878351       38.7574275012  TIP3      542             0.0000000000
     12786       638  TIP3      H2             26.0653832056      -26.0406569177       38.2657712474  TIP3      542             0.0000000000
     12787       639  TIP3      OH2           -13.4830086340        2.8879031872       26.6798255349  TIP3      543             0.0000000000
     12788       639  TIP3      H1            -13.5188431888        3.8004973552       27.0143303435  TIP3      543             0.0000000000
     12789       639  TIP3      H2            -14.1333541679        2.9661647475       25.9577693447  TIP3      543             0.0000000000
     12790       640  TIP3      OH2           -14.7300299432        1.5125164781       30.0123230598  TIP3      544             0.0000000000
     12791       640  TIP3      H1            -14.8742599113        1.1061662278       30.8851536411  TIP3      544             0.0000000000
     12792       640  TIP3      H2            -15.5536115095        1.2964437892       29.5577193387  TIP3      544             0.0000000000
     12793       641  TIP3      OH2           -22.6666647262        1.9845456331       31.7659498185  TIP3      545             0.0000000000
     12794       641  TIP3      H1            -22.7631942285        1.0545953705       32.0479784527  TIP3      545             0.0000000000
     12795       641  TIP3      H2            -21.8869892618        2.2862272751       32.2644134451  TIP3      545             0.0000000000
     12796       642  TIP3      OH2           -11.8167780521        5.0235864797       29.0133039996  TIP3      546             0.0000000000
     12797       642  TIP3      H1            -11.8375150934        4.2108155876       29.5601075096  TIP3      546             0.0000000000
     12798       642  TIP3      H2            -11.5740843315        5.7184853008       29.6454693985  TIP3      546             0.0000000000
     12799       643  TIP3      OH2           -22.1930812911        6.2286063801       29.8135895561  TIP3      547             0.0000000000
     12800       643  TIP3      H1            -22.2577569102        5.2773688326       29.5569062202  TIP3      547             0.0000000000
     12801       643  TIP3      H2            -21.2980306162        6.1629861342       30.1822570593  TIP3      547             0.0000000000
     12802       644  TIP3      OH2           -25.4193258523       -1.0447915867       26.3706543240  TIP3      548             0.0000000000
     12803       644  TIP3      H1            -25.5602059927       -0.1980889128       26.8307811211  TIP3      548             0.0000000000
     12804       644  TIP3      H2            -25.7049909480       -0.7594905738       25.4750252111  TIP3      548             0.0000000000
     12805       645  TIP3      OH2           -24.2434121045        1.5805513351       26.9896685976  TIP3      549             0.0000000000
     12806       645  TIP3      H1            -23.9224549563        0.9996773673       27.7105444004  TIP3      549             0.0000000000
     12807       645  TIP3      H2            -23.8969288404        2.4319424120       27.2733632893  TIP3      549             0.0000000000
     12808       646  TIP3      OH2           -14.1983642079       10.4756658092       28.6182173354  TIP3      550             0.0000000000
     12809       646  TIP3      H1            -13.6908306965        9.8065255625       28.0968076360  TIP3      550             0.0000000000
     12810       646  TIP3      H2            -14.5562822354        9.9047182402       29.3133662503  TIP3      550             0.0000000000
     12811       647  TIP3      OH2           -16.8858592709        4.2564207382       31.1315887506  TIP3      551             0.0000000000
     12812       647  TIP3      H1            -16.4449760510        3.9448421402       30.3275128916  TIP3      551             0.0000000000
     12813       647  TIP3      H2            -16.1075539730        4.6380572237       31.5925923004  TIP3      551             0.0000000000
     12814       648  TIP3      OH2            -8.1447180729       -4.2106555443       30.9494917181  TIP3      552             0.0000000000
     12815       648  TIP3      H1             -8.0812904834       -3.5214319976       31.6363604041  TIP3      552             0.0000000000
     12816       648  TIP3      H2             -7.3625176636       -3.9676273900       30.4265597252  TIP3      552             0.0000000000
     12817       649  TIP3      OH2           -13.1618064902       -0.9603291698       31.2746237894  TIP3      553             0.0000000000
     12818       649  TIP3      H1            -13.0791268492       -1.9148349107       31.4198007545  TIP3      553             0.0000000000
     12819       649  TIP3      H2            -13.2565916723       -0.9661005523       30.2949364483  TIP3      553             0.0000000000
     12820       650  TIP3      OH2           -20.0088350537       -3.2073367236       27.8820773152  TIP3      554             0.0000000000
     12821       650  TIP3      H1            -20.1604605407       -2.3062450993       27.5357805738  TIP3      554             0.0000000000
     12822       650  TIP3      H2            -20.7211271364       -3.6992596563       27.4269885939  TIP3      554             0.0000000000
     12823       651  TIP3      OH2           -13.3110799116       -3.0780787281       27.1650919297  TIP3      555             0.0000000000
     12824       651  TIP3      H1            -12.6807523616       -3.4386237873       27.8343406590  TIP3      555             0.0000000000
     12825       651  TIP3      H2            -12.6630008460       -2.6574757232       26.5824716208  TIP3      555             0.0000000000
     12826       652  TIP3      OH2           -23.0236402186       -0.1801687618       28.6339566760  TIP3      556             0.0000000000
     12827       652  TIP3      H1            -23.1459553085       -0.8574933257       29.3157710791  TIP3      556             0.0000000000
     12828       652  TIP3      H2            -22.7975019216       -0.7370238358       27.8608694744  TIP3      556             0.0000000000
     12829       653  TIP3      OH2           -19.0703629975        1.1868378771       28.1008740065  TIP3      557             0.0000000000
     12830       653  TIP3      H1            -18.2868187454        0.7202670878       28.4583788248  TIP3      557             0.0000000000
     12831       653  TIP3      H2            -19.4143929364        0.4612332316       27.5311808188  TIP3      557             0.0000000000
     12832       654  TIP3      OH2            -7.9895297711       -2.7672932978       33.6327558316  TIP3      558             0.0000000000
     12833       654  TIP3      H1             -8.2957448140       -1.8553004168       33.4116104354  TIP3      558             0.0000000000
     12834       654  TIP3      H2             -7.5826461208       -2.6379754148       34.5050187171  TIP3      558             0.0000000000
     12835       655  TIP3      OH2           -21.0731174402       -4.0463114638       32.1708932083  TIP3      559             0.0000000000
     12836       655  TIP3      H1            -21.3734849408       -3.4443732628       31.4547111146  TIP3      559             0.0000000000
     12837       655  TIP3      H2            -21.8721575620       -4.0636837845       32.7250471135  TIP3      559             0.0000000000
     12838       656  TIP3      OH2           -14.5116074751        5.4572460668       25.7484057101  TIP3      560             0.0000000000
     12839       656  TIP3      H1            -14.3755901567        5.6281227738       24.8031563333  TIP3      560             0.0000000000
     12840       656  TIP3      H2            -15.0272014261        6.2378090622       26.0189038452  TIP3      560             0.0000000000
     12841       657  TIP3      OH2           -19.2258003711        3.5570326321       32.3863774470  TIP3      561             0.0000000000
     12842       657  TIP3      H1            -19.7980607964        4.2896475360       32.7236576127  TIP3      561             0.0000000000
     12843       657  TIP3      H2            -18.4835469171        4.0422803055       31.9554855499  TIP3      561             0.0000000000
     12844       658  TIP3      OH2           -11.2259826961       -3.7232323577       28.7513318360  TIP3      562             0.0000000000
     12845       658  TIP3      H1            -11.6336650041       -3.9646315886       29.6004129671  TIP3      562             0.0000000000
     12846       658  TIP3      H2            -10.2829933422       -3.6826499043       28.9434656816  TIP3      562             0.0000000000
     12847       659  TIP3      OH2           -21.7418423654       -2.0833655135       30.2808867637  TIP3      563             0.0000000000
     12848       659  TIP3      H1            -21.2636136912       -1.3381080555       30.7008664829  TIP3      563             0.0000000000
     12849       659  TIP3      H2            -21.1080502910       -2.3426944383       29.5855977968  TIP3      563             0.0000000000
     12850       660  TIP3      OH2           -20.6052008643        5.8041077113       33.0519794940  TIP3      564             0.0000000000
     12851       660  TIP3      H1            -20.8747086304        6.6911798641       32.7554656881  TIP3      564             0.0000000000
     12852       660  TIP3      H2            -21.3927970443        5.6297656009       33.5983599127  TIP3      564             0.0000000000
     12853       661  TIP3      OH2           -24.6768092912        4.6498234073       24.5567000210  TIP3      565             0.0000000000
     12854       661  TIP3      H1            -24.4120145096        5.1063378621       23.7308188672  TIP3      565             0.0000000000
     12855       661  TIP3      H2            -24.3869079313        5.3159629538       25.1978197368  TIP3      565             0.0000000000
     12856       662  TIP3      OH2           -11.0266733801        7.2037551069       30.8653183547  TIP3      566             0.0000000000
     12857       662  TIP3      H1            -11.9668792488        7.2544042507       31.1354443904  TIP3      566             0.0000000000
     12858       662  TIP3      H2            -11.0235208215        7.9373575820       30.2387526791  TIP3      566             0.0000000000
     12859       663  TIP3      OH2           -10.8243792513       -4.3004213396       32.3398186426  TIP3      567             0.0000000000
     12860       663  TIP3      H1            -11.5022146964       -3.7692843594       31.8914961315  TIP3      567             0.0000000000
     12861       663  TIP3      H2            -10.0892983829       -4.2214011262       31.7149513610  TIP3      567             0.0000000000
     12862       664  TIP3      OH2           -17.8428481634       -6.5976921633       29.7118304128  TIP3      568             0.0000000000
     12863       664  TIP3      H1            -18.0787613970       -7.5296362747       29.6338354315  TIP3      568             0.0000000000
     12864       664  TIP3      H2            -18.7420191019       -6.2108250065       29.8714815385  TIP3      568             0.0000000000
     12865       665  TIP3      OH2           -12.4862431915        8.8269916588       27.1411130225  TIP3      569             0.0000000000
     12866       665  TIP3      H1            -12.1772168986        7.9964784262       26.7100274726  TIP3      569             0.0000000000
     12867       665  TIP3      H2            -11.6503316605        9.3428848567       27.1225323355  TIP3      569             0.0000000000
     12868       666  TIP3      OH2           -11.4001002189        6.6442298272       26.1132706663  TIP3      570             0.0000000000
     12869       666  TIP3      H1            -11.3784141107        5.9724227743       25.4025457070  TIP3      570             0.0000000000
     12870       666  TIP3      H2            -11.6260404497        6.0734203243       26.8628519102  TIP3      570             0.0000000000
     12871       667  TIP3      OH2            -9.8035316408        5.3634008074       34.5388638919  TIP3      571             0.0000000000
     12872       667  TIP3      H1             -9.7830524352        4.5715745873       33.9520210892  TIP3      571             0.0000000000
     12873       667  TIP3      H2             -9.6032721011        6.0657304600       33.8935190524  TIP3      571             0.0000000000
     12874       668  TIP3      OH2           -15.1625648116        2.4226736689       24.1004387370  TIP3      572             0.0000000000
     12875       668  TIP3      H1            -15.9561746398        2.9920393272       24.0415491647  TIP3      572             0.0000000000
     12876       668  TIP3      H2            -15.1983331772        1.9684854247       23.2208638780  TIP3      572             0.0000000000
     12877       669  TIP3      OH2            -7.6040391399        1.6513824491       32.3529848620  TIP3      573             0.0000000000
     12878       669  TIP3      H1             -8.1810657678        2.4174044214       32.5392293055  TIP3      573             0.0000000000
     12879       669  TIP3      H2             -7.0706514215        2.0233024365       31.6241566156  TIP3      573             0.0000000000
     12880       670  TIP3      OH2           -11.3331761023        2.2157861797       25.0996928044  TIP3      574             0.0000000000
     12881       670  TIP3      H1            -12.1360771843        2.3840653517       25.6399420159  TIP3      574             0.0000000000
     12882       670  TIP3      H2            -10.8470864908        1.5934530170       25.6749164094  TIP3      574             0.0000000000
     12883       671  TIP3      OH2           -11.5446011322        0.7110054341       34.1566682585  TIP3      575             0.0000000000
     12884       671  TIP3      H1            -11.8020392079        1.5886769679       34.4703785946  TIP3      575             0.0000000000
     12885       671  TIP3      H2            -12.1386778102        0.6499726254       33.3886667359  TIP3      575             0.0000000000
     12886       672  TIP3      OH2           -20.7521837049        2.6775195303       26.7826739210  TIP3      576             0.0000000000
     12887       672  TIP3      H1            -20.1825278015        2.9476236054       26.0496062433  TIP3      576             0.0000000000
     12888       672  TIP3      H2            -20.1043155511        2.1806699264       27.3233975432  TIP3      576             0.0000000000
     12889       673  TIP3      OH2           -18.7489110729        6.3078775000       29.9111976270  TIP3      577             0.0000000000
     12890       673  TIP3      H1            -18.6928215657        6.1472595672       28.9589130414  TIP3      577             0.0000000000
     12891       673  TIP3      H2            -18.1299714935        5.6509783697       30.2805752874  TIP3      577             0.0000000000
     12892       674  TIP3      OH2           -19.7597201666        1.4324608060       30.7175879565  TIP3      578             0.0000000000
     12893       674  TIP3      H1            -19.6341660465        1.6222805971       29.7664190790  TIP3      578             0.0000000000
     12894       674  TIP3      H2            -19.3467167792        2.2085368630       31.1482800167  TIP3      578             0.0000000000
     12895       675  TIP3      OH2           -13.6325816528        7.3607082285       31.3665769525  TIP3      579             0.0000000000
     12896       675  TIP3      H1            -13.9233991496        7.9760896789       32.0700740467  TIP3      579             0.0000000000
     12897       675  TIP3      H2            -13.7644014149        6.4814490605       31.7804232556  TIP3      579             0.0000000000
     12898       676  TIP3      OH2           -19.2625761365        5.8550859763       35.3717826370  TIP3      580             0.0000000000
     12899       676  TIP3      H1            -19.7390477216        6.5680907253       35.8555840216  TIP3      580             0.0000000000
     12900       676  TIP3      H2            -19.7540075896        5.8043011636       34.5232026137  TIP3      580             0.0000000000
     12901       677  TIP3      OH2           -21.9927529812        2.7709623840       34.6774161477  TIP3      581             0.0000000000
     12902       677  TIP3      H1            -22.2019863655        3.2394067898       35.4990177367  TIP3      581             0.0000000000
     12903       677  TIP3      H2            -22.8470615987        2.3463937801       34.4506137607  TIP3      581             0.0000000000
     12904       678  TIP3      OH2           -15.8071573043        8.1966782113       25.7660529638  TIP3      582             0.0000000000
     12905       678  TIP3      H1            -15.2150539806        8.9008385993       26.0599796401  TIP3      582             0.0000000000
     12906       678  TIP3      H2            -16.6545550067        8.6664726879       25.7540000607  TIP3      582             0.0000000000
     12907       679  TIP3      OH2           -20.4273263360        8.0965373360       36.4896510777  TIP3      583             0.0000000000
     12908       679  TIP3      H1            -20.4079850163        8.9015241169       35.9123590857  TIP3      583             0.0000000000
     12909       679  TIP3      H2            -21.3816936946        7.9254554248       36.6092959044  TIP3      583             0.0000000000
     12910       680  TIP3      OH2           -24.9888376677        4.4804978259       33.7546575658  TIP3      584             0.0000000000
     12911       680  TIP3      H1            -25.7886633628        4.7740300041       33.2873234521  TIP3      584             0.0000000000
     12912       680  TIP3      H2            -24.5575043910        3.9591923515       33.0512793026  TIP3      584             0.0000000000
     12913       681  TIP3      OH2           -24.8785997714        7.2594826953       29.5660133197  TIP3      585             0.0000000000
     12914       681  TIP3      H1            -24.1033697252        6.6646120364       29.6528056339  TIP3      585             0.0000000000
     12915       681  TIP3      H2            -25.0667330525        7.4838306003       30.4956362141  TIP3      585             0.0000000000
     12916       682  TIP3      OH2            -7.1148383124        7.6615277494       35.8478831642  TIP3      586             0.0000000000
     12917       682  TIP3      H1             -7.1886274208        6.7043700705       35.9929261232  TIP3      586             0.0000000000
     12918       682  TIP3      H2             -7.9766267901        7.8657370718       36.2666713320  TIP3      586             0.0000000000
     12919       683  TIP3      OH2           -16.0364862772        7.1063238042       35.1844398333  TIP3      587             0.0000000000
     12920       683  TIP3      H1            -15.9746570735        8.0153126431       35.5324364895  TIP3      587             0.0000000000
     12921       683  TIP3      H2            -16.9293359635        7.0899298843       34.7874084280  TIP3      587             0.0000000000
     12922       684  TIP3      OH2           -15.7127448404       11.2036881633       24.4419209171  TIP3      588             0.0000000000
     12923       684  TIP3      H1            -15.7440364284       11.4497833003       23.4874009791  TIP3      588             0.0000000000
     12924       684  TIP3      H2            -15.8129622605       12.0931024383       24.8389441347  TIP3      588             0.0000000000
     12925       685  TIP3      OH2           -22.0593604806        9.7090683343       26.5716663668  TIP3      589             0.0000000000
     12926       685  TIP3      H1            -21.8765528904        9.3145092232       27.4571970690  TIP3      589             0.0000000000
     12927       685  TIP3      H2            -22.8840934069        9.2711188914       26.2794358555  TIP3      589             0.0000000000
     12928       686  TIP3      OH2           -13.1234952171       10.4007529403       24.8057138899  TIP3      590             0.0000000000
     12929       686  TIP3      H1            -14.0552812052       10.6327509982       24.5989910642  TIP3      590             0.0000000000
     12930       686  TIP3      H2            -13.1707187083        9.4549641609       24.9884101894  TIP3      590             0.0000000000
     12931       687  TIP3      OH2           -10.7017454295       -0.7031225808       36.4221753594  TIP3      591             0.0000000000
     12932       687  TIP3      H1            -11.0818237227       -0.1541970642       35.7017402356  TIP3      591             0.0000000000
     12933       687  TIP3      H2            -10.8606513798       -1.5987998682       36.0724296660  TIP3      591             0.0000000000
     12934       688  TIP3      OH2           -22.9332255649        6.1169672160       34.5561839160  TIP3      592             0.0000000000
     12935       688  TIP3      H1            -22.8977541311        5.6623448081       35.4217285817  TIP3      592             0.0000000000
     12936       688  TIP3      H2            -23.7392989414        5.7190866110       34.1666786310  TIP3      592             0.0000000000
     12937       689  TIP3      OH2           -20.2846258028       -5.5764864117       30.1595075959  TIP3      593             0.0000000000
     12938       689  TIP3      H1            -21.2514566915       -5.5990541175       29.9831791242  TIP3      593             0.0000000000
     12939       689  TIP3      H2            -20.2833112749       -5.1582897385       31.0461433647  TIP3      593             0.0000000000
     12940       690  TIP3      OH2           -15.4745752960       -6.0274204616       33.7022476229  TIP3      594             0.0000000000
     12941       690  TIP3      H1            -15.2083809215       -6.2962504438       34.5955049524  TIP3      594             0.0000000000
     12942       690  TIP3      H2            -16.4388442458       -6.2403654164       33.7103446474  TIP3      594             0.0000000000
     12943       691  TIP3      OH2           -12.3987629091       -2.2051305748       34.4891315408  TIP3      595             0.0000000000
     12944       691  TIP3      H1            -12.9195568079       -2.4201758214       35.3037706258  TIP3      595             0.0000000000
     12945       691  TIP3      H2            -12.8159408753       -1.3729366053       34.2065655249  TIP3      595             0.0000000000
     12946       692  TIP3      OH2           -11.3085673314        3.0827283587       21.2727860856  TIP3      596             0.0000000000
     12947       692  TIP3      H1            -11.8858438225        2.3206229521       21.0821375632  TIP3      596             0.0000000000
     12948       692  TIP3      H2            -10.8027227490        2.7575947401       22.0455565704  TIP3      596             0.0000000000
     12949       693  TIP3      OH2           -19.7828270232       -0.9659639849       31.7594178127  TIP3      597             0.0000000000
     12950       693  TIP3      H1            -20.5572081822       -0.7665551134       32.3257924790  TIP3      597             0.0000000000
     12951       693  TIP3      H2            -19.6967010453       -0.0792974049       31.3278521002  TIP3      597             0.0000000000
     12952       694  TIP3      OH2           -20.1477921734       -0.7873263036       26.5404265769  TIP3      598             0.0000000000
     12953       694  TIP3      H1            -21.0719106087       -1.0186539009       26.3170778733  TIP3      598             0.0000000000
     12954       694  TIP3      H2            -19.6992181300       -0.8216516785       25.6674199071  TIP3      598             0.0000000000
     12955       695  TIP3      OH2           -14.5725371796        0.0539328030       25.5190617799  TIP3      599             0.0000000000
     12956       695  TIP3      H1            -14.9178740859        0.8558305310       25.0907769440  TIP3      599             0.0000000000
     12957       695  TIP3      H2            -13.8306340256       -0.1580534979       24.9436541485  TIP3      599             0.0000000000
     12958       696  TIP3      OH2           -16.0948017091        0.2689531336       37.2694763843  TIP3      600             0.0000000000
     12959       696  TIP3      H1            -16.2907901584       -0.6928035593       37.3453060426  TIP3      600             0.0000000000
     12960       696  TIP3      H2            -15.2201882851        0.2843851543       37.7245985878  TIP3      600             0.0000000000
     12961       697  TIP3      OH2           -13.4219446176       -0.6652462656       28.6278706718  TIP3      601             0.0000000000
     12962       697  TIP3      H1            -13.6653253125        0.2227398910       28.3025060747  TIP3      601             0.0000000000
     12963       697  TIP3      H2            -13.6066334182       -1.2137989352       27.8431032179  TIP3      601             0.0000000000
     12964       698  TIP3      OH2           -22.5286146148       -0.7357665667       32.6565816184  TIP3      602             0.0000000000
     12965       698  TIP3      H1            -22.1775549960       -0.3703286903       33.4883416136  TIP3      602             0.0000000000
     12966       698  TIP3      H2            -22.8643411847       -1.6082516907       32.9565623404  TIP3      602             0.0000000000
     12967       699  TIP3      OH2           -25.0516695817       -4.0922644230       27.4052110341  TIP3      603             0.0000000000
     12968       699  TIP3      H1            -24.6160384524       -3.8267665113       28.2436250576  TIP3      603             0.0000000000
     12969       699  TIP3      H2            -24.3262210132       -4.1098496947       26.7661569734  TIP3      603             0.0000000000
     12970       700  TIP3      OH2           -24.3150634852       -2.1742399340       22.4466505233  TIP3      604             0.0000000000
     12971       700  TIP3      H1            -23.5604638515       -1.6801253338       22.0202945632  TIP3      604             0.0000000000
     12972       700  TIP3      H2            -24.6482729948       -2.6367995391       21.6566126971  TIP3      604             0.0000000000
     12973       701  TIP3      OH2           -14.2376131712        1.0582648947       32.8098480053  TIP3      605             0.0000000000
     12974       701  TIP3      H1            -13.7478862544        0.3789608788       32.3074591175  TIP3      605             0.0000000000
     12975       701  TIP3      H2            -14.8656406577        0.4932213127       33.3196652634  TIP3      605             0.0000000000
     12976       702  TIP3      OH2           -17.2215739081       -3.5606959626       27.9543542808  TIP3      606             0.0000000000
     12977       702  TIP3      H1            -18.2015206431       -3.4240839185       27.9050475041  TIP3      606             0.0000000000
     12978       702  TIP3      H2            -17.0409475279       -3.2992431189       28.8652473953  TIP3      606             0.0000000000
     12979       703  TIP3      OH2           -22.7173870802       -1.4173282959       26.2875836654  TIP3      607             0.0000000000
     12980       703  TIP3      H1            -23.6972641840       -1.3499267890       26.1907123688  TIP3      607             0.0000000000
     12981       703  TIP3      H2            -22.5829385396       -2.3868788255       26.1524999124  TIP3      607             0.0000000000
     12982       704  TIP3      OH2           -18.9759327587       -1.0064376273       23.9551728455  TIP3      608             0.0000000000
     12983       704  TIP3      H1            -18.1274099085       -1.3723006452       24.3098358900  TIP3      608             0.0000000000
     12984       704  TIP3      H2            -18.8935418977       -1.2824753604       23.0301751976  TIP3      608             0.0000000000
     12985       705  TIP3      OH2           -13.1346737742       -3.9985928309       30.7982461533  TIP3      609             0.0000000000
     12986       705  TIP3      H1            -13.8408519955       -4.0660087585       31.4576780584  TIP3      609             0.0000000000
     12987       705  TIP3      H2            -13.4393075311       -4.6854673660       30.1676532073  TIP3      609             0.0000000000
     12988       706  TIP3      OH2           -10.1629840255       11.7076763143       37.3335658340  TIP3      610             0.0000000000
     12989       706  TIP3      H1             -9.8139552450       12.5837455946       37.0925046703  TIP3      610             0.0000000000
     12990       706  TIP3      H2             -9.5134839995       11.4342463150       37.9933824319  TIP3      610             0.0000000000
     12991       707  TIP3      OH2           -23.0291057179        4.8919905214       36.9989142724  TIP3      611             0.0000000000
     12992       707  TIP3      H1            -22.1609257451        4.6509728263       37.4113516608  TIP3      611             0.0000000000
     12993       707  TIP3      H2            -23.6774201120        4.4545782723       37.5839340608  TIP3      611             0.0000000000
     12994       708  TIP3      OH2           -16.8762058274       -0.3813594495       29.1264755758  TIP3      612             0.0000000000
     12995       708  TIP3      H1            -15.9915190008       -0.7334637289       28.9118764346  TIP3      612             0.0000000000
     12996       708  TIP3      H2            -17.1609334152       -0.9857082108       29.8316515766  TIP3      612             0.0000000000
     12997       709  TIP3      OH2           -21.9547789882       -3.9911870515       26.2302265808  TIP3      613             0.0000000000
     12998       709  TIP3      H1            -22.2665672036       -4.8393855615       26.6250775681  TIP3      613             0.0000000000
     12999       709  TIP3      H2            -21.3648481190       -4.3316671490       25.5318605192  TIP3      613             0.0000000000
     13000       710  TIP3      OH2           -17.4599489992       -2.3072804767       31.6770464951  TIP3      614             0.0000000000
     13001       710  TIP3      H1            -18.3032819332       -1.8017642584       31.6920690450  TIP3      614             0.0000000000
     13002       710  TIP3      H2            -16.9479838602       -1.8410328387       32.3516785497  TIP3      614             0.0000000000
     13003       711  TIP3      OH2           -17.4029575223        3.9353068198       24.0635988231  TIP3      615             0.0000000000
     13004       711  TIP3      H1            -17.9126218037        4.4806781037       23.4418455623  TIP3      615             0.0000000000
     13005       711  TIP3      H2            -17.7597626673        4.2938590415       24.9144573395  TIP3      615             0.0000000000
     13006       712  TIP3      OH2            -9.4916258232        3.6693047219       32.4968296589  TIP3      616             0.0000000000
     13007       712  TIP3      H1             -9.0653806996        4.2547599044       31.8274645307  TIP3      616             0.0000000000
     13008       712  TIP3      H2            -10.3197577302        3.4704595108       32.0319452738  TIP3      616             0.0000000000
     13009       713  TIP3      OH2           -15.9672482120        4.4193675459       34.8819925461  TIP3      617             0.0000000000
     13010       713  TIP3      H1            -16.4216470940        4.2909396494       35.7287960650  TIP3      617             0.0000000000
     13011       713  TIP3      H2            -15.9064730764        5.3963845675       34.9039524701  TIP3      617             0.0000000000
     13012       714  TIP3      OH2           -21.1894377913        3.7871081837       29.3102296937  TIP3      618             0.0000000000
     13013       714  TIP3      H1            -21.0545221065        3.4607726533       28.3984873717  TIP3      618             0.0000000000
     13014       714  TIP3      H2            -21.3962023799        2.9865958806       29.8181948232  TIP3      618             0.0000000000
     13015       715  TIP3      OH2           -15.0053423186        5.7620239931       23.0457020748  TIP3      619             0.0000000000
     13016       715  TIP3      H1            -15.6433244774        6.4103517753       23.3972698435  TIP3      619             0.0000000000
     13017       715  TIP3      H2            -15.5012085136        4.9354917146       23.2041059428  TIP3      619             0.0000000000
     13018       716  TIP3      OH2           -24.4739305058        1.5300431685       34.4776714206  TIP3      620             0.0000000000
     13019       716  TIP3      H1            -24.6132061417        1.7435756483       35.4245454953  TIP3      620             0.0000000000
     13020       716  TIP3      H2            -25.3852624851        1.2797980204       34.2178707835  TIP3      620             0.0000000000
     13021       717  TIP3      OH2           -18.4487324373        1.6168610780       36.3706598157  TIP3      621             0.0000000000
     13022       717  TIP3      H1            -18.6946204975        1.5066031516       35.4435018826  TIP3      621             0.0000000000
     13023       717  TIP3      H2            -17.6342544737        1.0673638922       36.4175853185  TIP3      621             0.0000000000
     13024       718  TIP3      OH2           -13.0079308008        6.9262771429       34.9706242135  TIP3      622             0.0000000000
     13025       718  TIP3      H1            -13.9308709919        6.9318641019       34.6735343750  TIP3      622             0.0000000000
     13026       718  TIP3      H2            -13.1817877220        7.2604803536       35.8777885295  TIP3      622             0.0000000000
     13027       719  TIP3      OH2            -7.4621980382        4.7876518063       35.7929287462  TIP3      623             0.0000000000
     13028       719  TIP3      H1             -8.2783905324        5.0429764358       35.3065651571  TIP3      623             0.0000000000
     13029       719  TIP3      H2             -6.8126045218        4.7651361975       35.0660059062  TIP3      623             0.0000000000
     13030       720  TIP3      OH2            -9.3157541930        7.8814648312       23.9424715608  TIP3      624             0.0000000000
     13031       720  TIP3      H1             -9.6532268837        6.9875109375       24.0730774622  TIP3      624             0.0000000000
     13032       720  TIP3      H2             -9.0414151323        7.9064355597       23.0195145263  TIP3      624             0.0000000000
     13033       721  TIP3      OH2           -12.1206186741        2.6980599523       30.6109435931  TIP3      625             0.0000000000
     13034       721  TIP3      H1            -13.0071065345        2.4169231948       30.3161966105  TIP3      625             0.0000000000
     13035       721  TIP3      H2            -11.5797782557        2.0123488984       30.1650478952  TIP3      625             0.0000000000
     13036       722  TIP3      OH2           -19.6596129434        7.1124493233       26.6395705777  TIP3      626             0.0000000000
     13037       722  TIP3      H1            -19.2780547307        7.9153051647       26.2316194343  TIP3      626             0.0000000000
     13038       722  TIP3      H2            -20.5277150724        7.4300501284       26.9150054018  TIP3      626             0.0000000000
     13039       723  TIP3      OH2           -18.4152766972        4.7489449917       26.4279088531  TIP3      627             0.0000000000
     13040       723  TIP3      H1            -18.8763377046        5.6222568184       26.3931115444  TIP3      627             0.0000000000
     13041       723  TIP3      H2            -18.6053720560        4.4247674692       27.3114525483  TIP3      627             0.0000000000
     13042       724  TIP3      OH2           -17.8709239776        8.8863051776       33.0069721867  TIP3      628             0.0000000000
     13043       724  TIP3      H1            -17.1310832229        9.4608330110       32.7496436431  TIP3      628             0.0000000000
     13044       724  TIP3      H2            -18.0744839358        9.2002827462       33.9095863428  TIP3      628             0.0000000000
     13045       725  TIP3      OH2           -19.3969890004        9.6414374844       25.7494439480  TIP3      629             0.0000000000
     13046       725  TIP3      H1            -20.3278851085        9.6406603464       26.0585468837  TIP3      629             0.0000000000
     13047       725  TIP3      H2            -19.1599441705       10.5605215463       25.9602174925  TIP3      629             0.0000000000
     13048       726  TIP3      OH2           -14.5045678970        4.7842778274       32.2801533413  TIP3      630             0.0000000000
     13049       726  TIP3      H1            -14.7588177106        4.3576196423       33.1260592082  TIP3      630             0.0000000000
     13050       726  TIP3      H2            -13.9075850535        4.1089065066       31.9059314341  TIP3      630             0.0000000000
     13051       727  TIP3      OH2           -12.1306505715        5.9429977687       22.0080134032  TIP3      631             0.0000000000
     13052       727  TIP3      H1            -11.8412190822        5.4817901284       22.8307855668  TIP3      631             0.0000000000
     13053       727  TIP3      H2            -13.0656977217        6.0229391708       22.2675364776  TIP3      631             0.0000000000
     13054       728  TIP3      OH2           -11.0657744396        9.0055107417       34.8007295788  TIP3      632             0.0000000000
     13055       728  TIP3      H1            -11.8611767329        8.4268924523       34.8357058016  TIP3      632             0.0000000000
     13056       728  TIP3      H2            -11.3441558714        9.7123815463       34.1722196709  TIP3      632             0.0000000000
     13057       729  TIP3      OH2            -7.6622469883       10.3104058447       22.1668630024  TIP3      633             0.0000000000
     13058       729  TIP3      H1             -7.1387966586       10.6146450414       21.4128975516  TIP3      633             0.0000000000
     13059       729  TIP3      H2             -8.3472380100       11.0148421659       22.2394485451  TIP3      633             0.0000000000
     13060       730  TIP3      OH2           -23.2329732852       -3.0514060718       33.9035631801  TIP3      634             0.0000000000
     13061       730  TIP3      H1            -24.0569843703       -2.6377941034       34.2530040523  TIP3      634             0.0000000000
     13062       730  TIP3      H2            -23.1398449037       -3.7731663902       34.5481636050  TIP3      634             0.0000000000
     13063       731  TIP3      OH2           -11.1555002141        4.7417437041       24.2051928856  TIP3      635             0.0000000000
     13064       731  TIP3      H1            -11.2734041482        3.8410076663       24.5856679200  TIP3      635             0.0000000000
     13065       731  TIP3      H2            -10.1776902437        4.7364025016       24.1289022930  TIP3      635             0.0000000000
     13066       732  TIP3      OH2           -23.8307071723        8.4049760063       32.4230645289  TIP3      636             0.0000000000
     13067       732  TIP3      H1            -22.9410693775        8.0280176268       32.4923666998  TIP3      636             0.0000000000
     13068       732  TIP3      H2            -23.7842507799        9.0407744848       33.1684893380  TIP3      636             0.0000000000
     13069       733  TIP3      OH2           -18.2941402253        6.3007745262       22.6847194238  TIP3      637             0.0000000000
     13070       733  TIP3      H1            -18.9490956421        5.9920833665       22.0103507132  TIP3      637             0.0000000000
     13071       733  TIP3      H2            -18.6402523678        7.1946976093       22.8555631592  TIP3      637             0.0000000000
     13072       734  TIP3      OH2           -14.6772339248       -3.4490010131       33.7192716350  TIP3      638             0.0000000000
     13073       734  TIP3      H1            -13.7088910076       -3.4367759669       33.8576766366  TIP3      638             0.0000000000
     13074       734  TIP3      H2            -14.9135155869       -4.4016588378       33.8044120622  TIP3      638             0.0000000000
     13075       735  TIP3      OH2           -14.1346854924       -4.3698096381       24.7708164193  TIP3      639             0.0000000000
     13076       735  TIP3      H1            -14.6236984095       -3.9738922456       24.0416040971  TIP3      639             0.0000000000
     13077       735  TIP3      H2            -13.3003818004       -3.8801956753       24.7361514153  TIP3      639             0.0000000000
     13078       736  TIP3      OH2           -16.9544854546       -1.8893961712       25.6047345779  TIP3      640             0.0000000000
     13079       736  TIP3      H1            -16.1636476586       -1.3332056212       25.4558505781  TIP3      640             0.0000000000
     13080       736  TIP3      H2            -16.7149285361       -2.4407809482       26.3727817583  TIP3      640             0.0000000000
     13081       737  TIP3      OH2           -15.4852236475       -0.7852905130       34.3520520043  TIP3      641             0.0000000000
     13082       737  TIP3      H1            -15.5502670798       -0.5412292613       35.2912000282  TIP3      641             0.0000000000
     13083       737  TIP3      H2            -15.3644416784       -1.7531453925       34.3938985414  TIP3      641             0.0000000000
     13084       738  TIP3      OH2           -15.9336996994       -5.5963439271       26.3920570044  TIP3      642             0.0000000000
     13085       738  TIP3      H1            -16.2778886131       -4.8129754156       26.8783723698  TIP3      642             0.0000000000
     13086       738  TIP3      H2            -15.3012044125       -5.1228445874       25.8067714578  TIP3      642             0.0000000000
     13087       739  TIP3      OH2           -18.4314697466        9.2289321052       23.2140995110  TIP3      643             0.0000000000
     13088       739  TIP3      H1            -18.0472654291       10.0624698756       22.8988740223  TIP3      643             0.0000000000
     13089       739  TIP3      H2            -18.8534011321        9.4952451017       24.0603779364  TIP3      643             0.0000000000
     13090       740  TIP3      OH2           -10.1739782942       -3.4566248444       35.2094996746  TIP3      644             0.0000000000
     13091       740  TIP3      H1            -11.0264512295       -3.1244614024       34.8506742279  TIP3      644             0.0000000000
     13092       740  TIP3      H2             -9.5663879121       -3.2129033404       34.4846630019  TIP3      644             0.0000000000
     13093       741  TIP3      OH2           -10.9744139165        0.5206751181       29.2477327325  TIP3      645             0.0000000000
     13094       741  TIP3      H1            -11.7128746341       -0.1091804043       29.1741002572  TIP3      645             0.0000000000
     13095       741  TIP3      H2            -10.3269300937        0.0118169902       29.7857318598  TIP3      645             0.0000000000
     13096       742  TIP3      OH2           -10.1391334329       10.1699253597       30.8121466161  TIP3      646             0.0000000000
     13097       742  TIP3      H1            -10.2131772745       10.1912308619       29.8362467751  TIP3      646             0.0000000000
     13098       742  TIP3      H2             -9.2951934277        9.7043268592       30.9370547888  TIP3      646             0.0000000000
     13099       743  TIP3      OH2           -22.8737217201       -5.9826789888       29.7678894601  TIP3      647             0.0000000000
     13100       743  TIP3      H1            -22.9145431175       -6.1533788776       28.8015669920  TIP3      647             0.0000000000
     13101       743  TIP3      H2            -23.1744902644       -6.8680570845       30.0871960569  TIP3      647             0.0000000000
     13102       744  TIP3      OH2           -23.7279935926        7.2969025155       25.2411591375  TIP3      648             0.0000000000
     13103       744  TIP3      H1            -24.3997188005        7.9165341937       24.9006185547  TIP3      648             0.0000000000
     13104       744  TIP3      H2            -23.1001020414        7.2917876962       24.5111275840  TIP3      648             0.0000000000
     13105       745  TIP3      OH2           -24.6566603525       11.1986807243       37.6426429523  TIP3      649             0.0000000000
     13106       745  TIP3      H1            -23.8743205005       11.3061536556       38.2266346760  TIP3      649             0.0000000000
     13107       745  TIP3      H2            -24.4231728295       10.3319224879       37.2710597410  TIP3      649             0.0000000000
     13108       746  TIP3      OH2           -19.5838500402        9.2564174809       38.8029715428  TIP3      650             0.0000000000
     13109       746  TIP3      H1            -18.6701807286        8.9489473623       38.7825422549  TIP3      650             0.0000000000
     13110       746  TIP3      H2            -19.9553403912        8.7959953844       38.0278624058  TIP3      650             0.0000000000
     13111       747  TIP3      OH2           -13.7622754730        7.8898249960       37.3515690594  TIP3      651             0.0000000000
     13112       747  TIP3      H1            -14.0173639752        7.0101050367       37.7282718145  TIP3      651             0.0000000000
     13113       747  TIP3      H2            -12.9338688375        8.0889618408       37.8460577106  TIP3      651             0.0000000000
     13114       748  TIP3      OH2           -25.5166494791        4.0324728784       38.4268336044  TIP3      652             0.0000000000
     13115       748  TIP3      H1            -25.1995242791        3.2295467060       37.9709684069  TIP3      652             0.0000000000
     13116       748  TIP3      H2            -26.3543940172        4.1845723019       37.9587232819  TIP3      652             0.0000000000
     13117       749  TIP3      OH2           -17.8905739166        4.2770693093       37.0207777322  TIP3      653             0.0000000000
     13118       749  TIP3      H1            -18.2911283839        4.8244490864       36.2985696973  TIP3      653             0.0000000000
     13119       749  TIP3      H2            -17.9617698327        3.3565078687       36.6768773853  TIP3      653             0.0000000000
     13120       750  TIP3      OH2           -12.2604561828        4.1765585025       34.9568114244  TIP3      654             0.0000000000
     13121       750  TIP3      H1            -11.3775590867        4.5908414375       35.0376069227  TIP3      654             0.0000000000
     13122       750  TIP3      H2            -12.7881193511        4.9959938660       34.8644892977  TIP3      654             0.0000000000
     13123       751  TIP3      OH2           -24.4045706935        1.8234265985       37.3046719009  TIP3      655             0.0000000000
     13124       751  TIP3      H1            -23.4781297304        1.5430120231       37.2240672967  TIP3      655             0.0000000000
     13125       751  TIP3      H2            -24.6149508881        1.4015055115       38.1624931107  TIP3      655             0.0000000000
     13126       752  TIP3      OH2           -19.5056476768        2.2246633957       22.7110426937  TIP3      656             0.0000000000
     13127       752  TIP3      H1            -18.5656347540        2.1094369128       22.9159654267  TIP3      656             0.0000000000
     13128       752  TIP3      H2            -19.5367489043        2.2720613324       21.7365931671  TIP3      656             0.0000000000
     13129       753  TIP3      OH2           -20.3719070210        0.6436102698       33.8956540405  TIP3      657             0.0000000000
     13130       753  TIP3      H1            -20.6223360521        1.5687233058       34.1210161554  TIP3      657             0.0000000000
     13131       753  TIP3      H2            -19.4775019722        0.7992404905       33.5284077329  TIP3      657             0.0000000000
     13132       754  TIP3      OH2           -14.7353844199        3.2840511684       38.3307784483  TIP3      658             0.0000000000
     13133       754  TIP3      H1            -14.1799585475        2.6691813420       37.8128284920  TIP3      658             0.0000000000
     13134       754  TIP3      H2            -15.4550022440        2.7333531450       38.6710993575  TIP3      658             0.0000000000
     13135       755  TIP3      OH2           -19.6262965568       -1.2034837455       35.8340431625  TIP3      659             0.0000000000
     13136       755  TIP3      H1            -19.2506340437       -2.0002160892       35.4076563722  TIP3      659             0.0000000000
     13137       755  TIP3      H2            -19.9262701542       -0.6714542076       35.0623837418  TIP3      659             0.0000000000
     13138       756  TIP3      OH2           -18.7732828253       -3.7689837387       33.6984299685  TIP3      660             0.0000000000
     13139       756  TIP3      H1            -18.2557933644       -3.4809234599       32.9179964304  TIP3      660             0.0000000000
     13140       756  TIP3      H2            -19.6657326622       -3.7867067218       33.3011979558  TIP3      660             0.0000000000
     13141       757  TIP3      OH2           -17.6244998551        1.7885391438       33.7197144769  TIP3      661             0.0000000000
     13142       757  TIP3      H1            -16.7276918082        2.1128554547       33.9001688334  TIP3      661             0.0000000000
     13143       757  TIP3      H2            -18.0422750948        2.5432973176       33.2501464536  TIP3      661             0.0000000000
     13144       758  TIP3      OH2           -13.6647880500       -0.3726093549       38.7155603013  TIP3      662             0.0000000000
     13145       758  TIP3      H1            -13.4370166291       -1.3053149851       38.6452819670  TIP3      662             0.0000000000
     13146       758  TIP3      H2            -12.7883618751        0.0236509302       38.6306085217  TIP3      662             0.0000000000
     13147       759  TIP3      OH2           -12.5996435667        2.0098035072       36.9995373526  TIP3      663             0.0000000000
     13148       759  TIP3      H1            -12.6831104093        2.6586572423       36.2701512004  TIP3      663             0.0000000000
     13149       759  TIP3      H2            -11.6520832247        1.8006980208       36.9455031356  TIP3      663             0.0000000000
     13150       760  TIP3      OH2           -21.0731495225       -0.6535307052       38.1664617746  TIP3      664             0.0000000000
     13151       760  TIP3      H1            -21.5169977202       -1.4976976215       37.9517671967  TIP3      664             0.0000000000
     13152       760  TIP3      H2            -20.5654770868       -0.5116611137       37.3413765447  TIP3      664             0.0000000000
     13153       761  TIP3      OH2           -18.0571239443       -6.4647425713       33.4126884506  TIP3      665             0.0000000000
     13154       761  TIP3      H1            -18.3828406811       -5.5499252924       33.5215092086  TIP3      665             0.0000000000
     13155       761  TIP3      H2            -18.8564026538       -6.9205913105       33.0902893100  TIP3      665             0.0000000000
     13156       762  TIP3      OH2           -16.7337201375       -2.3353365490       37.4767728237  TIP3      666             0.0000000000
     13157       762  TIP3      H1            -17.3617036701       -2.3950261080       38.2239226640  TIP3      666             0.0000000000
     13158       762  TIP3      H2            -17.3507248040       -2.6270555388       36.7846968588  TIP3      666             0.0000000000
     13159       763  TIP3      OH2           -13.9005392719       -2.6113503424       36.7346130444  TIP3      667             0.0000000000
     13160       763  TIP3      H1            -14.8393331926       -2.6490906578       37.0186293764  TIP3      667             0.0000000000
     13161       763  TIP3      H2            -13.4670646238       -3.1993661904       37.3936793581  TIP3      667             0.0000000000
     13162       764  TIP3      OH2           -12.6187152035       -4.2633394726       38.5690925631  TIP3      668             0.0000000000
     13163       764  TIP3      H1            -12.8477321193       -5.2096856965       38.4590828571  TIP3      668             0.0000000000
     13164       764  TIP3      H2            -12.5843510178       -4.1526397529       39.5430817385  TIP3      668             0.0000000000
     13165       765  TIP3      OH2           -22.6520638088       -2.9062343410       37.8416944712  TIP3      669             0.0000000000
     13166       765  TIP3      H1            -22.7341224766       -3.5879110492       37.1543205593  TIP3      669             0.0000000000
     13167       765  TIP3      H2            -23.0089582442       -3.3632424020       38.6200380342  TIP3      669             0.0000000000
     13168       766  TIP3      OH2           -18.4632204490       -6.9473580322       36.9294244365  TIP3      670             0.0000000000
     13169       766  TIP3      H1            -17.9802368184       -7.7620768272       36.7047802105  TIP3      670             0.0000000000
     13170       766  TIP3      H2            -18.3477224100       -6.4278676129       36.1225555922  TIP3      670             0.0000000000
     13171       767  TIP3      OH2           -17.9816996542       -5.6390793131       39.3447648421  TIP3      671             0.0000000000
     13172       767  TIP3      H1            -18.0676066538       -6.3269856610       38.6610967014  TIP3      671             0.0000000000
     13173       767  TIP3      H2            -18.2559459681       -4.8789625131       38.7982606530  TIP3      671             0.0000000000
     13174       768  TIP3      OH2           -23.8229471028        6.0928984672       22.4175302228  TIP3      672             0.0000000000
     13175       768  TIP3      H1            -22.9742880599        6.1814799972       21.9544712873  TIP3      672             0.0000000000
     13176       768  TIP3      H2            -24.4608818651        6.1507460533       21.6887935251  TIP3      672             0.0000000000
     13177       769  TIP3      OH2           -25.2995165887       11.5828627697       25.9567247171  TIP3      673             0.0000000000
     13178       769  TIP3      H1            -26.0753101840       11.2897805374       25.4387304855  TIP3      673             0.0000000000
     13179       769  TIP3      H2            -25.3749498414       11.0046592831       26.7375275772  TIP3      673             0.0000000000
     13180       770  TIP3      OH2           -24.7278670865        9.5447123986       28.2674415621  TIP3      674             0.0000000000
     13181       770  TIP3      H1            -24.6564334532        8.6340005056       28.6675995594  TIP3      674             0.0000000000
     13182       770  TIP3      H2            -24.1350603996       10.0496555737       28.8598219349  TIP3      674             0.0000000000
     13183       771  TIP3      OH2            -7.3491247892       10.8085926629       31.4359978408  TIP3      675             0.0000000000
     13184       771  TIP3      H1             -7.3022067134       10.8146834809       32.4175769656  TIP3      675             0.0000000000
     13185       771  TIP3      H2             -6.5485027194       10.3066202983       31.2097296113  TIP3      675             0.0000000000
     13186       772  TIP3      OH2            -7.9415821812        9.8699235309       34.0336887841  TIP3      676             0.0000000000
     13187       772  TIP3      H1             -8.4761760372        9.1854557049       33.5683619582  TIP3      676             0.0000000000
     13188       772  TIP3      H2             -7.4786391677        9.2914195852       34.6841082766  TIP3      676             0.0000000000
     13189       773  TIP3      OH2            -9.2004412146        5.6914003701       38.6313253398  TIP3      677             0.0000000000
     13190       773  TIP3      H1            -10.0822560543        5.2511314992       38.5657175721  TIP3      677             0.0000000000
     13191       773  TIP3      H2             -9.3177953255        6.3285633190       39.3442292796  TIP3      677             0.0000000000
     13192       774  TIP3      OH2            -8.4853622273        4.4757680538       24.0557121480  TIP3      678             0.0000000000
     13193       774  TIP3      H1             -7.5711621243        4.8346486885       24.1542903380  TIP3      678             0.0000000000
     13194       774  TIP3      H2             -8.3530142005        3.6198604574       24.5018270036  TIP3      678             0.0000000000
     13195       775  TIP3      OH2            -7.5675291372        2.0442969282       26.1463437296  TIP3      679             0.0000000000
     13196       775  TIP3      H1             -8.3692855172        1.6721806848       26.5736856559  TIP3      679             0.0000000000
     13197       775  TIP3      H2             -7.0025140598        2.2647526561       26.9151217025  TIP3      679             0.0000000000
     13198       776  TIP3      OH2            -8.1850867576        4.9262759231       30.6165002009  TIP3      680             0.0000000000
     13199       776  TIP3      H1             -7.4863615874        4.3008358301       30.3227348851  TIP3      680             0.0000000000
     13200       776  TIP3      H2             -7.9007562965        5.7811845974       30.2573958369  TIP3      680             0.0000000000
     13201       777  TIP3      OH2            -9.3976442406        7.6607477522       32.9709112555  TIP3      681             0.0000000000
     13202       777  TIP3      H1            -10.1076106457        7.8227294034       33.6240165478  TIP3      681             0.0000000000
     13203       777  TIP3      H2             -9.9164861009        7.4601320579       32.1530662587  TIP3      681             0.0000000000
     13204       778  TIP3      OH2            -9.8496859790        0.4733998419       26.6809190964  TIP3      682             0.0000000000
     13205       778  TIP3      H1            -10.0529459241       -0.4434529304       26.4350613220  TIP3      682             0.0000000000
     13206       778  TIP3      H2            -10.1600268104        0.5316945921       27.6154516406  TIP3      682             0.0000000000
     13207       779  TIP3      OH2           -24.2741916235        3.3808132245       30.2549743864  TIP3      683             0.0000000000
     13208       779  TIP3      H1            -24.3503143358        2.7109335287       29.5693662947  TIP3      683             0.0000000000
     13209       779  TIP3      H2            -23.6029397456        2.9872726715       30.8639877727  TIP3      683             0.0000000000
     13210       780  TIP3      OH2            -9.1480399760        2.4191776745       35.8929036831  TIP3      684             0.0000000000
     13211       780  TIP3      H1             -8.5488563291        1.6589364885       35.7845237603  TIP3      684             0.0000000000
     13212       780  TIP3      H2             -8.5411188303        3.1918284194       35.8470744081  TIP3      684             0.0000000000
     13213       781  TIP3      OH2            -7.9682818952       -0.3101127798       36.5360647960  TIP3      685             0.0000000000
     13214       781  TIP3      H1             -8.8301136987       -0.7428235357       36.3795747513  TIP3      685             0.0000000000
     13215       781  TIP3      H2             -7.3562107964       -1.0840487915       36.6138268125  TIP3      685             0.0000000000
     13216       782  TIP3      OH2           -11.0106912098       -2.3915764878       25.0538518941  TIP3      686             0.0000000000
     13217       782  TIP3      H1            -10.1844635891       -2.8475162526       25.2772623497  TIP3      686             0.0000000000
     13218       782  TIP3      H2            -10.7750091372       -2.0173862541       24.1802102898  TIP3      686             0.0000000000
     13219       783  TIP3      OH2            -9.1704038845       -0.9829902782       30.6271707500  TIP3      687             0.0000000000
     13220       783  TIP3      H1             -8.1962262739       -0.9810727962       30.5493272756  TIP3      687             0.0000000000
     13221       783  TIP3      H2             -9.1973805427       -0.7725243569       31.5910251496  TIP3      687             0.0000000000
     13222       784  TIP3      OH2            -9.1755219084       -0.3624207710       33.2808441632  TIP3      688             0.0000000000
     13223       784  TIP3      H1            -10.0024231402        0.0076972542       33.6630698207  TIP3      688             0.0000000000
     13224       784  TIP3      H2             -8.6539513375        0.4539469254       33.1071001708  TIP3      688             0.0000000000
     13225       785  TIP3      OH2           -25.3654736509       -1.9743023508       37.9016349768  TIP3      689             0.0000000000
     13226       785  TIP3      H1            -24.7052017926       -2.2319612081       37.2387755278  TIP3      689             0.0000000000
     13227       785  TIP3      H2            -25.9299177141       -2.7765786375       37.9261082406  TIP3      689             0.0000000000
     13228       786  TIP3      OH2            -6.3153157199       -5.8812653571       39.0473844258  TIP3      690             0.0000000000
     13229       786  TIP3      H1             -6.2587576036       -6.7955016273       38.7476160788  TIP3      690             0.0000000000
     13230       786  TIP3      H2             -6.8816980833       -5.4804694192       38.3517533382  TIP3      690             0.0000000000
     13231       787  TIP3      OH2            -9.0448655931       -4.4606780944       24.9491423442  TIP3      691             0.0000000000
     13232       787  TIP3      H1             -9.0864410393       -4.8157139097       25.8656036250  TIP3      691             0.0000000000
     13233       787  TIP3      H2             -9.8654575663       -4.8156213419       24.5686164825  TIP3      691             0.0000000000
     13234       788  TIP3      OH2           -24.0914269103       -3.5873557992       30.0361320258  TIP3      692             0.0000000000
     13235       788  TIP3      H1            -23.7262171931       -4.5054213284       30.0113495414  TIP3      692             0.0000000000
     13236       788  TIP3      H2            -23.3471316292       -3.0522601571       30.3579151167  TIP3      692             0.0000000000
     13237       789  TIP3      OH2           -25.4298288545       -0.4932975223       30.8393288007  TIP3      693             0.0000000000
     13238       789  TIP3      H1            -25.2974542972       -1.3966204119       30.5166484695  TIP3      693             0.0000000000
     13239       789  TIP3      H2            -24.5636464853       -0.2042696524       31.1675593702  TIP3      693             0.0000000000
     13240       790  TIP3      OH2            -8.0189718792       -4.8495589435       37.1662448187  TIP3      694             0.0000000000
     13241       790  TIP3      H1             -8.7104116627       -4.2182693851       37.4824067411  TIP3      694             0.0000000000
     13242       790  TIP3      H2             -8.3116872168       -5.0045651221       36.2477217414  TIP3      694             0.0000000000
     13243       791  TIP3      OH2           -24.8676962440       -4.0032373170       24.4618921934  TIP3      695             0.0000000000
     13244       791  TIP3      H1            -25.8410050563       -4.0998727893       24.4076657827  TIP3      695             0.0000000000
     13245       791  TIP3      H2            -24.7226551400       -3.1836437978       23.9484234680  TIP3      695             0.0000000000
     13246       792  TIP3      OH2           -10.3158097089       10.4550184217       27.4352826914  TIP3      696             0.0000000000
     13247       792  TIP3      H1             -9.8201158941       10.5789759194       26.5969657504  TIP3      696             0.0000000000
     13248       792  TIP3      H2            -10.9485675984       11.2036476662       27.4031648507  TIP3      696             0.0000000000
     13249       793  TIP3      OH2           -25.4118458312       -5.9004723528       33.1128265028  TIP3      697             0.0000000000
     13250       793  TIP3      H1            -25.4781914881       -5.2549621492       33.8199111468  TIP3      697             0.0000000000
     13251       793  TIP3      H2            -25.7061599307       -5.3984679474       32.3184843241  TIP3      697             0.0000000000
     13252       794  TIP3      OH2           -23.4259895311        7.8935125792       37.6493857714  TIP3      698             0.0000000000
     13253       794  TIP3      H1            -23.6778805746        7.6327414266       36.7521162550  TIP3      698             0.0000000000
     13254       794  TIP3      H2            -23.5742613717        7.0620650364       38.1203043485  TIP3      698             0.0000000000
     13255       795  TIP3      OH2           -20.9274726829        8.4394179205       32.6043484244  TIP3      699             0.0000000000
     13256       795  TIP3      H1            -20.8822744068        9.2178011374       33.2141000323  TIP3      699             0.0000000000
     13257       795  TIP3      H2            -19.9783488507        8.2169823508       32.5768428970  TIP3      699             0.0000000000
     13258       796  TIP3      OH2           -16.4334788242       10.0152674391       36.0653846521  TIP3      700             0.0000000000
     13259       796  TIP3      H1            -16.3047048457        9.8009106147       37.0151665813  TIP3      700             0.0000000000
     13260       796  TIP3      H2            -15.5328355382       10.3734483279       35.8845832822  TIP3      700             0.0000000000
     13261       797  TIP3      OH2           -14.0417068555       11.1950367804       35.9620597041  TIP3      701             0.0000000000
     13262       797  TIP3      H1            -13.3116737019       11.2812881717       35.3256336779  TIP3      701             0.0000000000
     13263       797  TIP3      H2            -13.6308677528       11.5371875941       36.7853831322  TIP3      701             0.0000000000
     13264       798  TIP3      OH2            -9.0046462682       -6.0332996748       34.8744676462  TIP3      702             0.0000000000
     13265       798  TIP3      H1             -9.7201745575       -5.3699433603       34.7996931203  TIP3      702             0.0000000000
     13266       798  TIP3      H2             -9.4853044939       -6.8686611845       34.9693028387  TIP3      702             0.0000000000
     13267       799  TIP3      OH2           -23.4682513189       10.6708185123       34.0512767638  TIP3      703             0.0000000000
     13268       799  TIP3      H1            -24.2804783126       11.1583330806       33.8080785202  TIP3      703             0.0000000000
     13269       799  TIP3      H2            -22.8519443806       11.4106374321       34.2096532631  TIP3      703             0.0000000000
     13270       800  TIP3      OH2           -20.8285003457       11.9989131414       31.9841584465  TIP3      704             0.0000000000
     13271       800  TIP3      H1            -20.5158496089       11.6553054428       32.8463835725  TIP3      704             0.0000000000
     13272       800  TIP3      H2            -21.1957286540       11.1981413193       31.5962675756  TIP3      704             0.0000000000
     13273       801  TIP3      OH2           -15.6411358208       11.1203356419       31.6942470419  TIP3      705             0.0000000000
     13274       801  TIP3      H1            -16.4815569991       11.4100067291       31.2966068034  TIP3      705             0.0000000000
     13275       801  TIP3      H2            -15.5622326405       11.7633270402       32.4297616228  TIP3      705             0.0000000000
     13276       802  TIP3      OH2           -13.7114757535        9.6172877805       32.9290872991  TIP3      706             0.0000000000
     13277       802  TIP3      H1            -14.2882913311       10.1364624969       32.3309602277  TIP3      706             0.0000000000
     13278       802  TIP3      H2            -12.9242774279       10.1878846344       32.9750094359  TIP3      706             0.0000000000
     13279       803  TIP3      OH2           -11.3706573882       11.0173550288       33.0024852492  TIP3      707             0.0000000000
     13280       803  TIP3      H1            -11.4085011689       11.9476335204       32.7318633918  TIP3      707             0.0000000000
     13281       803  TIP3      H2            -10.9868713039       10.5969297493       32.1946311893  TIP3      707             0.0000000000
     13282       804  TIP3      OH2           -23.1126291966       10.2503999425       30.4204804748  TIP3      708             0.0000000000
     13283       804  TIP3      H1            -23.7235932322       10.0157100835       31.1483427618  TIP3      708             0.0000000000
     13284       804  TIP3      H2            -22.6343227519        9.3994598617       30.3104531151  TIP3      708             0.0000000000
     13285       805  TIP3      OH2           -21.1853070714        8.5992765746       28.9032630241  TIP3      709             0.0000000000
     13286       805  TIP3      H1            -21.4326385080        7.7290546219       29.2740197413  TIP3      709             0.0000000000
     13287       805  TIP3      H2            -20.4686108252        8.9081047577       29.5068018802  TIP3      709             0.0000000000
     13288       806  TIP3      OH2           -18.9808719710        9.1776604064       30.3955465365  TIP3      710             0.0000000000
     13289       806  TIP3      H1            -18.5977957396        8.2793637196       30.2753652210  TIP3      710             0.0000000000
     13290       806  TIP3      H2            -18.7047088856        9.3557385172       31.3141597134  TIP3      710             0.0000000000
     13291       807  TIP3      OH2           -15.0094664777       -5.6093523797       29.6365751118  TIP3      711             0.0000000000
     13292       807  TIP3      H1            -15.9214095225       -5.5302725540       29.9551008249  TIP3      711             0.0000000000
     13293       807  TIP3      H2            -15.1618175131       -5.5739300529       28.6754452626  TIP3      711             0.0000000000
     13294       808  TIP3      OH2           -10.3736224923       -6.7396084260       29.3641698164  TIP3      712             0.0000000000
     13295       808  TIP3      H1             -9.7935636362       -6.1800067552       28.8034621516  TIP3      712             0.0000000000
     13296       808  TIP3      H2            -11.2506626271       -6.5675320718       28.9583194694  TIP3      712             0.0000000000
     13297       809  TIP3      OH2            -8.5067277465       -5.6786184912       27.3904352554  TIP3      713             0.0000000000
     13298       809  TIP3      H1             -7.8776518147       -6.2764262833       26.9257248043  TIP3      713             0.0000000000
     13299       809  TIP3      H2             -7.8795687921       -5.0127083693       27.7637506639  TIP3      713             0.0000000000
     13300       810  TIP3      OH2           -22.7401751384       -6.3684763034       27.0409279202  TIP3      714             0.0000000000
     13301       810  TIP3      H1            -23.4748030150       -6.3861216371       26.3817583695  TIP3      714             0.0000000000
     13302       810  TIP3      H2            -22.3554711016       -7.2631382602       26.8874754155  TIP3      714             0.0000000000
     13303       811  TIP3      OH2           -23.8868286307       -6.2549890672       23.5025046033  TIP3      715             0.0000000000
     13304       811  TIP3      H1            -23.3999379523       -5.8047947172       22.7748066067  TIP3      715             0.0000000000
     13305       811  TIP3      H2            -24.3969309657       -5.4901363994       23.8452517254  TIP3      715             0.0000000000
     13306       812  TIP3      OH2           -18.6735709895       -6.2594627295       26.8392994654  TIP3      716             0.0000000000
     13307       812  TIP3      H1            -17.8501025312       -6.0696877981       26.3388742749  TIP3      716             0.0000000000
     13308       812  TIP3      H2            -18.3688691493       -6.1202998370       27.7583154893  TIP3      716             0.0000000000
     13309       813  TIP3      OH2           -12.8110171805       -6.5958638277       28.0230562229  TIP3      717             0.0000000000
     13310       813  TIP3      H1            -13.2879906209       -6.3027755214       27.2322026804  TIP3      717             0.0000000000
     13311       813  TIP3      H2            -13.5050072259       -7.1265862720       28.4787971876  TIP3      717             0.0000000000
     13312       814  TIP3      OH2           -11.3710160623       -6.6464755917       24.6450835807  TIP3      718             0.0000000000
     13313       814  TIP3      H1            -11.8220579249       -6.0117407664       24.0840960014  TIP3      718             0.0000000000
     13314       814  TIP3      H2            -12.0348477613       -7.3708082376       24.6771414733  TIP3      718             0.0000000000
     13315       815  TIP3      OH2           -24.3752577619        9.6697071365       23.8463922934  TIP3      719             0.0000000000
     13316       815  TIP3      H1            -25.0644078591        9.2126129271       23.3082392207  TIP3      719             0.0000000000
     13317       815  TIP3      H2            -24.8601708391       10.4467460927       24.1671192720  TIP3      719             0.0000000000
     13318       816  TIP3      OH2           -22.4322675545       -5.0002409921       21.4696958115  TIP3      720             0.0000000000
     13319       816  TIP3      H1            -23.2733314055       -5.1408544267       20.9505013658  TIP3      720             0.0000000000
     13320       816  TIP3      H2            -22.2310325558       -4.1024445715       21.1721239346  TIP3      720             0.0000000000
     13321       817  TIP3      OH2            -9.1547391931       10.3609363346       24.8947083230  TIP3      721             0.0000000000
     13322       817  TIP3      H1             -9.2342041804        9.4118473547       24.6239759546  TIP3      721             0.0000000000
     13323       817  TIP3      H2             -9.3907944680       10.7597152359       24.0414070066  TIP3      721             0.0000000000
     13324       818  TIP3      OH2           -23.2980789291       -5.6458419446       36.0099591285  TIP3      722             0.0000000000
     13325       818  TIP3      H1            -23.7775041654       -6.3790111222       36.4465681543  TIP3      722             0.0000000000
     13326       818  TIP3      H2            -22.4674138515       -5.7524923238       36.5333203736  TIP3      722             0.0000000000
     13327       819  TIP3      OH2           -21.3592455718       -6.1689421191       37.7732934114  TIP3      723             0.0000000000
     13328       819  TIP3      H1            -20.4205333191       -6.0244377247       37.5707021248  TIP3      723             0.0000000000
     13329       819  TIP3      H2            -21.3156488881       -7.0312599369       38.2294708663  TIP3      723             0.0000000000
     13330       820  TIP3      OH2           -22.0137852911       10.8537674876       21.5105548223  TIP3      724             0.0000000000
     13331       820  TIP3      H1            -22.4402008924       10.5644353377       22.3237761926  TIP3      724             0.0000000000
     13332       820  TIP3      H2            -21.5079267485       10.0862719935       21.2160028866  TIP3      724             0.0000000000
     13333       821  TIP3      OH2           -13.2037382284       -7.2183913725       38.5459458439  TIP3      725             0.0000000000
     13334       821  TIP3      H1            -13.5215090070       -7.6237093990       39.3710637780  TIP3      725             0.0000000000
     13335       821  TIP3      H2            -12.3534334670       -7.6734900729       38.4219209202  TIP3      725             0.0000000000
     13336       822  TIP3      OH2            -9.2269773550        8.9022621963       36.7709386051  TIP3      726             0.0000000000
     13337       822  TIP3      H1             -9.8915398768        8.9897043911       36.0460424789  TIP3      726             0.0000000000
     13338       822  TIP3      H2             -8.7682050322        9.7478812415       36.7074585976  TIP3      726             0.0000000000
     13339       823  TIP3      OH2             5.4633815605        2.9395478711       27.0340532565  TIP3      727             0.0000000000
     13340       823  TIP3      H1              5.5288834922        3.5581376582       27.7859603607  TIP3      727             0.0000000000
     13341       823  TIP3      H2              4.9950941353        3.5082126542       26.3898487709  TIP3      727             0.0000000000
     13342       824  TIP3      OH2             3.8248551351        2.1530020406       29.9737958891  TIP3      728             0.0000000000
     13343       824  TIP3      H1              3.8738301893        1.6582768061       30.8139563528  TIP3      728             0.0000000000
     13344       824  TIP3      H2              3.2530765581        1.5764817151       29.4326905662  TIP3      728             0.0000000000
     13345       825  TIP3      OH2            -3.8769547773        1.8328771389       31.4884462337  TIP3      729             0.0000000000
     13346       825  TIP3      H1             -3.9732743694        1.0061213880       31.9947357785  TIP3      729             0.0000000000
     13347       825  TIP3      H2             -3.1242490123        2.2513833925       31.9369232210  TIP3      729             0.0000000000
     13348       826  TIP3      OH2             6.9964885656        5.0134282286       28.8239487202  TIP3      730             0.0000000000
     13349       826  TIP3      H1              6.9480149143        4.2321184875       29.3954468063  TIP3      730             0.0000000000
     13350       826  TIP3      H2              7.7182719195        5.5140627127       29.2441412392  TIP3      730             0.0000000000
     13351       827  TIP3      OH2            -2.8157789006        6.8575166133       29.8559170982  TIP3      731             0.0000000000
     13352       827  TIP3      H1             -3.2182783028        5.9774181279       29.8860235548  TIP3      731             0.0000000000
     13353       827  TIP3      H2             -1.8798340926        6.5863016161       29.8546022243  TIP3      731             0.0000000000
     13354       828  TIP3      OH2            -6.0449897684       -0.5333420521       25.3748949795  TIP3      732             0.0000000000
     13355       828  TIP3      H1             -6.6755332774        0.1490843484       25.6473838445  TIP3      732             0.0000000000
     13356       828  TIP3      H2             -6.0119106116       -0.3159924170       24.4025743005  TIP3      732             0.0000000000
     13357       829  TIP3      OH2            -5.7250158534        2.1099950402       28.0817916832  TIP3      733             0.0000000000
     13358       829  TIP3      H1             -5.4247599282        1.1833868813       28.2570341666  TIP3      733             0.0000000000
     13359       829  TIP3      H2             -5.1186818513        2.3902917551       27.3813625721  TIP3      733             0.0000000000
     13360       830  TIP3      OH2             4.4552391921       10.3447982299       28.5189446259  TIP3      734             0.0000000000
     13361       830  TIP3      H1              5.1933148648        9.7253960060       28.3299244059  TIP3      734             0.0000000000
     13362       830  TIP3      H2              4.1555901499       10.0360088685       29.3863270844  TIP3      734             0.0000000000
     13363       831  TIP3      OH2             1.8804572935        4.5789962486       31.2301731815  TIP3      735             0.0000000000
     13364       831  TIP3      H1              2.1460981126        4.4281919821       30.3167249726  TIP3      735             0.0000000000
     13365       831  TIP3      H2              2.7599413369        4.8505735259       31.6013514643  TIP3      735             0.0000000000
     13366       832  TIP3      OH2            10.6454666403       -3.6876974095       31.2588406287  TIP3      736             0.0000000000
     13367       832  TIP3      H1             10.7549867803       -3.1156689630       32.0436613635  TIP3      736             0.0000000000
     13368       832  TIP3      H2             11.5028948649       -3.5290197131       30.8271122560  TIP3      736             0.0000000000
     13369       833  TIP3      OH2             5.7962411445       -0.7412098665       31.3997860576  TIP3      737             0.0000000000
     13370       833  TIP3      H1              5.8978740943       -1.6356654429       31.7817192754  TIP3      737             0.0000000000
     13371       833  TIP3      H2              5.7372836744       -0.9859253773       30.4617356902  TIP3      737             0.0000000000
     13372       834  TIP3      OH2            -1.4885309600       -3.2738108314       28.1671884147  TIP3      738             0.0000000000
     13373       834  TIP3      H1             -1.4219584485       -2.5119531879       27.5634821680  TIP3      738             0.0000000000
     13374       834  TIP3      H2             -1.9012028047       -3.9140244203       27.5633266234  TIP3      738             0.0000000000
     13375       835  TIP3      OH2             5.9754754157       -3.0385891431       26.9058089649  TIP3      739             0.0000000000
     13376       835  TIP3      H1              6.5725035288       -3.2899698501       27.6431027959  TIP3      739             0.0000000000
     13377       835  TIP3      H2              6.5460873682       -2.4329318086       26.4038397745  TIP3      739             0.0000000000
     13378       836  TIP3      OH2            -5.0555484463       -0.3982675041       28.9039212831  TIP3      740             0.0000000000
     13379       836  TIP3      H1             -4.4510930129       -0.9161033398       29.4707844379  TIP3      740             0.0000000000
     13380       836  TIP3      H2             -4.8444333219       -0.7902082442       28.0334359312  TIP3      740             0.0000000000
     13381       837  TIP3      OH2            -0.4143707936        0.7496837029       28.0295650993  TIP3      741             0.0000000000
     13382       837  TIP3      H1              0.4538227181        0.4317106885       28.3495158919  TIP3      741             0.0000000000
     13383       837  TIP3      H2             -0.7303070628       -0.0142877092       27.5041977325  TIP3      741             0.0000000000
     13384       838  TIP3      OH2            10.9430837080       -2.5633337031       33.7837010351  TIP3      742             0.0000000000
     13385       838  TIP3      H1             10.2341939201       -1.9032318463       33.5866702573  TIP3      742             0.0000000000
     13386       838  TIP3      H2             11.3782690502       -2.1642517459       34.5469118998  TIP3      742             0.0000000000
     13387       839  TIP3      OH2            -2.3100970996       -3.9098290660       32.2861173132  TIP3      743             0.0000000000
     13388       839  TIP3      H1             -2.7004761146       -3.4260776051       31.5283791077  TIP3      743             0.0000000000
     13389       839  TIP3      H2             -3.0191376467       -3.7418493783       32.9414716214  TIP3      743             0.0000000000
     13390       840  TIP3      OH2             4.5464628335        5.5154820893       25.9394266230  TIP3      744             0.0000000000
     13391       840  TIP3      H1              4.3114243639        5.6792730592       24.9959909101  TIP3      744             0.0000000000
     13392       840  TIP3      H2              4.5242071691        6.4128216411       26.3345491548  TIP3      744             0.0000000000
     13393       841  TIP3      OH2            -0.4117773643        3.6316038931       32.1538844305  TIP3      745             0.0000000000
     13394       841  TIP3      H1             -1.0023776798        4.3404568379       32.4952849047  TIP3      745             0.0000000000
     13395       841  TIP3      H2              0.3401597254        4.1533341880       31.7875358320  TIP3      745             0.0000000000
     13396       842  TIP3      OH2             7.9336339529       -3.2913386148       29.2024426602  TIP3      746             0.0000000000
     13397       842  TIP3      H1              8.6505154643       -3.9258585129       29.0594848718  TIP3      746             0.0000000000
     13398       842  TIP3      H2              8.4532393613       -2.5561390714       29.5894176064  TIP3      746             0.0000000000
     13399       843  TIP3      OH2            -3.0264031271       -2.0976581793       30.3158619197  TIP3      747             0.0000000000
     13400       843  TIP3      H1             -2.3738261996       -1.4967752382       30.7653209473  TIP3      747             0.0000000000
     13401       843  TIP3      H2             -2.5181635808       -2.3695098059       29.5212437213  TIP3      747             0.0000000000
     13402       844  TIP3      OH2            -1.6213626847        6.0123864331       32.9534774133  TIP3      748             0.0000000000
     13403       844  TIP3      H1             -1.7723322440        6.9132294772       32.6364046196  TIP3      748             0.0000000000
     13404       844  TIP3      H2             -2.4748243872        5.8457443389       33.4228121183  TIP3      748             0.0000000000
     13405       845  TIP3      OH2            -5.9158162029        5.1955632775       24.3468067715  TIP3      749             0.0000000000
     13406       845  TIP3      H1             -5.7105106562        5.4969706957       23.4558396517  TIP3      749             0.0000000000
     13407       845  TIP3      H2             -5.5542940316        5.9335796380       24.8735120990  TIP3      749             0.0000000000
     13408       846  TIP3      OH2             8.1108294108        6.7918735915       30.7632640415  TIP3      750             0.0000000000
     13409       846  TIP3      H1              7.1402551681        6.9387301320       30.8134348232  TIP3      750             0.0000000000
     13410       846  TIP3      H2              8.3423368577        7.6709042458       30.4200026748  TIP3      750             0.0000000000
     13411       847  TIP3      OH2             7.8537304882       -4.3119939548       32.2624637120  TIP3      751             0.0000000000
     13412       847  TIP3      H1              7.0763896525       -3.8823819076       31.8384376585  TIP3      751             0.0000000000
     13413       847  TIP3      H2              8.5779566811       -4.0517191611       31.6635001560  TIP3      751             0.0000000000
     13414       848  TIP3      OH2             0.8274765134       -6.7187465215       29.9742757925  TIP3      752             0.0000000000
     13415       848  TIP3      H1              0.5023837770       -7.6309635190       30.0803017658  TIP3      752             0.0000000000
     13416       848  TIP3      H2             -0.0325704357       -6.2346129444       30.0961117029  TIP3      752             0.0000000000
     13417       849  TIP3      OH2             6.7984571888        8.6848235421       27.6436229091  TIP3      753             0.0000000000
     13418       849  TIP3      H1              6.7323500083        8.0833298168       26.8896763253  TIP3      753             0.0000000000
     13419       849  TIP3      H2              7.2501104673        9.4538281217       27.2219257146  TIP3      753             0.0000000000
     13420       850  TIP3      OH2             7.4926016909        6.4573884130       25.7399669328  TIP3      754             0.0000000000
     13421       850  TIP3      H1              7.3076635750        5.7819220557       25.0596679948  TIP3      754             0.0000000000
     13422       850  TIP3      H2              7.3209661490        5.9637984403       26.5637624273  TIP3      754             0.0000000000
     13423       851  TIP3      OH2             8.7669945531        5.6078999859       34.8977975693  TIP3      755             0.0000000000
     13424       851  TIP3      H1              9.1901478077        5.6508836040       34.0041812249  TIP3      755             0.0000000000
     13425       851  TIP3      H2              8.1967425339        6.3939087034       34.8543409754  TIP3      755             0.0000000000
     13426       852  TIP3      OH2            10.3283192107        1.2012649192       32.2372906697  TIP3      756             0.0000000000
     13427       852  TIP3      H1             10.2711227914        2.1819483217       32.2229927323  TIP3      756             0.0000000000
     13428       852  TIP3      H2             11.2737973819        1.1289789090       32.0048126958  TIP3      756             0.0000000000
     13429       853  TIP3      OH2             7.2926771362        1.7849841240       25.0920870194  TIP3      757             0.0000000000
     13430       853  TIP3      H1              6.8431962892        2.3737202129       25.7236025040  TIP3      757             0.0000000000
     13431       853  TIP3      H2              8.0118553755        1.4182416826       25.6461573096  TIP3      757             0.0000000000
     13432       854  TIP3      OH2             6.6362026771        0.0330402039       34.2462818033  TIP3      758             0.0000000000
     13433       854  TIP3      H1              6.5665971089        0.4797090397       35.1230880305  TIP3      758             0.0000000000
     13434       854  TIP3      H2              6.3719695527        0.7603751881       33.6564545912  TIP3      758             0.0000000000
     13435       855  TIP3      OH2            -1.5261576817        3.0185906015       27.1723800656  TIP3      759             0.0000000000
     13436       855  TIP3      H1             -2.1318133314        2.7370736397       26.4589326646  TIP3      759             0.0000000000
     13437       855  TIP3      H2             -1.0093860557        2.2064765356       27.3558224981  TIP3      759             0.0000000000
     13438       856  TIP3      OH2             0.0358847550        6.3271389445       29.8477083759  TIP3      760             0.0000000000
     13439       856  TIP3      H1              0.0756424601        6.0985303857       28.9085571493  TIP3      760             0.0000000000
     13440       856  TIP3      H2              0.5305597470        5.6073896755       30.2863736229  TIP3      760             0.0000000000
     13441       857  TIP3      OH2            -1.1215619982        1.5652255704       30.6428114313  TIP3      761             0.0000000000
     13442       857  TIP3      H1             -0.9217009031        1.6552702781       29.6892770154  TIP3      761             0.0000000000
     13443       857  TIP3      H2             -0.6773119293        2.3318208815       31.0673468397  TIP3      761             0.0000000000
     13444       858  TIP3      OH2             5.6644357147        7.6416353820       31.4237376603  TIP3      762             0.0000000000
     13445       858  TIP3      H1              5.3190846074        8.2821196175       32.0642573867  TIP3      762             0.0000000000
     13446       858  TIP3      H2              5.2022029448        6.8239211483       31.7020445324  TIP3      762             0.0000000000
     13447       859  TIP3      OH2            -0.0219008623        5.9563690728       35.1616957420  TIP3      763             0.0000000000
     13448       859  TIP3      H1             -0.5830212910        6.5947156729       35.6702856755  TIP3      763             0.0000000000
     13449       859  TIP3      H2             -0.5428716807        5.8961230879       34.3229435288  TIP3      763             0.0000000000
     13450       860  TIP3      OH2            -3.0639323903        2.4606621088       34.6924022264  TIP3      764             0.0000000000
     13451       860  TIP3      H1             -3.0809265488        2.9845474714       35.5164107576  TIP3      764             0.0000000000
     13452       860  TIP3      H2             -4.0027831478        2.1617949136       34.6361940207  TIP3      764             0.0000000000
     13453       861  TIP3      OH2             4.0143370227        8.0076467578       26.7861425525  TIP3      765             0.0000000000
     13454       861  TIP3      H1              4.0250868047        8.8321535776       27.3013965116  TIP3      765             0.0000000000
     13455       861  TIP3      H2              3.2898240849        8.1858314258       26.1855351186  TIP3      765             0.0000000000
     13456       862  TIP3      OH2            -1.2986403202        7.9518547607       36.4351217870  TIP3      766             0.0000000000
     13457       862  TIP3      H1             -1.4680827042        8.5126190003       35.6488456106  TIP3      766             0.0000000000
     13458       862  TIP3      H2             -2.2219295354        7.7519223780       36.6974963016  TIP3      766             0.0000000000
     13459       863  TIP3      OH2            -3.1522581757        2.0039765695       25.0298657441  TIP3      767             0.0000000000
     13460       863  TIP3      H1             -3.5208518436        2.7929322954       24.6090861539  TIP3      767             0.0000000000
     13461       863  TIP3      H2             -3.4552456542        1.3420282072       24.3909273965  TIP3      767             0.0000000000
     13462       864  TIP3      OH2            -6.0456088805        4.6318461475       33.5033099795  TIP3      768             0.0000000000
     13463       864  TIP3      H1             -6.6229401766        4.5080896336       32.7336112058  TIP3      768             0.0000000000
     13464       864  TIP3      H2             -5.6589433246        3.7320731684       33.5528967955  TIP3      768             0.0000000000
     13465       865  TIP3      OH2            -6.6779449841        7.3714714682       31.0678482760  TIP3      769             0.0000000000
     13466       865  TIP3      H1             -6.6022755814        6.4633200639       31.3898430589  TIP3      769             0.0000000000
     13467       865  TIP3      H2             -6.0194727728        7.8034156474       31.6455259103  TIP3      769             0.0000000000
     13468       866  TIP3      OH2            11.7319951230        7.7559721095       36.3921726336  TIP3      770             0.0000000000
     13469       866  TIP3      H1             11.6083819110        6.8101014945       36.1884395713  TIP3      770             0.0000000000
     13470       866  TIP3      H2             10.8194112993        8.0073486719       36.6334516249  TIP3      770             0.0000000000
     13471       867  TIP3      OH2             2.5548547258        7.1265812623       35.2348803116  TIP3      771             0.0000000000
     13472       867  TIP3      H1              2.6320933369        7.9509315101       35.7416009639  TIP3      771             0.0000000000
     13473       867  TIP3      H2              1.5890218069        6.9942676989       35.1265471888  TIP3      771             0.0000000000
     13474       868  TIP3      OH2             2.9537948348       11.1027607040       24.1918656993  TIP3      772             0.0000000000
     13475       868  TIP3      H1              3.0329640761       11.2352923146       23.2342359882  TIP3      772             0.0000000000
     13476       868  TIP3      H2              3.1576006953       11.9833854112       24.5523793779  TIP3      772             0.0000000000
     13477       869  TIP3      OH2            -3.4871381517        9.7294404336       26.7585222555  TIP3      773             0.0000000000
     13478       869  TIP3      H1             -3.1605428938        9.4147625681       27.6362069280  TIP3      773             0.0000000000
     13479       869  TIP3      H2             -4.4136258806        9.4311432983       26.7325914437  TIP3      773             0.0000000000
     13480       870  TIP3      OH2             6.1893351154        9.8243180572       21.8657628668  TIP3      774             0.0000000000
     13481       870  TIP3      H1              6.1587899762        9.2208648295       21.1094398602  TIP3      774             0.0000000000
     13482       870  TIP3      H2              5.9377906377        9.2437498788       22.6003920045  TIP3      774             0.0000000000
     13483       871  TIP3      OH2             5.4268479458        9.9337581558       24.9251730605  TIP3      775             0.0000000000
     13484       871  TIP3      H1              4.5191979584       10.2710382633       24.7975395398  TIP3      775             0.0000000000
     13485       871  TIP3      H2              5.2953565424        9.0507668255       25.2859125460  TIP3      775             0.0000000000
     13486       872  TIP3      OH2             8.2638074172       -1.4424699124       36.8016297621  TIP3      776             0.0000000000
     13487       872  TIP3      H1              7.7423918055       -1.7077699626       36.0231643472  TIP3      776             0.0000000000
     13488       872  TIP3      H2              8.4384263744       -2.3287555296       37.1919128328  TIP3      776             0.0000000000
     13489       873  TIP3      OH2            -3.7475725257        5.7270030054       34.5475865850  TIP3      777             0.0000000000
     13490       873  TIP3      H1             -3.6336350273        5.2019862487       35.3729657956  TIP3      777             0.0000000000
     13491       873  TIP3      H2             -4.6351823763        5.4456152650       34.2353034987  TIP3      777             0.0000000000
     13492       874  TIP3      OH2            -1.4677051688       -5.6838817618       30.5504886294  TIP3      778             0.0000000000
     13493       874  TIP3      H1             -2.3741808499       -5.7616922549       30.2114524949  TIP3      778             0.0000000000
     13494       874  TIP3      H2             -1.5852704667       -4.9973768541       31.2368296465  TIP3      778             0.0000000000
     13495       875  TIP3      OH2             3.5320096273       -6.0162806953       33.8442143318  TIP3      779             0.0000000000
     13496       875  TIP3      H1              3.8473718123       -6.4726386187       34.6505535144  TIP3      779             0.0000000000
     13497       875  TIP3      H2              2.5490123057       -6.1150243031       33.8912914972  TIP3      779             0.0000000000
     13498       876  TIP3      OH2             6.3493302893       -2.4518723749       35.0432100945  TIP3      780             0.0000000000
     13499       876  TIP3      H1              5.7796012325       -2.4938955406       35.8476936653  TIP3      780             0.0000000000
     13500       876  TIP3      H2              6.3104033909       -1.5022529757       34.7886068209  TIP3      780             0.0000000000
     13501       877  TIP3      OH2            -1.0669755560       -0.8679930734       31.6820661069  TIP3      781             0.0000000000
     13502       877  TIP3      H1             -1.4645751151       -0.5830143494       32.5350203145  TIP3      781             0.0000000000
     13503       877  TIP3      H2             -1.1533842966       -0.0025383478       31.2129052717  TIP3      781             0.0000000000
     13504       878  TIP3      OH2            -1.3860092560       -1.1453009514       26.4020331228  TIP3      782             0.0000000000
     13505       878  TIP3      H1             -2.3561640149       -1.0768354867       26.5754292607  TIP3      782             0.0000000000
     13506       878  TIP3      H2             -1.3855476068       -1.6567181776       25.5744868352  TIP3      782             0.0000000000
     13507       879  TIP3      OH2             4.5704105970       -0.2373203701       25.3752120793  TIP3      783             0.0000000000
     13508       879  TIP3      H1              4.6163980805        0.6401090044       24.9732752581  TIP3      783             0.0000000000
     13509       879  TIP3      H2              5.0980787959       -0.7751100731       24.7571984955  TIP3      783             0.0000000000
     13510       880  TIP3      OH2             2.9400638034        0.4995031295       37.1091530850  TIP3      784             0.0000000000
     13511       880  TIP3      H1              2.7190402019       -0.4550397019       37.0868404363  TIP3      784             0.0000000000
     13512       880  TIP3      H2              3.8408853647        0.4457156215       37.4929752304  TIP3      784             0.0000000000
     13513       881  TIP3      OH2             5.3452238680       -0.4942983648       28.4079248122  TIP3      785             0.0000000000
     13514       881  TIP3      H1              5.2817743247        0.2315203474       27.7507892378  TIP3      785             0.0000000000
     13515       881  TIP3      H2              5.1976372377       -1.2872431293       27.8579368836  TIP3      785             0.0000000000
     13516       882  TIP3      OH2            -3.9630581128       -0.7544950590       32.9936616318  TIP3      786             0.0000000000
     13517       882  TIP3      H1             -3.5067171191       -0.4744299981       33.8026685094  TIP3      786             0.0000000000
     13518       882  TIP3      H2             -4.0684191651       -1.7123157808       33.1148252571  TIP3      786             0.0000000000
     13519       883  TIP3      OH2            -6.8165820465       -3.5564846095       27.8094431047  TIP3      787             0.0000000000
     13520       883  TIP3      H1             -6.1145097153       -3.5009077646       28.4948804163  TIP3      787             0.0000000000
     13521       883  TIP3      H2             -6.5043765593       -3.0415894703       27.0477380347  TIP3      787             0.0000000000
     13522       884  TIP3      OH2             4.4735223863        1.1746291543       32.6853393455  TIP3      788             0.0000000000
     13523       884  TIP3      H1              5.0188846296        0.4744750578       32.2425700026  TIP3      788             0.0000000000
     13524       884  TIP3      H2              3.8363896490        0.6200201278       33.1985351983  TIP3      788             0.0000000000
     13525       885  TIP3      OH2             1.6569036187       -3.0138042300       27.9253165045  TIP3      789             0.0000000000
     13526       885  TIP3      H1              0.7150909419       -3.0240841078       28.1640738782  TIP3      789             0.0000000000
     13527       885  TIP3      H2              2.0143341697       -3.7610081451       28.4442040855  TIP3      789             0.0000000000
     13528       886  TIP3      OH2            -4.1019211465       -1.7680623825       26.6599039966  TIP3      790             0.0000000000
     13529       886  TIP3      H1             -4.7273761910       -1.3376738400       26.0204067710  TIP3      790             0.0000000000
     13530       886  TIP3      H2             -4.2359170039       -2.6993526303       26.3963103915  TIP3      790             0.0000000000
     13531       887  TIP3      OH2             0.2364217931       -1.8397561746       24.0557731207  TIP3      791             0.0000000000
     13532       887  TIP3      H1              1.0674572051       -1.9311940880       24.5987227127  TIP3      791             0.0000000000
     13533       887  TIP3      H2             -0.0796156938       -0.9882024663       24.3758420611  TIP3      791             0.0000000000
     13534       888  TIP3      OH2             5.5793329752       -3.4413515065       31.2487469548  TIP3      792             0.0000000000
     13535       888  TIP3      H1              4.9036653403       -3.6714819616       31.9127202867  TIP3      792             0.0000000000
     13536       888  TIP3      H2              5.5374590236       -4.1984441237       30.6469750678  TIP3      792             0.0000000000
     13537       889  TIP3      OH2             8.6678715089       11.7092290046       37.4095986031  TIP3      793             0.0000000000
     13538       889  TIP3      H1              8.9098207118       12.2570575630       36.6352755136  TIP3      793             0.0000000000
     13539       889  TIP3      H2              9.4824416258       11.7754127907       37.9443635783  TIP3      793             0.0000000000
     13540       890  TIP3      OH2            -3.6808140468        4.2594082702       36.8366617342  TIP3      794             0.0000000000
     13541       890  TIP3      H1             -2.8824530232        4.4527547849       37.3879321416  TIP3      794             0.0000000000
     13542       890  TIP3      H2             -4.3214862030        3.9989180493       37.5068255263  TIP3      794             0.0000000000
     13543       891  TIP3      OH2             2.1271298863        0.1564118634       29.1104030456  TIP3      795             0.0000000000
     13544       891  TIP3      H1              2.8359084804       -0.4307866476       28.7967935219  TIP3      795             0.0000000000
     13545       891  TIP3      H2              1.9789671533       -0.2139441804       29.9875240286  TIP3      795             0.0000000000
     13546       892  TIP3      OH2            -2.8636726147       -4.3022159387       25.9091384055  TIP3      796             0.0000000000
     13547       892  TIP3      H1             -3.4030204780       -4.9346780255       26.4289026153  TIP3      796             0.0000000000
     13548       892  TIP3      H2             -2.7075320673       -4.8673330348       25.1306781026  TIP3      796             0.0000000000
     13549       893  TIP3      OH2             1.3974710075       -2.0966357986       31.8797039211  TIP3      797             0.0000000000
     13550       893  TIP3      H1              0.5542896694       -1.6413197651       31.6824090931  TIP3      797             0.0000000000
     13551       893  TIP3      H2              1.8446052401       -1.4615958645       32.4630619488  TIP3      797             0.0000000000
     13552       894  TIP3      OH2             0.9035821726        4.1658734999       23.3822936152  TIP3      798             0.0000000000
     13553       894  TIP3      H1             -0.0107204069        3.8660342678       23.3449504807  TIP3      798             0.0000000000
     13554       894  TIP3      H2              0.9538206964        4.6045912584       24.2585231966  TIP3      798             0.0000000000
     13555       895  TIP3      OH2             7.4702481437        3.0229222137       32.7571850725  TIP3      799             0.0000000000
     13556       895  TIP3      H1              8.1821304989        3.6184389337       32.4363082351  TIP3      799             0.0000000000
     13557       895  TIP3      H2              7.0533685927        2.8034474180       31.8868575948  TIP3      799             0.0000000000
     13558       896  TIP3      OH2             3.2527876514        4.4122639142       34.8784044930  TIP3      800             0.0000000000
     13559       896  TIP3      H1              2.8537590443        4.2175277717       35.7421816188  TIP3      800             0.0000000000
     13560       896  TIP3      H2              2.9654641610        5.3477544626       34.8165290221  TIP3      800             0.0000000000
     13561       897  TIP3      OH2             6.4171708825       -1.3356872916       23.4179539775  TIP3      801             0.0000000000
     13562       897  TIP3      H1              7.1240870983       -1.0753552510       24.0300681294  TIP3      801             0.0000000000
     13563       897  TIP3      H2              6.6163479308       -0.7772293020       22.6392640789  TIP3      801             0.0000000000
     13564       898  TIP3      OH2            -2.8427036272        3.8269941164       29.3830077267  TIP3      802             0.0000000000
     13565       898  TIP3      H1             -2.4082060063        3.5782574854       28.5319955945  TIP3      802             0.0000000000
     13566       898  TIP3      H2             -2.8574521739        2.9777459351       29.8564253987  TIP3      802             0.0000000000
     13567       899  TIP3      OH2             3.6770701596        5.5652229195       23.4086738860  TIP3      803             0.0000000000
     13568       899  TIP3      H1              3.0792908075        6.3143843951       23.2555420039  TIP3      803             0.0000000000
     13569       899  TIP3      H2              3.2995649955        4.8307393273       22.9064260313  TIP3      803             0.0000000000
     13570       900  TIP3      OH2            -5.6570951421        1.8306154295       34.4450165620  TIP3      804             0.0000000000
     13571       900  TIP3      H1             -5.8168066365        1.6831828902       35.4111426071  TIP3      804             0.0000000000
     13572       900  TIP3      H2             -6.4102298977        1.3613887918       34.0431219427  TIP3      804             0.0000000000
     13573       901  TIP3      OH2             0.3933727514        1.6618632879       36.4450385701  TIP3      805             0.0000000000
     13574       901  TIP3      H1              0.1238446957        1.5737756863       35.5068417591  TIP3      805             0.0000000000
     13575       901  TIP3      H2              1.2405548053        1.1659434918       36.4441122705  TIP3      805             0.0000000000
     13576       902  TIP3      OH2             5.8932682757        6.9591300985       35.0015251123  TIP3      806             0.0000000000
     13577       902  TIP3      H1              5.1838834017        7.3859345516       34.4926655006  TIP3      806             0.0000000000
     13578       902  TIP3      H2              5.6361816941        7.2728388161       35.8941794616  TIP3      806             0.0000000000
     13579       903  TIP3      OH2            11.4308643146        5.0461281707       35.8380010432  TIP3      807             0.0000000000
     13580       903  TIP3      H1             10.5975800022        5.1530796191       35.3467857238  TIP3      807             0.0000000000
     13581       903  TIP3      H2             11.9989653400        4.7109651431       35.1087420677  TIP3      807             0.0000000000
     13582       904  TIP3      OH2             9.4169907097        7.2570656171       23.8430830102  TIP3      808             0.0000000000
     13583       904  TIP3      H1              8.9430433111        6.9882143382       24.6561142007  TIP3      808             0.0000000000
     13584       904  TIP3      H2              9.0794092824        6.5734593189       23.2395038697  TIP3      808             0.0000000000
     13585       905  TIP3      OH2             6.7551196485        2.3789867318       30.2745773504  TIP3      809             0.0000000000
     13586       905  TIP3      H1              5.8381144908        2.1922859507       29.9905274670  TIP3      809             0.0000000000
     13587       905  TIP3      H2              7.2661173025        1.6880305000       29.7766972193  TIP3      809             0.0000000000
     13588       906  TIP3      OH2            -0.9197610901        7.2335346204       26.9459422030  TIP3      810             0.0000000000
     13589       906  TIP3      H1             -0.7355387485        8.1509521516       26.6651734406  TIP3      810             0.0000000000
     13590       906  TIP3      H2             -1.8146180506        7.1469432396       26.6034628804  TIP3      810             0.0000000000
     13591       907  TIP3      OH2             0.3633211918        5.0683680292       26.0076580929  TIP3      811             0.0000000000
     13592       907  TIP3      H1             -0.0888303833        5.8783349875       26.3378467142  TIP3      811             0.0000000000
     13593       907  TIP3      H2              0.1198111447        4.3910102379       26.6553224837  TIP3      811             0.0000000000
     13594       908  TIP3      OH2             1.1238969806        9.2104158126       33.3421665995  TIP3      812             0.0000000000
     13595       908  TIP3      H1              1.7560282400        9.7713578268       32.8602315586  TIP3      812             0.0000000000
     13596       908  TIP3      H2              1.7013173541        8.8533175391       34.0375830707  TIP3      812             0.0000000000
     13597       909  TIP3      OH2            -0.9474599103        9.7840078642       25.7416236224  TIP3      813             0.0000000000
     13598       909  TIP3      H1             -1.9134013486        9.8191487858       25.9153255170  TIP3      813             0.0000000000
     13599       909  TIP3      H2             -0.6653448309       10.5958131662       26.2082339345  TIP3      813             0.0000000000
     13600       910  TIP3      OH2             4.3072892868        4.9929477109       32.3195829901  TIP3      814             0.0000000000
     13601       910  TIP3      H1              3.9746410307        4.5910403418       33.1545399886  TIP3      814             0.0000000000
     13602       910  TIP3      H2              4.8566193456        4.2669135269       31.9718157469  TIP3      814             0.0000000000
     13603       911  TIP3      OH2             7.6767950736        9.6047794986       34.7800874556  TIP3      815             0.0000000000
     13604       911  TIP3      H1              6.8020812817        9.2950829534       34.4955325020  TIP3      815             0.0000000000
     13605       911  TIP3      H2              7.8849043203       10.3219564644       34.1331262051  TIP3      815             0.0000000000
     13606       912  TIP3      OH2            -4.2953339171       -3.3830713826       34.0049600773  TIP3      816             0.0000000000
     13607       912  TIP3      H1             -5.1437736827       -2.9429181734       34.1441692105  TIP3      816             0.0000000000
     13608       912  TIP3      H2             -4.2872674748       -4.0328726808       34.7323499273  TIP3      816             0.0000000000
     13609       913  TIP3      OH2             7.9407766469        4.4572356312       23.5383512189  TIP3      817             0.0000000000
     13610       913  TIP3      H1              7.6652412713        3.5492694870       23.3104708185  TIP3      817             0.0000000000
     13611       913  TIP3      H2              8.8999455858        4.3314045801       23.7255362650  TIP3      817             0.0000000000
     13612       914  TIP3      OH2            -4.7918129398        8.4300527599       32.7239911412  TIP3      818             0.0000000000
     13613       914  TIP3      H1             -4.0994354265        7.7610227217       32.8221612139  TIP3      818             0.0000000000
     13614       914  TIP3      H2             -4.5854187619        8.9971685833       33.4852352889  TIP3      818             0.0000000000
     13615       915  TIP3      OH2             1.3550645084        6.9185611362       20.2809000361  TIP3      819             0.0000000000
     13616       915  TIP3      H1              0.9648759116        6.4167610624       19.5550587548  TIP3      819             0.0000000000
     13617       915  TIP3      H2              0.6062963683        6.9834029688       20.9068922982  TIP3      819             0.0000000000
     13618       916  TIP3      OH2            -0.3041819323        6.6960303177       22.6138989368  TIP3      820             0.0000000000
     13619       916  TIP3      H1              0.3960027107        6.1191787742       22.9730254997  TIP3      820             0.0000000000
     13620       916  TIP3      H2             -0.0901695843        7.5550450254       23.0201969628  TIP3      820             0.0000000000
     13621       917  TIP3      OH2             4.0277773996       -3.3047720384       33.6847954558  TIP3      821             0.0000000000
     13622       917  TIP3      H1              4.8783185544       -3.2303371993       34.1674621857  TIP3      821             0.0000000000
     13623       917  TIP3      H2              3.8172859768       -4.2644832190       33.7788892143  TIP3      821             0.0000000000
     13624       918  TIP3      OH2             2.3010233726        8.3357202171       23.3794466455  TIP3      822             0.0000000000
     13625       918  TIP3      H1              1.8932121072        9.2007464466       23.5244269745  TIP3      822             0.0000000000
     13626       918  TIP3      H2              2.7102130407        8.4733434814       22.4961651510  TIP3      822             0.0000000000
     13627       919  TIP3      OH2             2.4090664328       -1.9167274043       25.5127214852  TIP3      823             0.0000000000
     13628       919  TIP3      H1              3.1134465885       -1.2439507571       25.6233359190  TIP3      823             0.0000000000
     13629       919  TIP3      H2              2.2864692612       -2.2771148984       26.4257173697  TIP3      823             0.0000000000
     13630       920  TIP3      OH2             3.0313884469       -0.8013783812       33.9378132975  TIP3      824             0.0000000000
     13631       920  TIP3      H1              2.5207734264       -1.0107796389       34.7297352031  TIP3      824             0.0000000000
     13632       920  TIP3      H2              3.5200278156       -1.6394357629       33.7798124815  TIP3      824             0.0000000000
     13633       921  TIP3      OH2             3.1013476927       -4.9018253593       25.9919869501  TIP3      825             0.0000000000
     13634       921  TIP3      H1              2.7078358686       -4.9569280408       26.8940621603  TIP3      825             0.0000000000
     13635       921  TIP3      H2              3.5979136613       -4.0793938056       26.0731072407  TIP3      825             0.0000000000
     13636       922  TIP3      OH2            -0.3083042086       10.0147138498       23.1435316601  TIP3      826             0.0000000000
     13637       922  TIP3      H1             -0.6033511030       10.9291272252       23.1243543374  TIP3      826             0.0000000000
     13638       922  TIP3      H2             -0.4358595419        9.7744548234       24.0882567381  TIP3      826             0.0000000000
     13639       923  TIP3      OH2             8.8296807924       -3.7862390373       35.1455955861  TIP3      827             0.0000000000
     13640       923  TIP3      H1              7.9782055555       -3.3910599106       34.8612557872  TIP3      827             0.0000000000
     13641       923  TIP3      H2              9.4390240747       -3.3478069622       34.5200202381  TIP3      827             0.0000000000
     13642       924  TIP3      OH2             7.9029870016        0.3230931626       28.9653114368  TIP3      828             0.0000000000
     13643       924  TIP3      H1              7.0687762323       -0.1846306180       28.9822841792  TIP3      828             0.0000000000
     13644       924  TIP3      H2              8.4948957416       -0.1856258881       29.5625086700  TIP3      828             0.0000000000
     13645       925  TIP3      OH2            -3.2084647401        6.8377803671       21.5263676700  TIP3      829             0.0000000000
     13646       925  TIP3      H1             -2.5093010005        6.8825885388       22.1962950163  TIP3      829             0.0000000000
     13647       925  TIP3      H2             -2.8410459656        6.1307597177       20.9630619673  TIP3      829             0.0000000000
     13648       926  TIP3      OH2             8.5109189945        9.6055098848       30.7392345747  TIP3      830             0.0000000000
     13649       926  TIP3      H1              8.3701197853       10.3019478123       30.0675785195  TIP3      830             0.0000000000
     13650       926  TIP3      H2              9.4963096685        9.5954279390       30.8046666058  TIP3      830             0.0000000000
     13651       927  TIP3      OH2            -4.0659481303       -6.0378953493       30.1268222380  TIP3      831             0.0000000000
     13652       927  TIP3      H1             -4.0627917654       -6.3287005811       29.1910659681  TIP3      831             0.0000000000
     13653       927  TIP3      H2             -4.2460291597       -6.9023569176       30.5640438115  TIP3      831             0.0000000000
     13654       928  TIP3      OH2            -5.2849403907        7.5659372315       25.5967992295  TIP3      832             0.0000000000
     13655       928  TIP3      H1             -6.0621670260        8.0888753907       25.8234631922  TIP3      832             0.0000000000
     13656       928  TIP3      H2             -4.9089664585        8.1334666759       24.9002556667  TIP3      832             0.0000000000
     13657       929  TIP3      OH2            -5.8029110219       10.3783026980       37.2178679076  TIP3      833             0.0000000000
     13658       929  TIP3      H1             -5.0355650962       10.2094749751       37.8175126450  TIP3      833             0.0000000000
     13659       929  TIP3      H2             -6.0180970878        9.4874739486       36.8917063348  TIP3      833             0.0000000000
     13660       930  TIP3      OH2            -0.8413033336        8.9682183619       39.0059053875  TIP3      834             0.0000000000
     13661       930  TIP3      H1              0.0723383885        8.6417161728       39.0378428781  TIP3      834             0.0000000000
     13662       930  TIP3      H2             -1.1320028301        8.5513381070       38.1736322145  TIP3      834             0.0000000000
     13663       931  TIP3      OH2             3.3336815302        8.7682136247       20.8733260381  TIP3      835             0.0000000000
     13664       931  TIP3      H1              2.8256818825        7.9974082888       20.5303774497  TIP3      835             0.0000000000
     13665       931  TIP3      H2              3.8012702671        9.0842947950       20.0898689968  TIP3      835             0.0000000000
     13666       932  TIP3      OH2             5.2717411480        7.9416978399       37.4538528872  TIP3      836             0.0000000000
     13667       932  TIP3      H1              5.0425200939        7.1190259309       37.9432180327  TIP3      836             0.0000000000
     13668       932  TIP3      H2              6.1300295772        8.1413346274       37.8998999201  TIP3      836             0.0000000000
     13669       933  TIP3      OH2            -5.4341760296        4.5572842744       39.2048329280  TIP3      837             0.0000000000
     13670       933  TIP3      H1             -5.2188187152        3.6482880139       39.5110072504  TIP3      837             0.0000000000
     13671       933  TIP3      H2             -6.1946809197        4.3463308689       38.6243205596  TIP3      837             0.0000000000
     13672       934  TIP3      OH2            -2.2180091236        4.5256924222       20.3827027509  TIP3      838             0.0000000000
     13673       934  TIP3      H1             -2.1659281624        3.5913590007       20.6323623967  TIP3      838             0.0000000000
     13674       934  TIP3      H2             -1.5107870297        4.6343294557       19.7341706746  TIP3      838             0.0000000000
     13675       935  TIP3      OH2             1.0916573458        4.1625651167       36.9070671735  TIP3      839             0.0000000000
     13676       935  TIP3      H1              0.7144638171        4.7491477328       36.2021625581  TIP3      839             0.0000000000
     13677       935  TIP3      H2              0.9766238985        3.2591784093       36.5305562358  TIP3      839             0.0000000000
     13678       936  TIP3      OH2             6.2551897676        4.0728596198       35.2859583670  TIP3      840             0.0000000000
     13679       936  TIP3      H1              6.5839121504        4.9968419081       35.2619888931  TIP3      840             0.0000000000
     13680       936  TIP3      H2              5.3433984097        4.2205527198       34.9684527374  TIP3      840             0.0000000000
     13681       937  TIP3      OH2            -5.3840733836        1.6663061141       37.0491902354  TIP3      841             0.0000000000
     13682       937  TIP3      H1             -4.4901216330        1.3611065027       37.2284020176  TIP3      841             0.0000000000
     13683       937  TIP3      H2             -5.8164102772        1.3173862858       37.8446593405  TIP3      841             0.0000000000
     13684       938  TIP3      OH2            -1.5795874905        0.4565003882       33.9021650311  TIP3      842             0.0000000000
     13685       938  TIP3      H1             -2.1341118077        1.2521575445       34.1090654314  TIP3      842             0.0000000000
     13686       938  TIP3      H2             -0.7114490341        0.8982006679       33.8083594960  TIP3      842             0.0000000000
     13687       939  TIP3      OH2             4.5003545437        3.2882719206       38.0716225547  TIP3      843             0.0000000000
     13688       939  TIP3      H1              5.0612318184        2.7134113460       37.5150189793  TIP3      843             0.0000000000
     13689       939  TIP3      H2              3.6724353472        2.7855283335       38.0825116326  TIP3      843             0.0000000000
     13690       940  TIP3      OH2            -0.5407401663       -1.4536207304       35.5571679864  TIP3      844             0.0000000000
     13691       940  TIP3      H1             -0.2668828924       -2.2307112470       35.0290868981  TIP3      844             0.0000000000
     13692       940  TIP3      H2             -1.0180577879       -0.8900419141       34.9190062926  TIP3      844             0.0000000000
     13693       941  TIP3      OH2             0.1423292378       -3.6546083433       33.6975936683  TIP3      845             0.0000000000
     13694       941  TIP3      H1              0.7185264163       -3.2935077218       32.9742406896  TIP3      845             0.0000000000
     13695       941  TIP3      H2             -0.7365906566       -3.6126342699       33.2731215157  TIP3      845             0.0000000000
     13696       942  TIP3      OH2             0.8787506307        1.8814858384       33.7529415031  TIP3      846             0.0000000000
     13697       942  TIP3      H1              1.7842810866        2.2294426396       33.8496660170  TIP3      846             0.0000000000
     13698       942  TIP3      H2              0.4640507564        2.5598422446       33.1659278555  TIP3      846             0.0000000000
     13699       943  TIP3      OH2             5.5362432079       -0.0677175919       38.5047534308  TIP3      847             0.0000000000
     13700       943  TIP3      H1              5.5757935041       -0.9861613443       38.1893233299  TIP3      847             0.0000000000
     13701       943  TIP3      H2              6.4499731800        0.2025134444       38.3329869965  TIP3      847             0.0000000000
     13702       944  TIP3      OH2             6.5356102338        1.6702510008       36.4426950530  TIP3      848             0.0000000000
     13703       944  TIP3      H1              6.4525056728        2.4959618262       35.9130336883  TIP3      848             0.0000000000
     13704       944  TIP3      H2              7.2678783864        1.9125106470       37.0423442625  TIP3      848             0.0000000000
     13705       945  TIP3      OH2            -2.1390985282       -0.8625540105       38.2308251098  TIP3      849             0.0000000000
     13706       945  TIP3      H1             -2.8482325984       -1.5233832934       38.1002362363  TIP3      849             0.0000000000
     13707       945  TIP3      H2             -1.8110299467       -0.7341305626       37.3243504030  TIP3      849             0.0000000000
     13708       946  TIP3      OH2             0.9133439983       -6.2572127168       33.4517345604  TIP3      850             0.0000000000
     13709       946  TIP3      H1              0.6552569935       -5.3301984930       33.6390481585  TIP3      850             0.0000000000
     13710       946  TIP3      H2              0.0553286595       -6.6483619239       33.2343959510  TIP3      850             0.0000000000
     13711       947  TIP3      OH2             2.1144359263       -2.1790308600       37.5654557232  TIP3      851             0.0000000000
     13712       947  TIP3      H1              1.6548974670       -2.2917802528       38.4185254306  TIP3      851             0.0000000000
     13713       947  TIP3      H2              1.4471716965       -2.6180436556       37.0111265277  TIP3      851             0.0000000000
     13714       948  TIP3      OH2             4.8156596577       -2.6250337487       37.1580377966  TIP3      852             0.0000000000
     13715       948  TIP3      H1              3.8497177702       -2.6434646768       37.3382013242  TIP3      852             0.0000000000
     13716       948  TIP3      H2              5.1286315111       -3.3138635950       37.7804124363  TIP3      852             0.0000000000
     13717       949  TIP3      OH2             5.9903350082       -4.5921066718       38.7821799742  TIP3      853             0.0000000000
     13718       949  TIP3      H1              6.0136069713       -5.5656228974       38.5918657721  TIP3      853             0.0000000000
     13719       949  TIP3      H2              6.0599715640       -4.6063382843       39.7552402606  TIP3      853             0.0000000000
     13720       950  TIP3      OH2            -3.8858083880       -3.0169205866       37.6319888641  TIP3      854             0.0000000000
     13721       950  TIP3      H1             -3.5866763041       -3.6448641195       36.9504123019  TIP3      854             0.0000000000
     13722       950  TIP3      H2             -4.1246792284       -3.6367561250       38.3520709548  TIP3      854             0.0000000000
     13723       951  TIP3      OH2             0.5438767567       -6.9290950512       36.9474694736  TIP3      855             0.0000000000
     13724       951  TIP3      H1              1.0715855823       -7.7478693608       36.9757565323  TIP3      855             0.0000000000
     13725       951  TIP3      H2              0.6221893706       -6.7057554938       36.0093003027  TIP3      855             0.0000000000
     13726       952  TIP3      OH2             0.6479407813       -5.7584032197       39.3344906888  TIP3      856             0.0000000000
     13727       952  TIP3      H1              0.7408383794       -6.2239384228       38.4762150054  TIP3      856             0.0000000000
     13728       952  TIP3      H2              0.2207701185       -4.9467225120       39.0150562695  TIP3      856             0.0000000000
     13729       953  TIP3      OH2            -5.9784462229        5.8253614791       21.0962550026  TIP3      857             0.0000000000
     13730       953  TIP3      H1             -5.4005149670        6.6137765461       21.1538673379  TIP3      857             0.0000000000
     13731       953  TIP3      H2             -5.3453794645        5.1285317594       21.3339189631  TIP3      857             0.0000000000
     13732       954  TIP3      OH2            -6.8397235352       11.2273439235       26.1897091751  TIP3      858             0.0000000000
     13733       954  TIP3      H1             -7.6464658578       10.8569462757       25.7622638397  TIP3      858             0.0000000000
     13734       954  TIP3      H2             -6.7471034546       10.6617587098       26.9856383724  TIP3      858             0.0000000000
     13735       955  TIP3      OH2            -6.2166268366        9.6920343836       28.3065977921  TIP3      859             0.0000000000
     13736       955  TIP3      H1             -6.5897765224        8.8387627577       28.5676771017  TIP3      859             0.0000000000
     13737       955  TIP3      H2             -5.7133207718        9.9263615428       29.1222954883  TIP3      859             0.0000000000
     13738       956  TIP3      OH2            11.2100192468       10.2488763692       30.9254010761  TIP3      860             0.0000000000
     13739       956  TIP3      H1             11.8190486978       10.3600201012       31.6724867219  TIP3      860             0.0000000000
     13740       956  TIP3      H2             11.7987122208       10.2777485517       30.1591481134  TIP3      860             0.0000000000
     13741       957  TIP3      OH2            11.0315430801        9.8743414510       33.8540863059  TIP3      861             0.0000000000
     13742       957  TIP3      H1             10.5975928077        9.2069980203       33.2694941764  TIP3      861             0.0000000000
     13743       957  TIP3      H2             11.2448093012        9.2955508263       34.6047263274  TIP3      861             0.0000000000
     13744       958  TIP3      OH2             9.3414039280        6.0713337943       39.3365921629  TIP3      862             0.0000000000
     13745       958  TIP3      H1              8.5226514278        5.9458538836       39.8566673712  TIP3      862             0.0000000000
     13746       958  TIP3      H2              9.8890767118        6.5981532938       39.9464067011  TIP3      862             0.0000000000
     13747       959  TIP3      OH2            10.5858296583        4.0339580906       24.1186632426  TIP3      863             0.0000000000
     13748       959  TIP3      H1             11.4763603208        4.3844849063       24.3044444849  TIP3      863             0.0000000000
     13749       959  TIP3      H2             10.5716607798        3.2560382398       24.7176482162  TIP3      863             0.0000000000
     13750       960  TIP3      OH2            11.1376265138        1.7609324910       25.4630831981  TIP3      864             0.0000000000
     13751       960  TIP3      H1             10.4584330834        1.3884106976       26.0625113285  TIP3      864             0.0000000000
     13752       960  TIP3      H2             11.8692756765        1.9058503822       26.1001652346  TIP3      864             0.0000000000
     13753       961  TIP3      OH2            11.1522015149        5.2668775570       29.9629737098  TIP3      865             0.0000000000
     13754       961  TIP3      H1             10.8300438384        4.9209401710       30.8245674578  TIP3      865             0.0000000000
     13755       961  TIP3      H2             10.9442850212        6.1886121562       30.1032442966  TIP3      865             0.0000000000
     13756       962  TIP3      OH2             9.3395803721        7.8292853552       33.0253901644  TIP3      866             0.0000000000
     13757       962  TIP3      H1              8.6226551697        8.4778592124       33.0713532747  TIP3      866             0.0000000000
     13758       962  TIP3      H2              9.0437553390        7.2641279977       32.2771544000  TIP3      866             0.0000000000
     13759       963  TIP3      OH2             9.1192239366        0.5470022029       26.6530583093  TIP3      867             0.0000000000
     13760       963  TIP3      H1              8.7304838529       -0.3216168650       26.4390546300  TIP3      867             0.0000000000
     13761       963  TIP3      H2              8.8753726081        0.5801331314       27.6114327506  TIP3      867             0.0000000000
     13762       964  TIP3      OH2            -6.1296703681        2.9865796306       30.5919656475  TIP3      868             0.0000000000
     13763       964  TIP3      H1             -6.0601063667        2.6723026121       29.6536128431  TIP3      868             0.0000000000
     13764       964  TIP3      H2             -5.2109359025        2.7668019073       30.8748389028  TIP3      868             0.0000000000
     13765       965  TIP3      OH2            10.3686480857        1.9969057882       35.5420489309  TIP3      869             0.0000000000
     13766       965  TIP3      H1             10.5781941865        1.0996224509       35.8921335612  TIP3      869             0.0000000000
     13767       965  TIP3      H2             10.9497703679        2.5292207754       36.1314273849  TIP3      869             0.0000000000
     13768       966  TIP3      OH2            10.7430614723       -0.4671075483       36.3165761800  TIP3      870             0.0000000000
     13769       966  TIP3      H1              9.8708308693       -0.9286499846       36.3570144086  TIP3      870             0.0000000000
     13770       966  TIP3      H2             11.3878884609       -1.1887059545       36.5084637410  TIP3      870             0.0000000000
     13771       967  TIP3      OH2             8.4208455599       -2.0974994727       25.6632210132  TIP3      871             0.0000000000
     13772       967  TIP3      H1              8.4603261206       -3.0629488924       25.5477160129  TIP3      871             0.0000000000
     13773       967  TIP3      H2              9.2781737437       -1.8803969719       25.2794862923  TIP3      871             0.0000000000
     13774       968  TIP3      OH2             9.5379027042       -1.2209317699       30.4287313004  TIP3      872             0.0000000000
     13775       968  TIP3      H1             10.5068720365       -1.0407017139       30.5424463194  TIP3      872             0.0000000000
     13776       968  TIP3      H2              9.2636861973       -1.1460896663       31.3638676927  TIP3      872             0.0000000000
     13777       969  TIP3      OH2             8.9635734482       -0.8759756143       33.1772562753  TIP3      873             0.0000000000
     13778       969  TIP3      H1              8.0866762363       -0.5298610450       33.4370437012  TIP3      873             0.0000000000
     13779       969  TIP3      H2              9.3863212543       -0.0630032019       32.8216325491  TIP3      873             0.0000000000
     13780       970  TIP3      OH2            -6.4120817509       -2.5492189677       36.4508878529  TIP3      874             0.0000000000
     13781       970  TIP3      H1             -5.4639034400       -2.5373889400       36.6870291706  TIP3      874             0.0000000000
     13782       970  TIP3      H2             -6.6962948988       -3.3461919780       36.9384561345  TIP3      874             0.0000000000
     13783       971  TIP3      OH2            11.8140370767       -5.9848143731       39.1010608212  TIP3      875             0.0000000000
     13784       971  TIP3      H1             11.9502564592       -6.7098045550       38.4670536406  TIP3      875             0.0000000000
     13785       971  TIP3      H2             11.6760626411       -5.2204570800       38.4984056546  TIP3      875             0.0000000000
     13786       972  TIP3      OH2             8.7431338418       -4.9026625991       25.1997282486  TIP3      876             0.0000000000
     13787       972  TIP3      H1              9.3149165946       -4.8870548831       26.0027156848  TIP3      876             0.0000000000
     13788       972  TIP3      H2              8.2634137705       -5.7285687833       25.3753045646  TIP3      876             0.0000000000
     13789       973  TIP3      OH2            -5.2862802164       -3.6522180660       30.1256254765  TIP3      877             0.0000000000
     13790       973  TIP3      H1             -4.8853552655       -4.5515579497       30.0434740695  TIP3      877             0.0000000000
     13791       973  TIP3      H2             -4.5043297939       -3.0876657430       30.2909179883  TIP3      877             0.0000000000
     13792       974  TIP3      OH2            -6.5967024350       -0.8357812064       31.1363277051  TIP3      878             0.0000000000
     13793       974  TIP3      H1             -6.2515095917       -1.2296014389       30.3234612936  TIP3      878             0.0000000000
     13794       974  TIP3      H2             -6.0500893539       -0.0402287754       31.2130905276  TIP3      878             0.0000000000
     13795       975  TIP3      OH2            10.9696504799       -4.2922393152       37.2246959458  TIP3      879             0.0000000000
     13796       975  TIP3      H1             10.0492172877       -4.0599031484       37.4603022489  TIP3      879             0.0000000000
     13797       975  TIP3      H2             10.7947580400       -4.7283906822       36.3743551750  TIP3      879             0.0000000000
     13798       976  TIP3      OH2            11.6689855672       -4.8978299669       21.8090550670  TIP3      880             0.0000000000
     13799       976  TIP3      H1             11.9716385271       -5.3512630215       21.0120796126  TIP3      880             0.0000000000
     13800       976  TIP3      H2             11.8141460195       -3.9722781431       21.5445351441  TIP3      880             0.0000000000
     13801       977  TIP3      OH2            -6.3802443329       -4.1046232106       24.9583280845  TIP3      881             0.0000000000
     13802       977  TIP3      H1             -7.3511106658       -4.0501112277       25.0888637939  TIP3      881             0.0000000000
     13803       977  TIP3      H2             -6.3615349214       -4.2792276888       24.0148487406  TIP3      881             0.0000000000
     13804       978  TIP3      OH2             8.2387856617       10.7772816518       26.9476151197  TIP3      882             0.0000000000
     13805       978  TIP3      H1              8.9626111419       10.3766764574       26.4215170368  TIP3      882             0.0000000000
     13806       978  TIP3      H2              8.6731982965       11.1499302568       27.7336453360  TIP3      882             0.0000000000
     13807       979  TIP3      OH2            -6.8838583876       -5.9200580409       33.1610239944  TIP3      883             0.0000000000
     13808       979  TIP3      H1             -7.6415078860       -6.0145526759       33.7825400763  TIP3      883             0.0000000000
     13809       979  TIP3      H2             -7.2315913357       -5.2165268788       32.5854926611  TIP3      883             0.0000000000
     13810       980  TIP3      OH2            -3.8102154310        7.5197277033       37.6831039796  TIP3      884             0.0000000000
     13811       980  TIP3      H1             -4.7354698347        7.6915144504       37.4534502019  TIP3      884             0.0000000000
     13812       980  TIP3      H2             -3.8378380066        6.5738522542       37.9101707881  TIP3      884             0.0000000000
     13813       981  TIP3      OH2            -1.4874589133        8.8583709592       33.7386464936  TIP3      885             0.0000000000
     13814       981  TIP3      H1             -1.6094473669        9.7768281057       33.4106491594  TIP3      885             0.0000000000
     13815       981  TIP3      H2             -0.5174936321        8.7545670524       33.5924154919  TIP3      885             0.0000000000
     13816       982  TIP3      OH2             2.5613515573        9.8461492769       35.9617559292  TIP3      886             0.0000000000
     13817       982  TIP3      H1              2.6577546183        9.7143320795       36.9262257180  TIP3      886             0.0000000000
     13818       982  TIP3      H2              3.4391464501       10.2628961629       35.7907800913  TIP3      886             0.0000000000
     13819       983  TIP3      OH2             4.7363500995       11.3535661572       35.9529956211  TIP3      887             0.0000000000
     13820       983  TIP3      H1              5.5302587592       11.2783744702       35.4045349209  TIP3      887             0.0000000000
     13821       983  TIP3      H2              5.0993361367       11.6336136340       36.8248399633  TIP3      887             0.0000000000
     13822       984  TIP3      OH2            10.2876615168       -6.4935188324       35.0516962225  TIP3      888             0.0000000000
     13823       984  TIP3      H1              9.5375759062       -6.1304659258       34.5682681200  TIP3      888             0.0000000000
     13824       984  TIP3      H2             10.3657006771       -7.3882270459       34.6587967323  TIP3      888             0.0000000000
     13825       985  TIP3      OH2            -4.6759711487       11.6093487233       33.2865133126  TIP3      889             0.0000000000
     13826       985  TIP3      H1             -5.3742128932       12.0833099661       32.7860694973  TIP3      889             0.0000000000
     13827       985  TIP3      H2             -4.5244375017       12.1875355311       34.0518858355  TIP3      889             0.0000000000
     13828       986  TIP3      OH2            -2.1658488932       11.0981321028       32.4999131855  TIP3      890             0.0000000000
     13829       986  TIP3      H1             -3.1356332331       11.1899354199       32.6430875071  TIP3      890             0.0000000000
     13830       986  TIP3      H2             -2.0418634799       11.5804438089       31.6640039511  TIP3      890             0.0000000000
     13831       987  TIP3      OH2             3.0716446694       11.1370573753       31.7546528981  TIP3      891             0.0000000000
     13832       987  TIP3      H1              2.3437010032       11.4592020449       31.1883514949  TIP3      891             0.0000000000
     13833       987  TIP3      H2              3.0978788386       11.8581571159       32.4203686131  TIP3      891             0.0000000000
     13834       988  TIP3      OH2             5.0959949867        9.6978613950       33.2723761433  TIP3      892             0.0000000000
     13835       988  TIP3      H1              4.3466869468       10.2634477504       33.0176369929  TIP3      892             0.0000000000
     13836       988  TIP3      H2              5.8107020224       10.1906293924       32.8404417758  TIP3      892             0.0000000000
     13837       989  TIP3      OH2             8.0364146857       11.3381956890       32.8737187116  TIP3      893             0.0000000000
     13838       989  TIP3      H1              8.1158419801       12.2389798509       32.4844890480  TIP3      893             0.0000000000
     13839       989  TIP3      H2              8.1637390826       10.8095206777       32.0579157865  TIP3      893             0.0000000000
     13840       990  TIP3      OH2            -4.6116902746       10.0625000103       30.4923458884  TIP3      894             0.0000000000
     13841       990  TIP3      H1             -4.6668604728        9.4026996597       31.2160398465  TIP3      894             0.0000000000
     13842       990  TIP3      H2             -3.7054763712        9.8751954870       30.1434777683  TIP3      894             0.0000000000
     13843       991  TIP3      OH2            -2.3604874112        9.3667716305       29.1924145491  TIP3      895             0.0000000000
     13844       991  TIP3      H1             -2.5637470199        8.4234643400       29.4274253348  TIP3      895             0.0000000000
     13845       991  TIP3      H2             -1.4788747420        9.4510818111       29.6082056290  TIP3      895             0.0000000000
     13846       992  TIP3      OH2             0.0407367955        9.3152692613       30.3859808078  TIP3      896             0.0000000000
     13847       992  TIP3      H1              0.3757517582        8.4094578827       30.2384453605  TIP3      896             0.0000000000
     13848       992  TIP3      H2              0.0002725578        9.3608094782       31.3547578199  TIP3      896             0.0000000000
     13849       993  TIP3      OH2             2.7065482764       -5.5373012690       28.6336967403  TIP3      897             0.0000000000
     13850       993  TIP3      H1              2.1075660723       -6.0205607665       29.2536641575  TIP3      897             0.0000000000
     13851       993  TIP3      H2              3.5504325850       -5.9713750183       28.7962074702  TIP3      897             0.0000000000
     13852       994  TIP3      OH2             8.5582811702       -6.9975413457       29.1513020039  TIP3      898             0.0000000000
     13853       994  TIP3      H1              9.1426424256       -6.3070915630       28.7894643497  TIP3      898             0.0000000000
     13854       994  TIP3      H2              7.6753690940       -6.6345480584       28.9061697420  TIP3      898             0.0000000000
     13855       995  TIP3      OH2             9.9690450720       -5.3129002124       27.6122270183  TIP3      899             0.0000000000
     13856       995  TIP3      H1             10.5516357193       -6.0341138135       27.2629025125  TIP3      899             0.0000000000
     13857       995  TIP3      H2             10.6665389801       -4.6504673900       27.8609650355  TIP3      899             0.0000000000
     13858       996  TIP3      OH2            -4.0720242582       -6.3637315419       27.3434174902  TIP3      900             0.0000000000
     13859       996  TIP3      H1             -4.8466949534       -6.3467871696       26.7617009910  TIP3      900             0.0000000000
     13860       996  TIP3      H2             -3.6792092394       -7.2412326681       27.1020135651  TIP3      900             0.0000000000
     13861       997  TIP3      OH2             0.2974869387       -7.1356228667       26.8940371588  TIP3      901             0.0000000000
     13862       997  TIP3      H1              0.1763412385       -6.2343781804       26.5828926266  TIP3      901             0.0000000000
     13863       997  TIP3      H2              0.7103541732       -7.0154001311       27.7612688860  TIP3      901             0.0000000000
     13864       998  TIP3      OH2             6.0482590279       -6.3728290418       28.4290295899  TIP3      902             0.0000000000
     13865       998  TIP3      H1              5.6202856286       -6.0005678368       27.6475351668  TIP3      902             0.0000000000
     13866       998  TIP3      H2              5.5387864794       -7.1998008046       28.5762021725  TIP3      902             0.0000000000
     13867       999  TIP3      OH2            -5.4069469470        9.6346539699       23.7599057706  TIP3      903             0.0000000000
     13868       999  TIP3      H1             -6.3473783115        9.5374135936       23.5051998568  TIP3      903             0.0000000000
     13869       999  TIP3      H2             -5.3193682193       10.5889795297       23.5510209944  TIP3      903             0.0000000000
     13870      1000  TIP3      OH2             9.8960327629        9.7044949499       25.1318052881  TIP3      904             0.0000000000
     13871      1000  TIP3      H1              9.7430699337        8.9237464402       24.5540034743  TIP3      904             0.0000000000
     13872      1000  TIP3      H2              9.7522272370       10.4387984399       24.4941331690  TIP3      904             0.0000000000
     13873      1001  TIP3      OH2            -4.4372184678       -5.6475088894       36.1046852757  TIP3      905             0.0000000000
     13874      1001  TIP3      H1             -5.1664339625       -6.1526268967       36.5061369939  TIP3      905             0.0000000000
     13875      1001  TIP3      H2             -3.6740667348       -6.0788301130       36.5634113384  TIP3      905             0.0000000000
     13876      1002  TIP3      OH2            -2.3637999514       -6.8237846063       37.4851038161  TIP3      906             0.0000000000
     13877      1002  TIP3      H1             -1.3949061461       -6.7429374926       37.5453899659  TIP3      906             0.0000000000
     13878      1002  TIP3      H2             -2.4856475705       -7.6701982988       37.9527171536  TIP3      906             0.0000000000
     13879      1003  TIP3      OH2            -2.9697493651       11.0114362939       21.3712448422  TIP3      907             0.0000000000
     13880      1003  TIP3      H1             -3.6864412036       10.9220463608       22.0187208421  TIP3      907             0.0000000000
     13881      1003  TIP3      H2             -2.6050813450       10.1133476984       21.3744797976  TIP3      907             0.0000000000
     13882      1004  TIP3      OH2             6.4149213662       -7.2436604935       38.6477347064  TIP3      908             0.0000000000
     13883      1004  TIP3      H1              6.5027027237       -7.9298364983       39.3257583100  TIP3      908             0.0000000000
     13884      1004  TIP3      H2              7.2198414161       -7.3675520447       38.1027275511  TIP3      908             0.0000000000
     13885      1005  TIP3      OH2             9.4277321986        9.1079355708       36.6413923526  TIP3      909             0.0000000000
     13886      1005  TIP3      H1              8.8921020171        9.0846805919       35.8144534798  TIP3      909             0.0000000000
     13887      1005  TIP3      H2              9.3807682165       10.0647181294       36.8389386887  TIP3      909             0.0000000000
     13888      1006  TIP3      OH2            23.1776503865        2.7993548324       26.5802806151  TIP3      910             0.0000000000
     13889      1006  TIP3      H1             23.1934878366        3.7592703096       26.7174113236  TIP3      910             0.0000000000
     13890      1006  TIP3      H2             22.5203840746        2.7137851167       25.8638886495  TIP3      910             0.0000000000
     13891      1007  TIP3      OH2            22.8828188058        1.9680517331       30.1199509653  TIP3      911             0.0000000000
     13892      1007  TIP3      H1             22.6804761305        1.6218642652       31.0079153714  TIP3      911             0.0000000000
     13893      1007  TIP3      H2             22.0642455069        1.7918854811       29.6417189626  TIP3      911             0.0000000000
     13894      1008  TIP3      OH2            15.3044962009        1.8812587552       31.6729739441  TIP3      912             0.0000000000
     13895      1008  TIP3      H1             15.1093274860        1.0244713408       32.0862592907  TIP3      912             0.0000000000
     13896      1008  TIP3      H2             15.6651631135        2.4065136513       32.4148336478  TIP3      912             0.0000000000
     13897      1009  TIP3      OH2            15.6406717196        6.4338222378       29.8328595191  TIP3      913             0.0000000000
     13898      1009  TIP3      H1             15.5573026137        5.4653518338       29.6834047860  TIP3      913             0.0000000000
     13899      1009  TIP3      H2             16.4642003250        6.5008224724       30.3552345344  TIP3      913             0.0000000000
     13900      1010  TIP3      OH2            12.8179264363       -0.5085724466       25.4584100147  TIP3      914             0.0000000000
     13901      1010  TIP3      H1             12.7665656583        0.4633368309       25.4998115137  TIP3      914             0.0000000000
     13902      1010  TIP3      H2             11.9449099869       -0.7142352955       25.1041493908  TIP3      914             0.0000000000
     13903      1011  TIP3      OH2            13.0126057402        1.7367448361       27.3707735861  TIP3      915             0.0000000000
     13904      1011  TIP3      H1             13.4113636721        1.0372445264       27.9428367847  TIP3      915             0.0000000000
     13905      1011  TIP3      H2             13.5972804684        2.4894840755       27.5475660898  TIP3      915             0.0000000000
     13906      1012  TIP3      OH2            23.8571232710       10.2374351910       28.5500272336  TIP3      916             0.0000000000
     13907      1012  TIP3      H1             24.2095261516        9.5246502193       27.9660305575  TIP3      916             0.0000000000
     13908      1012  TIP3      H2             23.6995836130        9.7635802163       29.3776158651  TIP3      916             0.0000000000
     13909      1013  TIP3      OH2            21.1273663100        4.1476156493       31.1922327041  TIP3      917             0.0000000000
     13910      1013  TIP3      H1             20.9466326126        4.7784529300       30.4570792748  TIP3      917             0.0000000000
     13911      1013  TIP3      H2             22.0779565962        4.3006368437       31.3253710592  TIP3      917             0.0000000000
     13912      1014  TIP3      OH2            23.7345134840       -0.9818359221       31.0690191978  TIP3      918             0.0000000000
     13913      1014  TIP3      H1             24.6920293544       -1.1537199372       31.0428327606  TIP3      918             0.0000000000
     13914      1014  TIP3      H2             23.6373262991       -0.6526338970       30.1402448631  TIP3      918             0.0000000000
     13915      1015  TIP3      OH2            17.5725195407       -3.1781803398       27.9970783888  TIP3      919             0.0000000000
     13916      1015  TIP3      H1             17.6814641314       -2.2971140002       27.5746872283  TIP3      919             0.0000000000
     13917      1015  TIP3      H2             16.8145414395       -3.5268937604       27.4994684074  TIP3      919             0.0000000000
     13918      1016  TIP3      OH2            24.4727442416       -2.9718464520       27.0641580302  TIP3      920             0.0000000000
     13919      1016  TIP3      H1             25.2884810728       -3.4652171254       27.3368218701  TIP3      920             0.0000000000
     13920      1016  TIP3      H2             24.9103982977       -2.1152013887       26.8869869722  TIP3      920             0.0000000000
     13921      1017  TIP3      OH2            14.3024415159       -0.0604783927       28.9234519013  TIP3      921             0.0000000000
     13922      1017  TIP3      H1             14.6839038735       -0.5372545218       29.6818065734  TIP3      921             0.0000000000
     13923      1017  TIP3      H2             14.4586776336       -0.7103953191       28.1898130055  TIP3      921             0.0000000000
     13924      1018  TIP3      OH2            18.6750892636        1.1570520133       28.2069002826  TIP3      922             0.0000000000
     13925      1018  TIP3      H1             19.3954195637        0.6356787404       28.6171007024  TIP3      922             0.0000000000
     13926      1018  TIP3      H2             18.2078102050        0.4570496286       27.6875015526  TIP3      922             0.0000000000
     13927      1019  TIP3      OH2            16.5143554827       -3.9591764682       32.3070995467  TIP3      923             0.0000000000
     13928      1019  TIP3      H1             16.1987716442       -3.3703111656       31.5906772318  TIP3      923             0.0000000000
     13929      1019  TIP3      H2             15.7206245006       -3.8936025405       32.8729779278  TIP3      923             0.0000000000
     13930      1020  TIP3      OH2            22.4807992901        5.6039644590       26.0127768391  TIP3      924             0.0000000000
     13931      1020  TIP3      H1             22.6703159286        6.1466126378       25.2356159600  TIP3      924             0.0000000000
     13932      1020  TIP3      H2             22.1342247684        6.2757151942       26.6167776395  TIP3      924             0.0000000000
     13933      1021  TIP3      OH2            18.7319028012        3.7487949063       32.0165142617  TIP3      925             0.0000000000
     13934      1021  TIP3      H1             18.1515638456        4.5137798689       32.2223285513  TIP3      925             0.0000000000
     13935      1021  TIP3      H2             19.5352756416        4.1900897324       31.6437593014  TIP3      925             0.0000000000
     13936      1022  TIP3      OH2            15.8971919277       -1.9637315316       30.2946731494  TIP3      926             0.0000000000
     13937      1022  TIP3      H1             16.4138806635       -1.2750976493       30.7789397413  TIP3      926             0.0000000000
     13938      1022  TIP3      H2             16.4290314738       -2.0791765149       29.4823535566  TIP3      926             0.0000000000
     13939      1023  TIP3      OH2            16.7024036100        5.1093228853       33.1510112641  TIP3      927             0.0000000000
     13940      1023  TIP3      H1             17.0286029740        5.8727992246       32.6200022733  TIP3      927             0.0000000000
     13941      1023  TIP3      H2             15.8372853675        5.4232990325       33.4800158825  TIP3      927             0.0000000000
     13942      1024  TIP3      OH2            13.1200688495        4.9701110990       24.3025559540  TIP3      928             0.0000000000
     13943      1024  TIP3      H1             12.8263334646        5.7293324731       23.7737349870  TIP3      928             0.0000000000
     13944      1024  TIP3      H2             13.2627322640        5.4369472424       25.1490511026  TIP3      928             0.0000000000
     13945      1025  TIP3      OH2            19.7041988181       -6.6939891924       29.7384608126  TIP3      929             0.0000000000
     13946      1025  TIP3      H1             19.3445486446       -7.5847175064       29.8901191194  TIP3      929             0.0000000000
     13947      1025  TIP3      H2             18.9013675980       -6.1626786025       29.9909695613  TIP3      929             0.0000000000
     13948      1026  TIP3      OH2            25.0202663929        8.5001395437       27.0027923260  TIP3      930             0.0000000000
     13949      1026  TIP3      H1             25.0760745728        7.5411138228       26.9480778039  TIP3      930             0.0000000000
     13950      1026  TIP3      H2             25.8451153013        8.7360339280       27.4818682940  TIP3      930             0.0000000000
     13951      1027  TIP3      OH2            21.8475866839        2.0019571801       24.2094428283  TIP3      931             0.0000000000
     13952      1027  TIP3      H1             21.3832114948        2.7570144375       23.8324452927  TIP3      931             0.0000000000
     13953      1027  TIP3      H2             21.9041890321        1.4219851931       23.4339731535  TIP3      931             0.0000000000
     13954      1028  TIP3      OH2            25.3708763662        1.5954110048       25.5039093088  TIP3      932             0.0000000000
     13955      1028  TIP3      H1             24.6003536400        1.9257149336       26.0073215192  TIP3      932             0.0000000000
     13956      1028  TIP3      H2             26.1087586415        2.0988388532       25.8949801626  TIP3      932             0.0000000000
     13957      1029  TIP3      OH2            25.0578404111        0.0563992098       34.1443321914  TIP3      933             0.0000000000
     13958      1029  TIP3      H1             24.6548964438        0.5954484357       34.8410167592  TIP3      933             0.0000000000
     13959      1029  TIP3      H2             24.5495478935        0.2920794562       33.3499052818  TIP3      933             0.0000000000
     13960      1030  TIP3      OH2            17.0456144021        3.2383179012       27.4778683578  TIP3      934             0.0000000000
     13961      1030  TIP3      H1             16.6515235695        3.0186033234       26.6038329630  TIP3      934             0.0000000000
     13962      1030  TIP3      H2             17.7260952398        2.5360284926       27.5711899871  TIP3      934             0.0000000000
     13963      1031  TIP3      OH2            20.1747125828        6.0053168129       29.5067125021  TIP3      935             0.0000000000
     13964      1031  TIP3      H1             19.4800440045        6.0519992007       28.8380694486  TIP3      935             0.0000000000
     13965      1031  TIP3      H2             19.7554135275        6.4816641256       30.2411236501  TIP3      935             0.0000000000
     13966      1032  TIP3      OH2            17.9039382386        1.5658708574       30.7429731574  TIP3      936             0.0000000000
     13967      1032  TIP3      H1             18.0524196247        1.6521119749       29.7753744327  TIP3      936             0.0000000000
     13968      1032  TIP3      H2             18.2869003204        2.4000318532       31.1100974794  TIP3      936             0.0000000000
     13969      1033  TIP3      OH2            24.0914191318        7.6983748800       31.4343549888  TIP3      937             0.0000000000
     13970      1033  TIP3      H1             24.4666841761        8.3019082464       32.1069632182  TIP3      937             0.0000000000
     13971      1033  TIP3      H2             24.2261977593        6.8245926639       31.8344922393  TIP3      937             0.0000000000
     13972      1034  TIP3      OH2            18.4837192209        5.4532504524       35.2754337677  TIP3      938             0.0000000000
     13973      1034  TIP3      H1             18.1511687478        6.3105676566       35.6214210746  TIP3      938             0.0000000000
     13974      1034  TIP3      H2             17.8991292539        5.3411409789       34.4927553816  TIP3      938             0.0000000000
     13975      1035  TIP3      OH2            25.0844984924        1.3407019534       22.9014015337  TIP3      939             0.0000000000
     13976      1035  TIP3      H1             25.1684362670        1.4330003630       23.8848139643  TIP3      939             0.0000000000
     13977      1035  TIP3      H2             24.8162267907        2.2430605353       22.7045702106  TIP3      939             0.0000000000
     13978      1036  TIP3      OH2            15.6624126715        2.3954973635       34.4028257063  TIP3      940             0.0000000000
     13979      1036  TIP3      H1             15.6209753304        3.0097794052       35.1551845469  TIP3      940             0.0000000000
     13980      1036  TIP3      H2             14.7310668568        2.0695984126       34.3831795468  TIP3      940             0.0000000000
     13981      1037  TIP3      OH2            22.1993150926        8.6378901357       25.7991404041  TIP3      941             0.0000000000
     13982      1037  TIP3      H1             22.7946003688        8.9462173475       26.4960349040  TIP3      941             0.0000000000
     13983      1037  TIP3      H2             21.7323191463        9.4543748717       25.5244202450  TIP3      941             0.0000000000
     13984      1038  TIP3      OH2            17.7262813895        7.9983961398       36.5085236397  TIP3      942             0.0000000000
     13985      1038  TIP3      H1             17.8884762073        8.5739735172       35.7256383777  TIP3      942             0.0000000000
     13986      1038  TIP3      H2             16.7567406037        8.0467656169       36.4661296943  TIP3      942             0.0000000000
     13987      1039  TIP3      OH2            15.9388307281        1.8713979194       25.1972863583  TIP3      943             0.0000000000
     13988      1039  TIP3      H1             15.4623632446        2.4125718314       24.5537776988  TIP3      943             0.0000000000
     13989      1039  TIP3      H2             16.0859487678        1.0558927355       24.6990396714  TIP3      943             0.0000000000
     13990      1040  TIP3      OH2            13.0632904120        4.4169534482       33.7286456872  TIP3      944             0.0000000000
     13991      1040  TIP3      H1             12.2634499965        4.5435179342       33.1589542713  TIP3      944             0.0000000000
     13992      1040  TIP3      H2             13.3235824711        3.5357868727       33.4230617015  TIP3      944             0.0000000000
     13993      1041  TIP3      OH2            12.6528219135        7.5530242956       29.8931840542  TIP3      945             0.0000000000
     13994      1041  TIP3      H1             12.9784688838        6.6489629933       29.7053710889  TIP3      945             0.0000000000
     13995      1041  TIP3      H2             13.2161400861        7.7970580548       30.6432221699  TIP3      945             0.0000000000
     13996      1042  TIP3      OH2            21.7246050122        7.1873275048       35.2097108913  TIP3      946             0.0000000000
     13997      1042  TIP3      H1             21.8188200877        8.0696819583       35.6220267951  TIP3      946             0.0000000000
     13998      1042  TIP3      H2             20.9544942474        7.3473097653       34.6398144354  TIP3      946             0.0000000000
     13999      1043  TIP3      OH2            21.7500557597       11.1583648398       24.6952181351  TIP3      947             0.0000000000
     14000      1043  TIP3      H1             21.9659439993       11.3946183993       23.7692245174  TIP3      947             0.0000000000
     14001      1043  TIP3      H2             21.8416822201       12.0178076469       25.1618887163  TIP3      947             0.0000000000
     14002      1044  TIP3      OH2            15.6581976963        9.7886319528       26.8108054224  TIP3      948             0.0000000000
     14003      1044  TIP3      H1             16.1241618743        9.5593410363       27.6459033297  TIP3      948             0.0000000000
     14004      1044  TIP3      H2             14.7747239677        9.4632600611       27.0105732439  TIP3      948             0.0000000000
     14005      1045  TIP3      OH2            24.5168329701       10.4677441940       24.4413551115  TIP3      949             0.0000000000
     14006      1045  TIP3      H1             23.5691309448       10.2443458883       24.4522630382  TIP3      949             0.0000000000
     14007      1045  TIP3      H2             24.9048963373        9.6097956946       24.2069879198  TIP3      949             0.0000000000
     14008      1046  TIP3      OH2            14.7241015841        6.3596978981       34.6540008454  TIP3      950             0.0000000000
     14009      1046  TIP3      H1             14.9910478325        5.9086726179       35.4707640404  TIP3      950             0.0000000000
     14010      1046  TIP3      H2             14.0626363006        5.7187390429       34.3189118461  TIP3      950             0.0000000000
     14011      1047  TIP3      OH2            17.3964153490       -5.6585096058       30.4782917305  TIP3      951             0.0000000000
     14012      1047  TIP3      H1             16.4900940048       -5.7024595750       30.1156604475  TIP3      951             0.0000000000
     14013      1047  TIP3      H2             17.2670097401       -4.9786373483       31.1694606704  TIP3      951             0.0000000000
     14014      1048  TIP3      OH2            22.1698533517       -6.3100943090       33.9581820388  TIP3      952             0.0000000000
     14015      1048  TIP3      H1             22.4089578370       -6.4594086278       34.8911998632  TIP3      952             0.0000000000
     14016      1048  TIP3      H2             21.1860886887       -6.2633332758       33.9561234719  TIP3      952             0.0000000000
     14017      1049  TIP3      OH2            26.3571869688       -2.1490844805       35.0287706033  TIP3      953             0.0000000000
     14018      1049  TIP3      H1             25.4928238880       -2.3290925960       35.4443304439  TIP3      953             0.0000000000
     14019      1049  TIP3      H2             26.1516445531       -1.2670509006       34.6356459626  TIP3      953             0.0000000000
     14020      1050  TIP3      OH2            17.8521619151       -0.8281498704       31.8192842522  TIP3      954             0.0000000000
     14021      1050  TIP3      H1             17.2786947866       -0.6260546122       32.5853334132  TIP3      954             0.0000000000
     14022      1050  TIP3      H2             17.7895499999        0.0444168584       31.3578601693  TIP3      954             0.0000000000
     14023      1051  TIP3      OH2            17.1933526568       -0.7894133197       26.9773251630  TIP3      955             0.0000000000
     14024      1051  TIP3      H1             16.2390621490       -0.8627445586       26.7627649145  TIP3      955             0.0000000000
     14025      1051  TIP3      H2             17.6456211438       -0.8463535360       26.0979067421  TIP3      955             0.0000000000
     14026      1052  TIP3      OH2            22.5852773557       -0.3639255038       25.5543118330  TIP3      956             0.0000000000
     14027      1052  TIP3      H1             22.3541043833        0.5007585069       25.1513912102  TIP3      956             0.0000000000
     14028      1052  TIP3      H2             23.5101891069       -0.4750022273       25.2388493113  TIP3      956             0.0000000000
     14029      1053  TIP3      OH2            22.1853052627        0.1442657344       36.8881243265  TIP3      957             0.0000000000
     14030      1053  TIP3      H1             21.7433144921       -0.6761636391       37.2142601434  TIP3      957             0.0000000000
     14031      1053  TIP3      H2             22.9688916098        0.1689846623       37.4667240761  TIP3      957             0.0000000000
     14032      1054  TIP3      OH2            23.5353112490       -0.5462872807       28.3234529918  TIP3      958             0.0000000000
     14033      1054  TIP3      H1             23.2154185712        0.0591421662       27.6246426180  TIP3      958             0.0000000000
     14034      1054  TIP3      H2             23.6017948529       -1.3742757345       27.8126469890  TIP3      958             0.0000000000
     14035      1055  TIP3      OH2            14.9897936550       -0.7112856301       32.8173827811  TIP3      959             0.0000000000
     14036      1055  TIP3      H1             15.3022636692       -0.2569104099       33.6167354970  TIP3      959             0.0000000000
     14037      1055  TIP3      H2             14.7892035065       -1.6129701213       33.1484930413  TIP3      959             0.0000000000
     14038      1056  TIP3      OH2            12.0225095961       -3.6543555804       27.8888507353  TIP3      960             0.0000000000
     14039      1056  TIP3      H1             12.8193488666       -3.5550429782       28.4321478146  TIP3      960             0.0000000000
     14040      1056  TIP3      H2             12.2859073610       -3.3908956959       26.9851064527  TIP3      960             0.0000000000
     14041      1057  TIP3      OH2            13.2713780997       -2.3123303503       22.6833159965  TIP3      961             0.0000000000
     14042      1057  TIP3      H1             13.6323316957       -1.8096684209       21.9279900123  TIP3      961             0.0000000000
     14043      1057  TIP3      H2             12.5859157624       -1.7164637114       22.9885983924  TIP3      961             0.0000000000
     14044      1058  TIP3      OH2            22.4381796037        0.8444858851       32.6382210280  TIP3      962             0.0000000000
     14045      1058  TIP3      H1             22.8144917570        0.1290893752       32.0747352264  TIP3      962             0.0000000000
     14046      1058  TIP3      H2             22.1857425505        0.2822382017       33.4059982636  TIP3      962             0.0000000000
     14047      1059  TIP3      OH2            20.4387642009       -3.0551920496       27.8699190351  TIP3      963             0.0000000000
     14048      1059  TIP3      H1             19.5503949686       -2.9440928578       28.2623309658  TIP3      963             0.0000000000
     14049      1059  TIP3      H2             20.8155060733       -3.7669141533       28.4224093506  TIP3      963             0.0000000000
     14050      1060  TIP3      OH2            14.6747796527       -1.7087588295       26.8880332668  TIP3      964             0.0000000000
     14051      1060  TIP3      H1             14.0906236685       -1.3122209846       26.1990897135  TIP3      964             0.0000000000
     14052      1060  TIP3      H2             14.8831858846       -2.5964957324       26.5151759506  TIP3      964             0.0000000000
     14053      1061  TIP3      OH2            18.7268276013       -0.9874697218       24.7750931550  TIP3      965             0.0000000000
     14054      1061  TIP3      H1             19.5561878670       -1.3464698426       24.4246630866  TIP3      965             0.0000000000
     14055      1061  TIP3      H2             18.4032027958       -0.4333985237       24.0301446399  TIP3      965             0.0000000000
     14056      1062  TIP3      OH2            24.9233968554       -4.4312595716       31.0891103929  TIP3      966             0.0000000000
     14057      1062  TIP3      H1             24.0074126820       -4.2260354615       31.3243523096  TIP3      966             0.0000000000
     14058      1062  TIP3      H2             24.8317913552       -4.9305037491       30.2495664762  TIP3      966             0.0000000000
     14059      1063  TIP3      OH2            17.3334085916       -0.0399432721       22.4891412906  TIP3      967             0.0000000000
     14060      1063  TIP3      H1             16.5866269055       -0.3049701026       21.9353897860  TIP3      967             0.0000000000
     14061      1063  TIP3      H2             17.9691054018        0.3574779030       21.8699336717  TIP3      967             0.0000000000
     14062      1064  TIP3      OH2            15.3080319165        4.3800892138       36.4490478888  TIP3      968             0.0000000000
     14063      1064  TIP3      H1             15.9380246188        4.5783422849       37.1740313134  TIP3      968             0.0000000000
     14064      1064  TIP3      H2             14.6066240395        3.9512255439       36.9747318326  TIP3      968             0.0000000000
     14065      1065  TIP3      OH2            20.9960251027       -0.2302956563       29.3210689202  TIP3      969             0.0000000000
     14066      1065  TIP3      H1             21.8005253606       -0.5688456164       28.8814845917  TIP3      969             0.0000000000
     14067      1065  TIP3      H2             21.1351577794       -0.5150406437       30.2298862837  TIP3      969             0.0000000000
     14068      1066  TIP3      OH2            15.6300750562       -4.1564106861       26.3721861002  TIP3      970             0.0000000000
     14069      1066  TIP3      H1             15.1458134999       -4.8947814940       26.7861646171  TIP3      970             0.0000000000
     14070      1066  TIP3      H2             16.4134390601       -4.6194189478       26.0660785603  TIP3      970             0.0000000000
     14071      1067  TIP3      OH2            20.0416666398       -2.4643109154       31.7754687612  TIP3      971             0.0000000000
     14072      1067  TIP3      H1             19.3151070741       -1.8013662257       31.7775105822  TIP3      971             0.0000000000
     14073      1067  TIP3      H2             20.7106024925       -2.0532838035       32.3340771544  TIP3      971             0.0000000000
     14074      1068  TIP3      OH2            20.0984415108        4.7476047376       23.6402326253  TIP3      972             0.0000000000
     14075      1068  TIP3      H1             19.4750158330        4.1466402525       24.0701461078  TIP3      972             0.0000000000
     14076      1068  TIP3      H2             20.3844166310        5.2007484928       24.4564523719  TIP3      972             0.0000000000
     14077      1069  TIP3      OH2            22.2145336386        4.3524801242       34.9043136971  TIP3      973             0.0000000000
     14078      1069  TIP3      H1             23.1186475819        4.2545151682       35.2813325940  TIP3      973             0.0000000000
     14079      1069  TIP3      H2             22.0325528057        5.3194916705       34.9745559497  TIP3      973             0.0000000000
     14080      1070  TIP3      OH2            24.8749911638       -0.9797903924       24.2351773645  TIP3      974             0.0000000000
     14081      1070  TIP3      H1             25.3097256191       -1.7789890215       23.9074062119  TIP3      974             0.0000000000
     14082      1070  TIP3      H2             25.0410732851       -0.3562447686       23.4896552479  TIP3      974             0.0000000000
     14083      1071  TIP3      OH2            15.3662308056        3.6376282530       29.5917006283  TIP3      975             0.0000000000
     14084      1071  TIP3      H1             16.0244779763        3.5712004630       28.8724280636  TIP3      975             0.0000000000
     14085      1071  TIP3      H2             15.6621393469        2.9182154065       30.1953256348  TIP3      975             0.0000000000
     14086      1072  TIP3      OH2            13.0271382716        1.2912003507       34.4472586450  TIP3      976             0.0000000000
     14087      1072  TIP3      H1             13.1517687177        1.3680598874       35.4102451038  TIP3      976             0.0000000000
     14088      1072  TIP3      H2             12.0815786110        1.0686185718       34.3880498288  TIP3      976             0.0000000000
     14089      1073  TIP3      OH2            19.6469465351        1.3129867723       36.3545232385  TIP3      977             0.0000000000
     14090      1073  TIP3      H1             19.1215513731        0.7085573444       35.7925310352  TIP3      977             0.0000000000
     14091      1073  TIP3      H2             20.4832836703        0.8041633604       36.4663140691  TIP3      977             0.0000000000
     14092      1074  TIP3      OH2            24.5073929285        6.5370384859       35.0434192616  TIP3      978             0.0000000000
     14093      1074  TIP3      H1             23.5796518787        6.7900218644       34.9004007030  TIP3      978             0.0000000000
     14094      1074  TIP3      H2             24.7856739506        7.2499224986       35.6502749632  TIP3      978             0.0000000000
     14095      1075  TIP3      OH2            25.0534738276        2.9520034708       31.3048048725  TIP3      979             0.0000000000
     14096      1075  TIP3      H1             24.3888274835        2.6871314188       30.6262599645  TIP3      979             0.0000000000
     14097      1075  TIP3      H2             25.8555258722        3.1976388499       30.8066044607  TIP3      979             0.0000000000
     14098      1076  TIP3      OH2            17.9522895612        7.1317497772       27.1255717757  TIP3      980             0.0000000000
     14099      1076  TIP3      H1             18.3325680194        8.0292459683       27.1697378849  TIP3      980             0.0000000000
     14100      1076  TIP3      H2             17.0676935631        7.3072977703       26.7919101091  TIP3      980             0.0000000000
     14101      1077  TIP3      OH2            19.2120227665        4.8094516665       26.2190221929  TIP3      981             0.0000000000
     14102      1077  TIP3      H1             18.7437480708        5.6165421162       26.5265135619  TIP3      981             0.0000000000
     14103      1077  TIP3      H2             19.1186377098        4.2446679305       26.9936471072  TIP3      981             0.0000000000
     14104      1078  TIP3      OH2            20.3754844350        9.7927931702       32.3321493856  TIP3      982             0.0000000000
     14105      1078  TIP3      H1             21.2612781921       10.1813457835       32.1458745190  TIP3      982             0.0000000000
     14106      1078  TIP3      H2             20.6094480475        8.8860895666       32.5855262435  TIP3      982             0.0000000000
     14107      1079  TIP3      OH2            18.4467074013       10.0261869128       25.9291112049  TIP3      983             0.0000000000
     14108      1079  TIP3      H1             17.4715140674        9.9917989877       25.9825505201  TIP3      983             0.0000000000
     14109      1079  TIP3      H2             18.6495153570       10.9758941638       26.0925978120  TIP3      983             0.0000000000
     14110      1080  TIP3      OH2            23.5058912068        4.7014632207       32.4969767622  TIP3      984             0.0000000000
     14111      1080  TIP3      H1             23.1253181536        4.2664626928       33.2770724854  TIP3      984             0.0000000000
     14112      1080  TIP3      H2             24.0612624330        3.9888305056       32.0927243423  TIP3      984             0.0000000000
     14113      1081  TIP3      OH2            14.3895814882       -3.1213780244       33.9441586081  TIP3      985             0.0000000000
     14114      1081  TIP3      H1             13.6563246710       -2.5272208727       34.2041850898  TIP3      985             0.0000000000
     14115      1081  TIP3      H2             14.2410259938       -3.8867519227       34.5242203831  TIP3      985             0.0000000000
     14116      1082  TIP3      OH2            14.2760962717        8.7442907330       32.5475167433  TIP3      986             0.0000000000
     14117      1082  TIP3      H1             14.5674317631        7.8612607605       32.8165296383  TIP3      986             0.0000000000
     14118      1082  TIP3      H2             14.6721535270        9.2601129277       33.2663964722  TIP3      986             0.0000000000
     14119      1083  TIP3      OH2            20.3379437575        7.1669561038       20.6303886107  TIP3      987             0.0000000000
     14120      1083  TIP3      H1             19.5512107045        7.0479721773       21.1966915325  TIP3      987             0.0000000000
     14121      1083  TIP3      H2             20.9142419540        7.6159697069       21.2589920011  TIP3      987             0.0000000000
     14122      1084  TIP3      OH2            18.3372091249        6.6637862270       22.4462666875  TIP3      988             0.0000000000
     14123      1084  TIP3      H1             18.9722448324        6.0520780314       22.8736472195  TIP3      988             0.0000000000
     14124      1084  TIP3      H2             18.4792301472        7.5248962808       22.9076541774  TIP3      988             0.0000000000
     14125      1085  TIP3      OH2            15.4561780726        4.2222548141       22.5027072599  TIP3      989             0.0000000000
     14126      1085  TIP3      H1             14.6421397168        4.1921385370       23.0387141044  TIP3      989             0.0000000000
     14127      1085  TIP3      H2             15.9778625580        4.9339586914       22.8820681836  TIP3      989             0.0000000000
     14128      1086  TIP3      OH2            22.6955102267       -3.4777260701       33.8330993821  TIP3      990             0.0000000000
     14129      1086  TIP3      H1             23.6535130289       -3.3682489785       33.8989962902  TIP3      990             0.0000000000
     14130      1086  TIP3      H2             22.6012892332       -4.4554327009       33.7963286416  TIP3      990             0.0000000000
     14131      1087  TIP3      OH2            24.2538225598       -4.2326034242       24.5046701543  TIP3      991             0.0000000000
     14132      1087  TIP3      H1             23.5108738204       -3.6041143558       24.5333816234  TIP3      991             0.0000000000
     14133      1087  TIP3      H2             24.4914148384       -4.3012663604       25.4501461629  TIP3      991             0.0000000000
     14134      1088  TIP3      OH2            21.4098411685       -2.8149990353       25.2449745011  TIP3      992             0.0000000000
     14135      1088  TIP3      H1             21.8137109010       -1.9159898439       25.2857622372  TIP3      992             0.0000000000
     14136      1088  TIP3      H2             20.8712177182       -2.8002759308       26.0706466854  TIP3      992             0.0000000000
     14137      1089  TIP3      OH2            21.7291237669       -0.9295739813       34.4792206738  TIP3      993             0.0000000000
     14138      1089  TIP3      H1             22.0232893237       -0.6866798726       35.3823160803  TIP3      993             0.0000000000
     14139      1089  TIP3      H2             22.0183274838       -1.8663961547       34.4139943928  TIP3      993             0.0000000000
     14140      1090  TIP3      OH2            21.4912272156       -5.4424523432       26.1892826501  TIP3      994             0.0000000000
     14141      1090  TIP3      H1             21.6993718776       -5.3161958846       27.1372789524  TIP3      994             0.0000000000
     14142      1090  TIP3      H2             21.5729823951       -4.5140515415       25.8694688648  TIP3      994             0.0000000000
     14143      1091  TIP3      OH2            18.6514175776        9.3423224643       23.2901356873  TIP3      995             0.0000000000
     14144      1091  TIP3      H1             19.0616309819       10.1190760729       22.8654146465  TIP3      995             0.0000000000
     14145      1091  TIP3      H2             18.6831212198        9.5942357606       24.2374709308  TIP3      995             0.0000000000
     14146      1092  TIP3      OH2            14.7988498558       -5.9795050259       29.9455167307  TIP3      996             0.0000000000
     14147      1092  TIP3      H1             14.5660578094       -6.1365271055       29.0016441366  TIP3      996             0.0000000000
     14148      1092  TIP3      H2             14.6850157683       -6.9001426079       30.2842565881  TIP3      996             0.0000000000
     14149      1093  TIP3      OH2            13.3682879587        7.4040415607       25.3694367981  TIP3      997             0.0000000000
     14150      1093  TIP3      H1             12.9106349210        7.9362081574       26.0305286136  TIP3      997             0.0000000000
     14151      1093  TIP3      H2             13.5973721262        8.1105089296       24.7267310696  TIP3      997             0.0000000000
     14152      1094  TIP3      OH2            12.8318514527       10.4910866834       37.2657312062  TIP3      998             0.0000000000
     14153      1094  TIP3      H1             13.6090124127       10.3008458817       37.8468842774  TIP3      998             0.0000000000
     14154      1094  TIP3      H2             12.6048037266        9.5941201663       36.9544553775  TIP3      998             0.0000000000
     14155      1095  TIP3      OH2            17.9681422344        9.0892711319       39.0335438333  TIP3      999             0.0000000000
     14156      1095  TIP3      H1             18.9089927496        8.8685174474       39.1004424261  TIP3      999             0.0000000000
     14157      1095  TIP3      H2             17.7475180144        8.5993215744       38.2155554191  TIP3      999             0.0000000000
     14158      1096  TIP3      OH2            24.1656441167        8.0827230966       37.4217513172  TIP3      1000            0.0000000000
     14159      1096  TIP3      H1             23.8047482541        7.1838389133       37.5995806150  TIP3      1000            0.0000000000
     14160      1096  TIP3      H2             24.8824352977        8.0932193846       38.0682451578  TIP3      1000            0.0000000000
     14161      1097  TIP3      OH2            13.4945915193        4.5415125610       38.4244505898  TIP3      1001            0.0000000000
     14162      1097  TIP3      H1             13.0428665418        3.9098622397       38.9970067487  TIP3      1001            0.0000000000
     14163      1097  TIP3      H2             12.9226325652        4.4666178513       37.6373345950  TIP3      1001            0.0000000000
     14164      1098  TIP3      OH2            19.7676901325        3.9967886372       37.2103614763  TIP3      1002            0.0000000000
     14165      1098  TIP3      H1             18.9184676012        4.4158492498       36.9312996106  TIP3      1002            0.0000000000
     14166      1098  TIP3      H2             19.5810038808        3.0405424296       37.3214344145  TIP3      1002            0.0000000000
     14167      1099  TIP3      OH2            24.9898190845        3.9493226090       35.6251688406  TIP3      1003            0.0000000000
     14168      1099  TIP3      H1             25.8636163274        3.8900503037       35.1940379895  TIP3      1003            0.0000000000
     14169      1099  TIP3      H2             24.8679133509        4.9158181639       35.4969227165  TIP3      1003            0.0000000000
     14170      1100  TIP3      OH2            13.5607479721        1.9051934688       37.0912839317  TIP3      1004            0.0000000000
     14171      1100  TIP3      H1             13.4042181596        0.9437132156       37.2936841582  TIP3      1004            0.0000000000
     14172      1100  TIP3      H2             13.5879116826        2.2042676941       38.0132210332  TIP3      1004            0.0000000000
     14173      1101  TIP3      OH2            17.4260354038        0.3269908824       34.1250069587  TIP3      1005            0.0000000000
     14174      1101  TIP3      H1             16.8804406024        1.1283668086       34.2819515078  TIP3      1005            0.0000000000
     14175      1101  TIP3      H2             18.2257945328        0.7192149688       33.7194592468  TIP3      1005            0.0000000000
     14176      1102  TIP3      OH2            23.2113714428        3.1697361236       38.2802138068  TIP3      1006            0.0000000000
     14177      1102  TIP3      H1             24.0072884912        2.9936289402       37.7571538422  TIP3      1006            0.0000000000
     14178      1102  TIP3      H2             23.2231773452        2.4213023351       38.8876427284  TIP3      1006            0.0000000000
     14179      1103  TIP3      OH2            18.1980852854       -1.5380232858       35.8202877352  TIP3      1007            0.0000000000
     14180      1103  TIP3      H1             18.4083069605       -2.3608818019       35.3331804483  TIP3      1007            0.0000000000
     14181      1103  TIP3      H2             17.8456316733       -0.9773300731       35.0935503438  TIP3      1007            0.0000000000
     14182      1104  TIP3      OH2            18.7803305771       -3.7173778040       33.8239268221  TIP3      1008            0.0000000000
     14183      1104  TIP3      H1             19.3497113524       -3.3473132352       33.1072428855  TIP3      1008            0.0000000000
     14184      1104  TIP3      H2             17.8942124591       -3.6759394083       33.4011793742  TIP3      1008            0.0000000000
     14185      1105  TIP3      OH2            19.8049195622        1.7685819490       33.4850960133  TIP3      1009            0.0000000000
     14186      1105  TIP3      H1             20.6353865431        1.4853362147       33.0419792833  TIP3      1009            0.0000000000
     14187      1105  TIP3      H2             19.4398787166        2.4187014396       32.8275396043  TIP3      1009            0.0000000000
     14188      1106  TIP3      OH2            24.3415594949       -0.9106600661       39.0412402613  TIP3      1010            0.0000000000
     14189      1106  TIP3      H1             23.8527736577       -1.6935236518       38.7656536748  TIP3      1010            0.0000000000
     14190      1106  TIP3      H2             25.2743660206       -1.1902813315       38.9109243856  TIP3      1010            0.0000000000
     14191      1107  TIP3      OH2            16.8091415877       -1.1258113896       38.2623038306  TIP3      1011            0.0000000000
     14192      1107  TIP3      H1             15.9790032312       -1.6414716050       38.2392377637  TIP3      1011            0.0000000000
     14193      1107  TIP3      H2             17.1154383411       -1.2281395647       37.3353149909  TIP3      1011            0.0000000000
     14194      1108  TIP3      OH2            19.4430128668       -6.3088712092       33.4000114980  TIP3      1012            0.0000000000
     14195      1108  TIP3      H1             19.1166973278       -5.4234286826       33.6789472222  TIP3      1012            0.0000000000
     14196      1108  TIP3      H2             18.6192168744       -6.7485600213       33.1411509797  TIP3      1012            0.0000000000
     14197      1109  TIP3      OH2            20.5640580599       -2.0729971761       37.4985791560  TIP3      1013            0.0000000000
     14198      1109  TIP3      H1             20.0364259065       -2.2718717442       38.2916140771  TIP3      1013            0.0000000000
     14199      1109  TIP3      H2             19.9499790532       -2.3364687633       36.7919468427  TIP3      1013            0.0000000000
     14200      1110  TIP3      OH2            23.3959116208       -2.9638612223       36.7252158584  TIP3      1014            0.0000000000
     14201      1110  TIP3      H1             22.4781830085       -3.1409685538       36.9930430015  TIP3      1014            0.0000000000
     14202      1110  TIP3      H2             23.9205198569       -3.5455351472       37.3186260819  TIP3      1014            0.0000000000
     14203      1111  TIP3      OH2            24.9255774292       -4.2074831821       38.5760771631  TIP3      1015            0.0000000000
     14204      1111  TIP3      H1             24.9707104101       -5.1932074828       38.5330965699  TIP3      1015            0.0000000000
     14205      1111  TIP3      H2             24.9504075643       -4.0721559004       39.5477416982  TIP3      1015            0.0000000000
     14206      1112  TIP3      OH2            14.5902016671       -3.3264390220       37.9489495632  TIP3      1016            0.0000000000
     14207      1112  TIP3      H1             14.5575586714       -4.0747886504       37.3066867475  TIP3      1016            0.0000000000
     14208      1112  TIP3      H2             14.7446762032       -3.8133854688       38.7766453548  TIP3      1016            0.0000000000
     14209      1113  TIP3      OH2            19.6223766000       -7.0580558963       36.8457304362  TIP3      1017            0.0000000000
     14210      1113  TIP3      H1             20.4121933228       -7.6094689350       36.6494923066  TIP3      1017            0.0000000000
     14211      1113  TIP3      H2             19.2556635926       -6.9494073243       35.9558933983  TIP3      1017            0.0000000000
     14212      1114  TIP3      OH2            19.6489580247       -5.8204192741       39.3752361027  TIP3      1018            0.0000000000
     14213      1114  TIP3      H1             19.8220177467       -6.4065910281       38.6172670895  TIP3      1018            0.0000000000
     14214      1114  TIP3      H2             19.1030959615       -5.1534636292       38.9201172502  TIP3      1018            0.0000000000
     14215      1115  TIP3      OH2            19.6575063134       12.0440492954       21.5470759049  TIP3      1019            0.0000000000
     14216      1115  TIP3      H1             20.6027807989       11.8950552689       21.7593896450  TIP3      1019            0.0000000000
     14217      1115  TIP3      H2             19.6735105833       12.0806660871       20.5798739274  TIP3      1019            0.0000000000
     14218      1116  TIP3      OH2            11.9567746808       11.5750071063       26.6305869776  TIP3      1020            0.0000000000
     14219      1116  TIP3      H1             11.4339057438       11.0920979977       25.9745481633  TIP3      1020            0.0000000000
     14220      1116  TIP3      H2             12.1678517426       10.8500542522       27.2628338792  TIP3      1020            0.0000000000
     14221      1117  TIP3      OH2            12.8900535954        9.5875669077       28.1576831221  TIP3      1021            0.0000000000
     14222      1117  TIP3      H1             12.5845620529        8.7512106967       28.5948712364  TIP3      1021            0.0000000000
     14223      1117  TIP3      H2             13.4387074843        9.9644658812       28.8822321196  TIP3      1021            0.0000000000
     14224      1118  TIP3      OH2            12.6553390735        1.9708147643       31.1693351342  TIP3      1022            0.0000000000
     14225      1118  TIP3      H1             12.4733357327        2.3992917164       30.3183447234  TIP3      1022            0.0000000000
     14226      1118  TIP3      H2             13.6324856123        2.0840665236       31.2668199635  TIP3      1022            0.0000000000
     14227      1119  TIP3      OH2            12.6024670450       -2.3501388374       36.5039763481  TIP3      1023            0.0000000000
     14228      1119  TIP3      H1             13.4545403909       -2.4114906982       36.9901273738  TIP3      1023            0.0000000000
     14229      1119  TIP3      H2             12.1602996751       -3.1700262206       36.8348876084  TIP3      1023            0.0000000000
     14230      1120  TIP3      OH2            13.6407588695       -3.6976033481       30.7295015038  TIP3      1024            0.0000000000
     14231      1120  TIP3      H1             14.0833528595       -4.5058823212       30.3634216898  TIP3      1024            0.0000000000
     14232      1120  TIP3      H2             14.3509475449       -3.0312579000       30.7010465619  TIP3      1024            0.0000000000
     14233      1121  TIP3      OH2            12.2080804717       -0.5852501205       30.5046363171  TIP3      1025            0.0000000000
     14234      1121  TIP3      H1             12.8015560829       -0.6681971284       29.7351375542  TIP3      1025            0.0000000000
     14235      1121  TIP3      H2             12.3226326365        0.3630633862       30.7572126975  TIP3      1025            0.0000000000
     14236      1122  TIP3      OH2            11.6201950686       -3.8160738217       25.0873849567  TIP3      1026            0.0000000000
     14237      1122  TIP3      H1             10.7541329161       -4.2175111541       24.9361816657  TIP3      1026            0.0000000000
     14238      1122  TIP3      H2             12.0616124740       -4.0119769277       24.2410771584  TIP3      1026            0.0000000000
     14239      1123  TIP3      OH2            12.1152468197       -5.9643584660       33.1591572222  TIP3      1027            0.0000000000
     14240      1123  TIP3      H1             11.4966961936       -6.1065757816       33.9024708440  TIP3      1027            0.0000000000
     14241      1123  TIP3      H2             11.6576434712       -5.2853360849       32.6368646934  TIP3      1027            0.0000000000
     14242      1124  TIP3      OH2            14.9675341361        7.5596927342       37.7011170563  TIP3      1028            0.0000000000
     14243      1124  TIP3      H1             14.0295501386        7.7048684167       37.5021071770  TIP3      1028            0.0000000000
     14244      1124  TIP3      H2             14.9877122440        6.6188200305       37.9288149541  TIP3      1028            0.0000000000
     14245      1125  TIP3      OH2            17.5021935934        9.0035107076       33.9594673222  TIP3      1029            0.0000000000
     14246      1125  TIP3      H1             17.5417922353        9.8183726593       33.4170099156  TIP3      1029            0.0000000000
     14247      1125  TIP3      H2             17.7143198692        8.3662836019       33.2426343261  TIP3      1029            0.0000000000
     14248      1126  TIP3      OH2            21.4688563272       10.1169602207       36.2467913388  TIP3      1030            0.0000000000
     14249      1126  TIP3      H1             21.5668716275        9.7924501869       37.1693375343  TIP3      1030            0.0000000000
     14250      1126  TIP3      H2             22.3346267716       10.5710501230       36.1496529799  TIP3      1030            0.0000000000
     14251      1127  TIP3      OH2            23.8022078782       11.3785165382       36.2107161149  TIP3      1031            0.0000000000
     14252      1127  TIP3      H1             24.4465205297       10.9179178262       35.6532968159  TIP3      1031            0.0000000000
     14253      1127  TIP3      H2             24.2624398475       11.5137151224       37.0693557173  TIP3      1031            0.0000000000
     14254      1128  TIP3      OH2            14.8604343603       11.9046076342       33.3814889034  TIP3      1032            0.0000000000
     14255      1128  TIP3      H1             14.1503994103       12.5313636981       33.1251425115  TIP3      1032            0.0000000000
     14256      1128  TIP3      H2             14.6763359174       11.8274334106       34.3291989476  TIP3      1032            0.0000000000
     14257      1129  TIP3      OH2            17.0593934775       10.9581853672       32.1284865500  TIP3      1033            0.0000000000
     14258      1129  TIP3      H1             16.1926728673       11.2405884100       32.5009756840  TIP3      1033            0.0000000000
     14259      1129  TIP3      H2             17.3698528057       11.7817295615       31.7002964860  TIP3      1033            0.0000000000
     14260      1130  TIP3      OH2            22.6224944423       11.2288433974       31.7804614433  TIP3      1034            0.0000000000
     14261      1130  TIP3      H1             22.6059945814       11.9208668891       31.1067182028  TIP3      1034            0.0000000000
     14262      1130  TIP3      H2             22.4872604414       11.7959496630       32.5793769872  TIP3      1034            0.0000000000
     14263      1131  TIP3      OH2            24.7005406012       10.0250250261       33.0182908325  TIP3      1035            0.0000000000
     14264      1131  TIP3      H1             23.9345516720       10.2377010075       32.4426571778  TIP3      1035            0.0000000000
     14265      1131  TIP3      H2             25.1431226002       10.8859995948       33.0317073432  TIP3      1035            0.0000000000
     14266      1132  TIP3      OH2            14.4338864760       10.4191254708       30.3593844398  TIP3      1036            0.0000000000
     14267      1132  TIP3      H1             14.2256506307        9.9064364822       31.1650168033  TIP3      1036            0.0000000000
     14268      1132  TIP3      H2             15.3459790549       10.0786110940       30.2151065693  TIP3      1036            0.0000000000
     14269      1133  TIP3      OH2            16.7835417824        9.3796002581       29.3276450101  TIP3      1037            0.0000000000
     14270      1133  TIP3      H1             16.6366461162        8.4553166946       29.6194516320  TIP3      1037            0.0000000000
     14271      1133  TIP3      H2             17.6526034628        9.5472403820       29.7599095987  TIP3      1037            0.0000000000
     14272      1134  TIP3      OH2            19.4411653602        9.3788082229       29.9383673587  TIP3      1038            0.0000000000
     14273      1134  TIP3      H1             19.1827275423        8.4564775994       30.1366921442  TIP3      1038            0.0000000000
     14274      1134  TIP3      H2             19.5873927420        9.6606595541       30.8705449062  TIP3      1038            0.0000000000
     14275      1135  TIP3      OH2            21.9005364302       -5.2952805257       28.9521078367  TIP3      1039            0.0000000000
     14276      1135  TIP3      H1             21.2293253403       -5.8498085418       29.4139231567  TIP3      1039            0.0000000000
     14277      1135  TIP3      H2             22.7195283570       -5.7996358757       29.0315979692  TIP3      1039            0.0000000000
     14278      1136  TIP3      OH2            14.2605563947       -6.4217407726       27.3215264596  TIP3      1040            0.0000000000
     14279      1136  TIP3      H1             13.4276816833       -6.4626115818       26.8123793050  TIP3      1040            0.0000000000
     14280      1136  TIP3      H2             14.7181763689       -7.2252798376       26.9730225177  TIP3      1040            0.0000000000
     14281      1137  TIP3      OH2            19.1457915387       -6.4609212245       26.9096051723  TIP3      1041            0.0000000000
     14282      1137  TIP3      H1             19.9374609341       -6.0036504838       26.5564747990  TIP3      1041            0.0000000000
     14283      1137  TIP3      H2             19.2965313504       -6.3628113739       27.8711759587  TIP3      1041            0.0000000000
     14284      1138  TIP3      OH2            24.9854747923       -6.3518374337       28.7271825488  TIP3      1042            0.0000000000
     14285      1138  TIP3      H1             25.2545951355       -6.1487344461       27.8219528172  TIP3      1042            0.0000000000
     14286      1138  TIP3      H2             24.6446279494       -7.2624851294       28.6901738158  TIP3      1042            0.0000000000
     14287      1139  TIP3      OH2            12.9643076404        9.5314316758       23.7580717735  TIP3      1043            0.0000000000
     14288      1139  TIP3      H1             12.0009384983        9.4394929920       23.7545197775  TIP3      1043            0.0000000000
     14289      1139  TIP3      H2             13.1104475820       10.4128089246       23.3990599459  TIP3      1043            0.0000000000
     14290      1140  TIP3      OH2            22.2920341101       11.1474883586       21.9788220487  TIP3      1044            0.0000000000
     14291      1140  TIP3      H1             23.1593452275       11.5010561031       21.7343162525  TIP3      1044            0.0000000000
     14292      1140  TIP3      H2             22.5229268565       10.1924558888       22.0536873364  TIP3      1044            0.0000000000
     14293      1141  TIP3      OH2            14.3645779156       -5.7991818701       36.5474163409  TIP3      1045            0.0000000000
     14294      1141  TIP3      H1             13.8300096375       -6.5928370516       36.7538569994  TIP3      1045            0.0000000000
     14295      1141  TIP3      H2             15.2343727468       -6.0616506298       36.9229617787  TIP3      1045            0.0000000000
     14296      1142  TIP3      OH2            16.3791254040       -6.7084570389       38.2350013139  TIP3      1046            0.0000000000
     14297      1142  TIP3      H1             17.3066252659       -6.8672924277       38.0090866978  TIP3      1046            0.0000000000
     14298      1142  TIP3      H2             16.0918707149       -7.5747824811       38.5769742756  TIP3      1046            0.0000000000
     14299      1143  TIP3      OH2            25.3922660834       -6.8609282304       38.6243202326  TIP3      1047            0.0000000000
     14300      1143  TIP3      H1             25.7566426131       -7.1514678522       39.4758592313  TIP3      1047            0.0000000000
     14301      1143  TIP3      H2             26.1055310469       -7.1430879477       38.0119420627  TIP3      1047            0.0000000000
     14302      1144  TIP3      OH2           -13.5822362664       21.6143659143       26.5631959083  TIP3      1048            0.0000000000
     14303      1144  TIP3      H1            -13.3637921421       22.5629482227       26.6698862657  TIP3      1048            0.0000000000
     14304      1144  TIP3      H2            -14.5253687347       21.7054980245       26.4171707772  TIP3      1048            0.0000000000
     14305      1145  TIP3      OH2           -14.5849745232       20.3372013167       29.8767504473  TIP3      1049            0.0000000000
     14306      1145  TIP3      H1            -14.7754601282       20.3473736344       30.8363954973  TIP3      1049            0.0000000000
     14307      1145  TIP3      H2            -15.4824301124       20.3492397990       29.4927396244  TIP3      1049            0.0000000000
     14308      1146  TIP3      OH2           -22.7850308105       20.6336167715       31.8979866325  TIP3      1050            0.0000000000
     14309      1146  TIP3      H1            -22.9984449442       19.7701083343       32.3105697187  TIP3      1050            0.0000000000
     14310      1146  TIP3      H2            -22.0633198136       20.9395399887       32.4704564112  TIP3      1050            0.0000000000
     14311      1147  TIP3      OH2           -12.1307354761       24.4252828537       28.9817237443  TIP3      1051            0.0000000000
     14312      1147  TIP3      H1            -11.7059875641       23.5916913874       29.2264666621  TIP3      1051            0.0000000000
     14313      1147  TIP3      H2            -11.3730239607       25.0489453418       28.9919816707  TIP3      1051            0.0000000000
     14314      1148  TIP3      OH2           -21.7957834737       24.8647558304       30.5765490610  TIP3      1052            0.0000000000
     14315      1148  TIP3      H1            -22.0419637049       23.9697364275       30.2808558759  TIP3      1052            0.0000000000
     14316      1148  TIP3      H2            -20.8710170167       24.8786097821       30.2287089514  TIP3      1052            0.0000000000
     14317      1149  TIP3      OH2           -25.8803792223       18.1918849299       26.5891778946  TIP3      1053            0.0000000000
     14318      1149  TIP3      H1            -25.3449413475       18.7784805644       27.1475350230  TIP3      1053            0.0000000000
     14319      1149  TIP3      H2            -25.7753051678       18.5977041690       25.7112679250  TIP3      1053            0.0000000000
     14320      1150  TIP3      OH2           -24.1316635706       21.0557649998       27.9149451130  TIP3      1054            0.0000000000
     14321      1150  TIP3      H1            -23.9313008574       20.1477424951       28.2455450006  TIP3      1054            0.0000000000
     14322      1150  TIP3      H2            -23.9294872903       20.9883721714       26.9765233778  TIP3      1054            0.0000000000
     14323      1151  TIP3      OH2           -17.0914327201       23.3640670279       30.9489060297  TIP3      1055            0.0000000000
     14324      1151  TIP3      H1            -16.7386818829       23.5103581252       30.0611293805  TIP3      1055            0.0000000000
     14325      1151  TIP3      H2            -16.2831817600       23.5986356851       31.4669667610  TIP3      1055            0.0000000000
     14326      1152  TIP3      OH2            -8.0249254013       14.9338530493       30.7057846239  TIP3      1056            0.0000000000
     14327      1152  TIP3      H1             -7.9101457345       15.4001702739       31.5571097228  TIP3      1056            0.0000000000
     14328      1152  TIP3      H2             -7.1282237214       15.0356333065       30.3273427734  TIP3      1056            0.0000000000
     14329      1153  TIP3      OH2           -13.1116335403       17.9604316979       31.3171137895  TIP3      1057            0.0000000000
     14330      1153  TIP3      H1            -12.7111561024       17.1153840847       31.5749556271  TIP3      1057            0.0000000000
     14331      1153  TIP3      H2            -13.0421617586       17.9039065976       30.3445282035  TIP3      1057            0.0000000000
     14332      1154  TIP3      OH2           -20.5650933652       15.8187555210       28.0016104746  TIP3      1058            0.0000000000
     14333      1154  TIP3      H1            -20.0234640659       16.3903735623       27.4333158249  TIP3      1058            0.0000000000
     14334      1154  TIP3      H2            -21.1053618135       15.3162204675       27.3412612930  TIP3      1058            0.0000000000
     14335      1155  TIP3      OH2           -12.3944904608       15.7637969444       26.4717346232  TIP3      1059            0.0000000000
     14336      1155  TIP3      H1            -12.1506292203       15.4926633423       27.3798080619  TIP3      1059            0.0000000000
     14337      1155  TIP3      H2            -12.2582692784       16.7115879325       26.5329500758  TIP3      1059            0.0000000000
     14338      1156  TIP3      OH2           -23.4282763590       18.6624172307       28.7360290127  TIP3      1060            0.0000000000
     14339      1156  TIP3      H1            -22.9679317975       18.1724839453       29.4428809238  TIP3      1060            0.0000000000
     14340      1156  TIP3      H2            -23.3055718965       18.0487037308       27.9780542488  TIP3      1060            0.0000000000
     14341      1157  TIP3      OH2           -18.9697505595       19.8721666039       28.5440708147  TIP3      1061            0.0000000000
     14342      1157  TIP3      H1            -18.1226483369       19.4722597656       28.8427923479  TIP3      1061            0.0000000000
     14343      1157  TIP3      H2            -19.2929624312       19.1770422990       27.9272018386  TIP3      1061            0.0000000000
     14344      1158  TIP3      OH2            -7.8896084255       16.2888383034       33.7721144626  TIP3      1062            0.0000000000
     14345      1158  TIP3      H1             -8.2070789517       17.1854774563       33.5165517719  TIP3      1062            0.0000000000
     14346      1158  TIP3      H2             -7.6413092195       16.4107729762       34.7013830896  TIP3      1062            0.0000000000
     14347      1159  TIP3      OH2           -20.9933432113       14.9360687319       32.3874374412  TIP3      1063            0.0000000000
     14348      1159  TIP3      H1            -21.4063472414       15.0240245683       31.5112413641  TIP3      1063            0.0000000000
     14349      1159  TIP3      H2            -21.8012995906       14.9329033678       32.9438432679  TIP3      1063            0.0000000000
     14350      1160  TIP3      OH2           -14.2262815952       24.1926655403       25.9737475701  TIP3      1064            0.0000000000
     14351      1160  TIP3      H1            -14.5573059000       24.1302649661       25.0507093567  TIP3      1064            0.0000000000
     14352      1160  TIP3      H2            -15.0345645610       24.5032933586       26.4046428881  TIP3      1064            0.0000000000
     14353      1161  TIP3      OH2           -18.9978579490       22.3829197550       32.4414005923  TIP3      1065            0.0000000000
     14354      1161  TIP3      H1            -19.6372035371       23.0746170856       32.7024859417  TIP3      1065            0.0000000000
     14355      1161  TIP3      H2            -18.3230801036       22.8878875614       31.9262349363  TIP3      1065            0.0000000000
     14356      1162  TIP3      OH2           -10.9675078110       15.5246250545       28.9234341360  TIP3      1066            0.0000000000
     14357      1162  TIP3      H1            -10.7630662174       14.7737340405       29.5031936934  TIP3      1066            0.0000000000
     14358      1162  TIP3      H2            -10.1291674496       16.0062933046       28.9898783994  TIP3      1066            0.0000000000
     14359      1163  TIP3      OH2           -22.0418187764       16.6804615800       30.1478385523  TIP3      1067            0.0000000000
     14360      1163  TIP3      H1            -21.3531215004       17.1801383164       30.6450866367  TIP3      1067            0.0000000000
     14361      1163  TIP3      H2            -21.5018442671       16.3299255379       29.3950336674  TIP3      1067            0.0000000000
     14362      1164  TIP3      OH2           -20.4728015762       24.7565415758       32.9951260447  TIP3      1068            0.0000000000
     14363      1164  TIP3      H1            -20.9763410769       24.9432256438       32.1785869690  TIP3      1068            0.0000000000
     14364      1164  TIP3      H2            -21.2378140505       24.7853940065       33.6226950286  TIP3      1068            0.0000000000
     14365      1165  TIP3      OH2           -24.9434868464       23.7972649481       24.6349396229  TIP3      1069            0.0000000000
     14366      1165  TIP3      H1            -24.3530528328       23.8965860026       23.8597781443  TIP3      1069            0.0000000000
     14367      1165  TIP3      H2            -25.1372324833       24.7294689436       24.8015976745  TIP3      1069            0.0000000000
     14368      1166  TIP3      OH2           -11.2826651411       25.7257767438       31.6775014760  TIP3      1070            0.0000000000
     14369      1166  TIP3      H1            -12.0674290738       25.4047802630       31.1924539608  TIP3      1070            0.0000000000
     14370      1166  TIP3      H2            -10.6389655334       25.7792960350       30.9501650703  TIP3      1070            0.0000000000
     14371      1167  TIP3      OH2           -10.4370062406       14.1037234810       31.9435863760  TIP3      1071            0.0000000000
     14372      1167  TIP3      H1            -11.3130018167       14.1227957590       31.4849664622  TIP3      1071            0.0000000000
     14373      1167  TIP3      H2             -9.9855442654       14.8359172399       31.4924240682  TIP3      1071            0.0000000000
     14374      1168  TIP3      OH2           -17.9024139654       12.2453545854       29.6669906195  TIP3      1072            0.0000000000
     14375      1168  TIP3      H1            -18.3275221345       11.3752775592       29.7359537607  TIP3      1072            0.0000000000
     14376      1168  TIP3      H2            -18.6901325377       12.8325083595       29.7856336525  TIP3      1072            0.0000000000
     14377      1169  TIP3      OH2           -11.6466564118       25.3386842797       25.7119506887  TIP3      1073            0.0000000000
     14378      1169  TIP3      H1            -11.4246138001       24.6429124043       25.0552412277  TIP3      1073            0.0000000000
     14379      1169  TIP3      H2            -12.2472093681       24.8078987602       26.2634457572  TIP3      1073            0.0000000000
     14380      1170  TIP3      OH2           -10.0188977959       24.4389758819       34.4941679678  TIP3      1074            0.0000000000
     14381      1170  TIP3      H1             -9.8599616665       23.7355135812       33.8259736209  TIP3      1074            0.0000000000
     14382      1170  TIP3      H2            -10.6422212991       24.9662655046       33.9671550326  TIP3      1074            0.0000000000
     14383      1171  TIP3      OH2           -15.5514932895       21.4143924035       23.9774072414  TIP3      1075            0.0000000000
     14384      1171  TIP3      H1            -16.4575874917       21.5212148060       23.6224103856  TIP3      1075            0.0000000000
     14385      1171  TIP3      H2            -15.2094934905       22.3191925494       23.8627217037  TIP3      1075            0.0000000000
     14386      1172  TIP3      OH2           -14.5425163028       19.1603692828       21.0686915443  TIP3      1076            0.0000000000
     14387      1172  TIP3      H1            -15.0349293508       19.6133638268       21.7733644345  TIP3      1076            0.0000000000
     14388      1172  TIP3      H2            -14.5341213423       18.2349080781       21.3326043004  TIP3      1076            0.0000000000
     14389      1173  TIP3      OH2            -7.6704817726       20.7070891301       32.4784272980  TIP3      1077            0.0000000000
     14390      1173  TIP3      H1             -8.2542196635       21.4571698347       32.6977252371  TIP3      1077            0.0000000000
     14391      1173  TIP3      H2             -6.9876916035       21.1146517868       31.8897952686  TIP3      1077            0.0000000000
     14392      1174  TIP3      OH2           -11.8898473152       19.7373804909       25.6950365646  TIP3      1078            0.0000000000
     14393      1174  TIP3      H1            -12.4995658583       20.3906775129       26.1242936511  TIP3      1078            0.0000000000
     14394      1174  TIP3      H2            -11.0888922800       19.8622510414       26.2459208913  TIP3      1078            0.0000000000
     14395      1175  TIP3      OH2           -11.7961996910       19.4575164244       34.2963193697  TIP3      1079            0.0000000000
     14396      1175  TIP3      H1            -12.0497468940       20.1570923038       34.9319464474  TIP3      1079            0.0000000000
     14397      1175  TIP3      H2            -12.3994467774       19.6807034633       33.5727131357  TIP3      1079            0.0000000000
     14398      1176  TIP3      OH2           -19.6710867739       21.5687173692       26.5330385662  TIP3      1080            0.0000000000
     14399      1176  TIP3      H1            -19.7131390825       21.1748885656       25.6410438533  TIP3      1080            0.0000000000
     14400      1176  TIP3      H2            -19.4445853636       20.8287005637       27.1235043728  TIP3      1080            0.0000000000
     14401      1177  TIP3      OH2           -19.1498424177       24.9615190755       29.8876902046  TIP3      1081            0.0000000000
     14402      1177  TIP3      H1            -18.9451000218       24.9220467350       28.9417027535  TIP3      1081            0.0000000000
     14403      1177  TIP3      H2            -18.5288515367       24.3481987038       30.3097491419  TIP3      1081            0.0000000000
     14404      1178  TIP3      OH2           -20.1908289956       20.5423777373       30.7665164600  TIP3      1082            0.0000000000
     14405      1178  TIP3      H1            -19.6999292895       20.5253047066       29.9130912270  TIP3      1082            0.0000000000
     14406      1178  TIP3      H2            -19.6939017032       21.2046701616       31.2904939576  TIP3      1082            0.0000000000
     14407      1179  TIP3      OH2           -19.4390660864       24.0867333904       35.5505869785  TIP3      1083            0.0000000000
     14408      1179  TIP3      H1            -20.0872982007       24.5696790481       36.0934799202  TIP3      1083            0.0000000000
     14409      1179  TIP3      H2            -19.9129757443       24.0369624114       34.6983775844  TIP3      1083            0.0000000000
     14410      1180  TIP3      OH2           -21.6711691266       20.9608417255       34.5353865104  TIP3      1084            0.0000000000
     14411      1180  TIP3      H1            -21.8094813784       21.5542455553       35.3124708855  TIP3      1084            0.0000000000
     14412      1180  TIP3      H2            -22.6200804303       20.7384848700       34.3738574770  TIP3      1084            0.0000000000
     14413      1181  TIP3      OH2            -9.4855207938       12.3140015022       22.5146716569  TIP3      1085            0.0000000000
     14414      1181  TIP3      H1            -10.4587538209       12.3424918865       22.6558854224  TIP3      1085            0.0000000000
     14415      1181  TIP3      H2             -9.1975249215       13.0576119551       23.0747911267  TIP3      1085            0.0000000000
     14416      1182  TIP3      OH2           -24.8065200797       23.2680745231       33.4591192376  TIP3      1086            0.0000000000
     14417      1182  TIP3      H1            -25.1753808966       23.0537860230       32.5883412010  TIP3      1086            0.0000000000
     14418      1182  TIP3      H2            -24.3689557001       22.4111818513       33.6467159498  TIP3      1086            0.0000000000
     14419      1183  TIP3      OH2           -10.7218131087       17.7328547828       36.6526895141  TIP3      1087            0.0000000000
     14420      1183  TIP3      H1            -11.1784521588       18.1878287107       35.9142566476  TIP3      1087            0.0000000000
     14421      1183  TIP3      H2            -10.9849288279       16.8022448082       36.5263852763  TIP3      1087            0.0000000000
     14422      1184  TIP3      OH2           -22.6404123528       24.5258021977       34.5432859422  TIP3      1088            0.0000000000
     14423      1184  TIP3      H1            -22.6759845295       23.9675375866       35.3489841955  TIP3      1088            0.0000000000
     14424      1184  TIP3      H2            -23.5089324259       24.3349801280       34.1361334333  TIP3      1088            0.0000000000
     14425      1185  TIP3      OH2           -20.0341399948       13.7290927671       30.0926491822  TIP3      1089            0.0000000000
     14426      1185  TIP3      H1            -20.9346001516       13.6964869872       29.7296882008  TIP3      1089            0.0000000000
     14427      1185  TIP3      H2            -20.1928806561       13.3483599920       30.9932435302  TIP3      1089            0.0000000000
     14428      1186  TIP3      OH2           -15.4162713330       12.9220178104       33.8595891697  TIP3      1090            0.0000000000
     14429      1186  TIP3      H1            -15.3086178082       12.6001944682       34.7651877274  TIP3      1090            0.0000000000
     14430      1186  TIP3      H2            -16.3991611876       12.9320270397       33.7693084556  TIP3      1090            0.0000000000
     14431      1187  TIP3      OH2           -12.4857810810       16.7506769927       34.2895923687  TIP3      1091            0.0000000000
     14432      1187  TIP3      H1            -13.1084032574       16.5786841410       35.0382542986  TIP3      1091            0.0000000000
     14433      1187  TIP3      H2            -12.6938480284       17.6739781096       34.1036459864  TIP3      1091            0.0000000000
     14434      1188  TIP3      OH2           -19.9036811921       17.9275267889       31.3340300239  TIP3      1092            0.0000000000
     14435      1188  TIP3      H1            -20.1463925590       18.0297433627       32.2744789035  TIP3      1092            0.0000000000
     14436      1188  TIP3      H2            -20.0886651487       18.8511635926       31.0625993394  TIP3      1092            0.0000000000
     14437      1189  TIP3      OH2           -19.8818433802       18.1696456348       26.4852330275  TIP3      1093            0.0000000000
     14438      1189  TIP3      H1            -20.8405903541       18.0175126987       26.5477624965  TIP3      1093            0.0000000000
     14439      1189  TIP3      H2            -19.7316279200       17.9726297496       25.5378859330  TIP3      1093            0.0000000000
     14440      1190  TIP3      OH2           -14.7755707368       18.7746588984       25.6136196426  TIP3      1094            0.0000000000
     14441      1190  TIP3      H1            -15.1594547035       19.6549805423       25.4783156525  TIP3      1094            0.0000000000
     14442      1190  TIP3      H2            -13.8319466311       18.9749306034       25.4982026417  TIP3      1094            0.0000000000
     14443      1191  TIP3      OH2           -16.0166245972       19.4306837471       36.9380023069  TIP3      1095            0.0000000000
     14444      1191  TIP3      H1            -16.3627430693       18.5252174853       37.1105754561  TIP3      1095            0.0000000000
     14445      1191  TIP3      H2            -15.2224115955       19.3913076761       37.4950641529  TIP3      1095            0.0000000000
     14446      1192  TIP3      OH2           -13.1086163185       18.5117476776       28.6268467672  TIP3      1096            0.0000000000
     14447      1192  TIP3      H1            -13.5779813386       19.3258066065       28.9555212913  TIP3      1096            0.0000000000
     14448      1192  TIP3      H2            -13.6142634765       18.3179156342       27.8349914465  TIP3      1096            0.0000000000
     14449      1193  TIP3      OH2           -22.9116624001       18.0899155731       32.9014074308  TIP3      1097            0.0000000000
     14450      1193  TIP3      H1            -22.2557206012       18.1495464051       33.6211971206  TIP3      1097            0.0000000000
     14451      1193  TIP3      H2            -23.0347546795       17.1248024804       32.8365182402  TIP3      1097            0.0000000000
     14452      1194  TIP3      OH2           -19.5626446584       16.2101800134       20.5024579693  TIP3      1098            0.0000000000
     14453      1194  TIP3      H1            -19.6816584004       15.6135812614       21.2690574644  TIP3      1098            0.0000000000
     14454      1194  TIP3      H2            -20.2455533283       15.8527024505       19.9194696463  TIP3      1098            0.0000000000
     14455      1195  TIP3      OH2           -24.8659116193       15.1466105373       27.4287843405  TIP3      1099            0.0000000000
     14456      1195  TIP3      H1            -24.7753534211       14.5295682000       28.1646350144  TIP3      1099            0.0000000000
     14457      1195  TIP3      H2            -25.0112934947       14.5753931326       26.6514708116  TIP3      1099            0.0000000000
     14458      1196  TIP3      OH2           -24.7604065003       17.0882166307       23.3724336900  TIP3      1100            0.0000000000
     14459      1196  TIP3      H1            -23.9235830864       16.8671410182       22.9403419696  TIP3      1100            0.0000000000
     14460      1196  TIP3      H2            -25.3823681422       16.6298659268       22.7845489610  TIP3      1100            0.0000000000
     14461      1197  TIP3      OH2           -14.5739368441       19.8843322390       32.5880804993  TIP3      1101            0.0000000000
     14462      1197  TIP3      H1            -13.9335746947       19.2976961587       32.1273170986  TIP3      1101            0.0000000000
     14463      1197  TIP3      H2            -15.1546869594       19.1897602546       32.9773191103  TIP3      1101            0.0000000000
     14464      1198  TIP3      OH2           -17.6475980061       15.5005994312       28.1556422368  TIP3      1102            0.0000000000
     14465      1198  TIP3      H1            -18.5987912764       15.4762076998       28.3716321173  TIP3      1102            0.0000000000
     14466      1198  TIP3      H2            -17.2524584107       15.2074558673       28.9890758304  TIP3      1102            0.0000000000
     14467      1199  TIP3      OH2           -23.0648146862       17.3950756614       26.4351488262  TIP3      1103            0.0000000000
     14468      1199  TIP3      H1            -23.7976641829       17.3128180265       25.8037074207  TIP3      1103            0.0000000000
     14469      1199  TIP3      H2            -22.9066515181       16.4423114590       26.6255462715  TIP3      1103            0.0000000000
     14470      1200  TIP3      OH2           -19.6941237755       17.7404318335       23.7905550024  TIP3      1104            0.0000000000
     14471      1200  TIP3      H1            -18.7599296986       17.9791084787       23.7404545892  TIP3      1104            0.0000000000
     14472      1200  TIP3      H2            -20.1022786022       18.5431174959       23.3963357708  TIP3      1104            0.0000000000
     14473      1201  TIP3      OH2           -12.8558327430       14.3603012745       31.0218975709  TIP3      1105            0.0000000000
     14474      1201  TIP3      H1            -13.7312182464       14.3716992809       31.4375279955  TIP3      1105            0.0000000000
     14475      1201  TIP3      H2            -13.0854534292       14.2857085660       30.0837166717  TIP3      1105            0.0000000000
     14476      1202  TIP3      OH2           -22.3770033835       22.7088171472       36.5278308185  TIP3      1106            0.0000000000
     14477      1202  TIP3      H1            -21.6783025752       22.9438537367       37.1800702891  TIP3      1106            0.0000000000
     14478      1202  TIP3      H2            -23.1547071050       22.6428788401       37.1244064192  TIP3      1106            0.0000000000
     14479      1203  TIP3      OH2           -16.6680262628       18.5909699626       29.1357341093  TIP3      1107            0.0000000000
     14480      1203  TIP3      H1            -15.8082474855       18.1897264304       28.9510890096  TIP3      1107            0.0000000000
     14481      1203  TIP3      H2            -16.9872410251       18.0077580598       29.8479789841  TIP3      1107            0.0000000000
     14482      1204  TIP3      OH2           -22.0478754156       14.7137964570       26.1005156713  TIP3      1108            0.0000000000
     14483      1204  TIP3      H1            -22.4162012664       13.8280001523       26.3329505351  TIP3      1108            0.0000000000
     14484      1204  TIP3      H2            -21.5751546390       14.5077142320       25.2823997117  TIP3      1108            0.0000000000
     14485      1205  TIP3      OH2           -17.2745688627       16.8207794161       31.6853018489  TIP3      1109            0.0000000000
     14486      1205  TIP3      H1            -18.2075436185       17.1083058019       31.7648882655  TIP3      1109            0.0000000000
     14487      1205  TIP3      H2            -16.8228250681       17.2445056693       32.4264822354  TIP3      1109            0.0000000000
     14488      1206  TIP3      OH2            -9.6352015152       22.6663181786       32.5585519579  TIP3      1110            0.0000000000
     14489      1206  TIP3      H1             -9.2995177021       23.2505843628       31.8471215576  TIP3      1110            0.0000000000
     14490      1206  TIP3      H2            -10.4529038565       22.3244212847       32.1385720981  TIP3      1110            0.0000000000
     14491      1207  TIP3      OH2           -15.9749022188       23.7223121361       34.6226029905  TIP3      1111            0.0000000000
     14492      1207  TIP3      H1            -15.8933015659       23.3949526285       35.5304329717  TIP3      1111            0.0000000000
     14493      1207  TIP3      H2            -16.5466757348       24.4927149291       34.7185561653  TIP3      1111            0.0000000000
     14494      1208  TIP3      OH2           -21.2619798822       22.4552432373       29.1326215128  TIP3      1112            0.0000000000
     14495      1208  TIP3      H1            -21.0192409947       22.1452022859       28.2435982850  TIP3      1112            0.0000000000
     14496      1208  TIP3      H2            -21.3446144609       21.6378510651       29.6623672754  TIP3      1112            0.0000000000
     14497      1209  TIP3      OH2           -15.2751156156       24.2619674351       23.4916603283  TIP3      1113            0.0000000000
     14498      1209  TIP3      H1            -15.1966228274       25.2324099974       23.4373317721  TIP3      1113            0.0000000000
     14499      1209  TIP3      H2            -16.2174132847       24.0902050422       23.2916595992  TIP3      1113            0.0000000000
     14500      1210  TIP3      OH2           -24.3292620091       20.5753491201       34.4126104299  TIP3      1114            0.0000000000
     14501      1210  TIP3      H1            -24.5464618366       20.6686667359       35.3700301690  TIP3      1114            0.0000000000
     14502      1210  TIP3      H2            -25.1505228562       20.1322266326       34.1224394628  TIP3      1114            0.0000000000
     14503      1211  TIP3      OH2           -18.7226050482       20.3580706649       36.5402640140  TIP3      1115            0.0000000000
     14504      1211  TIP3      H1            -18.9349837988       20.7378167487       35.6656318694  TIP3      1115            0.0000000000
     14505      1211  TIP3      H2            -17.8905735123       19.8902508373       36.3170705954  TIP3      1115            0.0000000000
     14506      1212  TIP3      OH2           -13.4417356120       25.3529736145       35.2624034000  TIP3      1116            0.0000000000
     14507      1212  TIP3      H1            -14.2061735354       25.8068541057       34.8811682046  TIP3      1116            0.0000000000
     14508      1212  TIP3      H2            -13.2288073625       25.9523998417       36.0003386209  TIP3      1116            0.0000000000
     14509      1213  TIP3      OH2            -7.5763996873       17.8993539501       23.5988709987  TIP3      1117            0.0000000000
     14510      1213  TIP3      H1             -8.4644410559       17.6864826855       23.2941229805  TIP3      1117            0.0000000000
     14511      1213  TIP3      H2             -7.4446826235       18.7940027559       23.2511761982  TIP3      1117            0.0000000000
     14512      1214  TIP3      OH2            -7.5747175436       23.4606750901       35.7619363465  TIP3      1118            0.0000000000
     14513      1214  TIP3      H1             -8.4393703717       23.7373664910       35.4192887424  TIP3      1118            0.0000000000
     14514      1214  TIP3      H2             -6.9849666842       23.6037120252       34.9941008213  TIP3      1118            0.0000000000
     14515      1215  TIP3      OH2           -11.8139752487       21.6407136229       30.8400352426  TIP3      1119            0.0000000000
     14516      1215  TIP3      H1            -12.6500909175       21.1524656149       30.8859827135  TIP3      1119            0.0000000000
     14517      1215  TIP3      H2            -11.2215554262       21.0312403884       30.3518155240  TIP3      1119            0.0000000000
     14518      1216  TIP3      OH2           -19.9991037625      -26.2723489753       26.7051783305  TIP3      1120            0.0000000000
     14519      1216  TIP3      H1            -19.4558872868      -25.4873389108       26.9193005507  TIP3      1120            0.0000000000
     14520      1216  TIP3      H2            -20.8777710010      -25.8882636401       26.5988027110  TIP3      1120            0.0000000000
     14521      1217  TIP3      OH2           -24.0466231770       21.0870699409       21.9119958607  TIP3      1121            0.0000000000
     14522      1217  TIP3      H1            -23.1785233017       21.1220668136       22.3335444954  TIP3      1121            0.0000000000
     14523      1217  TIP3      H2            -24.2929473272       22.0327744922       21.9385611447  TIP3      1121            0.0000000000
     14524      1218  TIP3      OH2           -17.8956006308       23.9572710549       26.7553856129  TIP3      1122            0.0000000000
     14525      1218  TIP3      H1            -18.7262629593       24.4246063844       26.5201031669  TIP3      1122            0.0000000000
     14526      1218  TIP3      H2            -18.2667196863       23.0642660438       26.8586739718  TIP3      1122            0.0000000000
     14527      1219  TIP3      OH2           -14.6447686098       23.7244930294       31.9989014139  TIP3      1123            0.0000000000
     14528      1219  TIP3      H1            -14.8702514744       23.6024541901       32.9539043023  TIP3      1123            0.0000000000
     14529      1219  TIP3      H2            -14.0004395231       23.0135249070       31.8600521284  TIP3      1123            0.0000000000
     14530      1220  TIP3      OH2           -12.7786985869       24.8269974591       21.6763775495  TIP3      1124            0.0000000000
     14531      1220  TIP3      H1            -11.8347298298       24.7055346561       21.8385723049  TIP3      1124            0.0000000000
     14532      1220  TIP3      H2            -13.1071213095       23.9222985098       21.7929606058  TIP3      1124            0.0000000000
     14533      1221  TIP3      OH2           -23.3374114142       15.4955214495       33.7903322482  TIP3      1125            0.0000000000
     14534      1221  TIP3      H1            -24.2682780774       15.7114327851       34.0120761092  TIP3      1125            0.0000000000
     14535      1221  TIP3      H2            -23.1025037823       14.9262238284       34.5462904319  TIP3      1125            0.0000000000
     14536      1222  TIP3      OH2           -11.1533670090       23.2273883059       23.8979340953  TIP3      1126            0.0000000000
     14537      1222  TIP3      H1            -10.9851363095       22.3762303623       24.3127480930  TIP3      1126            0.0000000000
     14538      1222  TIP3      H2            -10.2889441867       23.3991677927       23.4820781725  TIP3      1126            0.0000000000
     14539      1223  TIP3      OH2           -19.1859325891       26.0361590756       22.7421276668  TIP3      1127            0.0000000000
     14540      1223  TIP3      H1            -18.5328956875       25.9342873282       23.4336723361  TIP3      1127            0.0000000000
     14541      1223  TIP3      H2            -18.9299321286       26.8765711742       22.3285382066  TIP3      1127            0.0000000000
     14542      1224  TIP3      OH2           -14.7127356429       15.4948196768       33.6121929633  TIP3      1128            0.0000000000
     14543      1224  TIP3      H1            -13.7376379046       15.5436532894       33.7157994087  TIP3      1128            0.0000000000
     14544      1224  TIP3      H2            -14.9383280383       14.5501623450       33.7413895811  TIP3      1128            0.0000000000
     14545      1225  TIP3      OH2           -16.5776582161       16.4871974323       25.7519567907  TIP3      1129            0.0000000000
     14546      1225  TIP3      H1            -16.2977571091       17.4161236374       25.8844596651  TIP3      1129            0.0000000000
     14547      1225  TIP3      H2            -17.0337142624       16.3002797400       26.6030561177  TIP3      1129            0.0000000000
     14548      1226  TIP3      OH2           -15.8355162513       18.1038409599       34.0985861089  TIP3      1130            0.0000000000
     14549      1226  TIP3      H1            -15.9260616104       18.5007980306       34.9823496004  TIP3      1130            0.0000000000
     14550      1226  TIP3      H2            -15.5502043105       17.1874840481       34.2927760293  TIP3      1130            0.0000000000
     14551      1227  TIP3      OH2           -15.7797424693       13.7970370542       26.0471883938  TIP3      1131            0.0000000000
     14552      1227  TIP3      H1            -15.5889540301       13.6326994859       26.9937573064  TIP3      1131            0.0000000000
     14553      1227  TIP3      H2            -15.7623371977       14.7691524522       26.0276660778  TIP3      1131            0.0000000000
     14554      1228  TIP3      OH2           -20.2546262852       14.8052390702       22.8171120335  TIP3      1132            0.0000000000
     14555      1228  TIP3      H1            -20.3986923582       15.6602543359       23.2496149922  TIP3      1132            0.0000000000
     14556      1228  TIP3      H2            -19.3054371582       14.6360422894       23.0142137611  TIP3      1132            0.0000000000
     14557      1229  TIP3      OH2           -10.2871411502       15.3413049021       34.8432486347  TIP3      1133            0.0000000000
     14558      1229  TIP3      H1            -11.0898547477       15.8532988134       34.6038364527  TIP3      1133            0.0000000000
     14559      1229  TIP3      H2             -9.6909515298       15.5008621965       34.0916978514  TIP3      1133            0.0000000000
     14560      1230  TIP3      OH2           -10.7296043306       19.4777482066       29.2330707423  TIP3      1134            0.0000000000
     14561      1230  TIP3      H1            -11.5367686833       18.9291439739       29.1527013082  TIP3      1134            0.0000000000
     14562      1230  TIP3      H2            -10.1467971873       18.9037179932       29.7757486671  TIP3      1134            0.0000000000
     14563      1231  TIP3      OH2           -21.6995730796       24.5678382041       23.3957834995  TIP3      1135            0.0000000000
     14564      1231  TIP3      H1            -21.4112972338       25.4810001162       23.2720086755  TIP3      1135            0.0000000000
     14565      1231  TIP3      H2            -20.9050867144       24.1201799144       23.0768129735  TIP3      1135            0.0000000000
     14566      1232  TIP3      OH2           -24.7691034887       18.1569673169       20.7059436439  TIP3      1136            0.0000000000
     14567      1232  TIP3      H1            -24.1431929163       18.5767810761       21.3205694515  TIP3      1136            0.0000000000
     14568      1232  TIP3      H2            -24.7474633052       18.7950109003       19.9848445010  TIP3      1136            0.0000000000
     14569      1233  TIP3      OH2           -22.8483143193       12.9053081133       29.8697073843  TIP3      1137            0.0000000000
     14570      1233  TIP3      H1            -22.6649331603       12.5149803954       29.0006507508  TIP3      1137            0.0000000000
     14571      1233  TIP3      H2            -22.8631555327       12.0953626634       30.4211434622  TIP3      1137            0.0000000000
     14572      1234  TIP3      OH2           -24.7180909176       23.4287803522       38.0300899012  TIP3      1138            0.0000000000
     14573      1234  TIP3      H1            -25.2433081004       22.8671494819       38.6266139230  TIP3      1138            0.0000000000
     14574      1234  TIP3      H2            -25.3294168610       23.5694580172       37.2941913575  TIP3      1138            0.0000000000
     14575      1235  TIP3      OH2           -17.5305826574       22.9600662266       37.2019779338  TIP3      1139            0.0000000000
     14576      1235  TIP3      H1            -18.0362614182       23.3776012020       36.4642560100  TIP3      1139            0.0000000000
     14577      1235  TIP3      H2            -17.6264585227       22.0132019058       36.9766185003  TIP3      1139            0.0000000000
     14578      1236  TIP3      OH2           -15.4178736977       24.4434974555       20.0973713683  TIP3      1140            0.0000000000
     14579      1236  TIP3      H1            -14.9850750869       25.2922796793       20.2404859072  TIP3      1140            0.0000000000
     14580      1236  TIP3      H2            -15.8226647273       24.2728852290       20.9483765362  TIP3      1140            0.0000000000
     14581      1237  TIP3      OH2           -12.3789052885       22.9238448095       35.0036255375  TIP3      1141            0.0000000000
     14582      1237  TIP3      H1            -11.5148846025       23.3619778316       35.1013321333  TIP3      1141            0.0000000000
     14583      1237  TIP3      H2            -12.9772182131       23.7014755831       35.0989117626  TIP3      1141            0.0000000000
     14584      1238  TIP3      OH2           -23.9226192434       20.4836554107       37.2538604704  TIP3      1142            0.0000000000
     14585      1238  TIP3      H1            -23.7769885543       19.5406919120       37.4385449049  TIP3      1142            0.0000000000
     14586      1238  TIP3      H2            -23.9536975507       20.8012105855       38.1583729915  TIP3      1142            0.0000000000
     14587      1239  TIP3      OH2           -20.3388095011       18.8196399472       33.8716597985  TIP3      1143            0.0000000000
     14588      1239  TIP3      H1            -20.8895080956       19.5843868291       34.1598367635  TIP3      1143            0.0000000000
     14589      1239  TIP3      H2            -19.4558021771       19.2085219157       34.0210132075  TIP3      1143            0.0000000000
     14590      1240  TIP3      OH2           -14.4533272781       22.1782952485       38.2807792770  TIP3      1144            0.0000000000
     14591      1240  TIP3      H1            -13.9138311433       21.5087263196       37.8201201740  TIP3      1144            0.0000000000
     14592      1240  TIP3      H2            -15.3067512914       21.7224301169       38.3681984888  TIP3      1144            0.0000000000
     14593      1241  TIP3      OH2           -19.6884795415       16.8191161733       35.5392903665  TIP3      1145            0.0000000000
     14594      1241  TIP3      H1            -19.3280852568       16.1238094789       34.9454180184  TIP3      1145            0.0000000000
     14595      1241  TIP3      H2            -20.1071081142       17.4743292499       34.9447867466  TIP3      1145            0.0000000000
     14596      1242  TIP3      OH2           -18.5581810762       15.1104943339       33.6444466881  TIP3      1146            0.0000000000
     14597      1242  TIP3      H1            -17.9614623086       15.3475144353       32.9117877602  TIP3      1146            0.0000000000
     14598      1242  TIP3      H2            -19.4288103715       15.0148583747       33.1871312075  TIP3      1146            0.0000000000
     14599      1243  TIP3      OH2           -17.7041974676       20.6736445626       34.0459257305  TIP3      1147            0.0000000000
     14600      1243  TIP3      H1            -16.7582283850       20.7036420769       33.8274674277  TIP3      1147            0.0000000000
     14601      1243  TIP3      H2            -18.1129878088       21.3224458709       33.4156251942  TIP3      1147            0.0000000000
     14602      1244  TIP3      OH2           -13.5999610504       18.4193403961       38.7740076126  TIP3      1148            0.0000000000
     14603      1244  TIP3      H1            -13.3866598970       17.5278694750       38.4768423481  TIP3      1148            0.0000000000
     14604      1244  TIP3      H2            -12.7547723928       18.8528793891       38.6223309294  TIP3      1148            0.0000000000
     14605      1245  TIP3      OH2           -12.4625638490       20.6427460974       36.6664576959  TIP3      1149            0.0000000000
     14606      1245  TIP3      H1            -12.4517973722       21.5094553806       36.1982485801  TIP3      1149            0.0000000000
     14607      1245  TIP3      H2            -11.5544803871       20.6367852273       36.9946540377  TIP3      1149            0.0000000000
     14608      1246  TIP3      OH2           -20.9295530849       18.2103387434       38.5653727689  TIP3      1150            0.0000000000
     14609      1246  TIP3      H1            -21.8388737343       17.8732788699       38.4868471446  TIP3      1150            0.0000000000
     14610      1246  TIP3      H2            -20.6715836435       18.2021783760       37.6284879792  TIP3      1150            0.0000000000
     14611      1247  TIP3      OH2           -17.9343761271       12.5181594238       33.2802655233  TIP3      1151            0.0000000000
     14612      1247  TIP3      H1            -18.4618946104       13.3277733986       33.4583318266  TIP3      1151            0.0000000000
     14613      1247  TIP3      H2            -18.5169682069       11.8542306336       33.7032547196  TIP3      1151            0.0000000000
     14614      1248  TIP3      OH2           -17.0310553679       16.8350043474       37.4274745878  TIP3      1152            0.0000000000
     14615      1248  TIP3      H1            -17.4386549654       16.6779408928       38.3014749954  TIP3      1152            0.0000000000
     14616      1248  TIP3      H2            -17.5929983536       16.2439747055       36.8922161518  TIP3      1152            0.0000000000
     14617      1249  TIP3      OH2           -13.8125765509       16.4181087017       36.5760329732  TIP3      1153            0.0000000000
     14618      1249  TIP3      H1            -14.7700900181       16.5649597336       36.6576941241  TIP3      1153            0.0000000000
     14619      1249  TIP3      H2            -13.6575705742       15.7619294889       37.2943299651  TIP3      1153            0.0000000000
     14620      1250  TIP3      OH2           -12.8119396959       14.7947081660       38.5848651093  TIP3      1154            0.0000000000
     14621      1250  TIP3      H1            -12.8501649895       13.8259185276       38.4076309908  TIP3      1154            0.0000000000
     14622      1250  TIP3      H2            -12.7834383590       14.8354949372       39.5545414393  TIP3      1154            0.0000000000
     14623      1251  TIP3      OH2           -22.8816476093       15.7823568820       37.7264173474  TIP3      1155            0.0000000000
     14624      1251  TIP3      H1            -22.7853533897       15.0009535204       37.1501110070  TIP3      1155            0.0000000000
     14625      1251  TIP3      H2            -23.2423120686       15.4129589363       38.5517044740  TIP3      1155            0.0000000000
     14626      1252  TIP3      OH2           -18.6607230138       11.5660524231       37.1135905675  TIP3      1156            0.0000000000
     14627      1252  TIP3      H1            -17.8998798909       11.0294050068       36.8276949343  TIP3      1156            0.0000000000
     14628      1252  TIP3      H2            -19.2340711302       11.4356238079       36.3200142746  TIP3      1156            0.0000000000
     14629      1253  TIP3      OH2           -18.0026052422       13.0208899482       39.2490891679  TIP3      1157            0.0000000000
     14630      1253  TIP3      H1            -18.2351418586       12.3624088862       38.5603187443  TIP3      1157            0.0000000000
     14631      1253  TIP3      H2            -18.2484646791       13.8015915232       38.7068625357  TIP3      1157            0.0000000000
     14632      1254  TIP3      OH2           -24.4966553096       23.7569274345       21.9085334602  TIP3      1158            0.0000000000
     14633      1254  TIP3      H1            -23.8082746718       24.4491502278       21.7886861702  TIP3      1158            0.0000000000
     14634      1254  TIP3      H2            -24.7922947505       23.7122564015       20.9918735569  TIP3      1158            0.0000000000
     14635      1255  TIP3      OH2            -8.9618473118       24.6883585896       38.9300445072  TIP3      1159            0.0000000000
     14636      1255  TIP3      H1             -9.8507955856       24.2932061984       38.9974738680  TIP3      1159            0.0000000000
     14637      1255  TIP3      H2             -9.1657954593       25.6386721238       38.9102643069  TIP3      1159            0.0000000000
     14638      1256  TIP3      OH2            -8.3499760859       23.0228767101       24.5995445940  TIP3      1160            0.0000000000
     14639      1256  TIP3      H1             -7.5005700701       23.0433164879       24.1453033367  TIP3      1160            0.0000000000
     14640      1256  TIP3      H2             -8.1216619960       22.5837955131       25.4513670072  TIP3      1160            0.0000000000
     14641      1257  TIP3      OH2            -7.5586455698       21.5710693135       26.6806626618  TIP3      1161            0.0000000000
     14642      1257  TIP3      H1             -8.2700335001       20.9175299018       26.8150812327  TIP3      1161            0.0000000000
     14643      1257  TIP3      H2             -6.8573155951       21.2690450025       27.2968831036  TIP3      1161            0.0000000000
     14644      1258  TIP3      OH2            -8.4457778983       24.0749819993       30.6134309528  TIP3      1162            0.0000000000
     14645      1258  TIP3      H1             -7.8734586122       23.3875348914       30.2391676054  TIP3      1162            0.0000000000
     14646      1258  TIP3      H2             -7.8315200962       24.8187178990       30.7211224124  TIP3      1162            0.0000000000
     14647      1259  TIP3      OH2            -9.4259447787       19.5039195216       26.8438051053  TIP3      1163            0.0000000000
     14648      1259  TIP3      H1             -9.1988392520       18.5673870526       26.7853183530  TIP3      1163            0.0000000000
     14649      1259  TIP3      H2             -9.7993281365       19.5608695576       27.7528310654  TIP3      1163            0.0000000000
     14650      1260  TIP3      OH2           -24.2682728454       22.2449238252       30.4312734443  TIP3      1164            0.0000000000
     14651      1260  TIP3      H1            -23.9153234697       21.9891048632       29.5542580042  TIP3      1164            0.0000000000
     14652      1260  TIP3      H2            -23.6847182749       21.7474011129       31.0518448357  TIP3      1164            0.0000000000
     14653      1261  TIP3      OH2            -8.9813374724       21.1145297651       36.0541098414  TIP3      1165            0.0000000000
     14654      1261  TIP3      H1             -8.5565595670       20.2702326254       36.3033375859  TIP3      1165            0.0000000000
     14655      1261  TIP3      H2             -8.2048816877       21.6462932262       35.7885400393  TIP3      1165            0.0000000000
     14656      1262  TIP3      OH2            -8.0324254549       18.4858004719       36.5469728672  TIP3      1166            0.0000000000
     14657      1262  TIP3      H1             -8.9349320691       18.1207919647       36.4303643463  TIP3      1166            0.0000000000
     14658      1262  TIP3      H2             -7.4658270199       17.6862137936       36.5377438130  TIP3      1166            0.0000000000
     14659      1263  TIP3      OH2           -10.3838893512       14.8238243788       20.7399437711  TIP3      1167            0.0000000000
     14660      1263  TIP3      H1             -9.4341904507       14.5952061712       20.8992159151  TIP3      1167            0.0000000000
     14661      1263  TIP3      H2            -10.6475096675       14.1553217624       20.0869853323  TIP3      1167            0.0000000000
     14662      1264  TIP3      OH2            -9.2841075312       17.7316791763       30.7439130823  TIP3      1168            0.0000000000
     14663      1264  TIP3      H1             -8.2976910834       17.8154343023       30.7846584657  TIP3      1168            0.0000000000
     14664      1264  TIP3      H2             -9.4503346833       17.9410540958       31.6866895988  TIP3      1168            0.0000000000
     14665      1265  TIP3      OH2            -9.2750781627       18.6285908038       33.2483908915  TIP3      1169            0.0000000000
     14666      1265  TIP3      H1            -10.1305833050       18.8872019955       33.6401294420  TIP3      1169            0.0000000000
     14667      1265  TIP3      H2             -8.8631108570       19.5060574797       33.0638610938  TIP3      1169            0.0000000000
     14668      1266  TIP3      OH2           -25.4960742684       16.7141319084       37.0543583123  TIP3      1170            0.0000000000
     14669      1266  TIP3      H1            -24.5275652787       16.6684530861       37.1657209507  TIP3      1170            0.0000000000
     14670      1266  TIP3      H2            -25.7901950969       16.1164398017       37.7615958483  TIP3      1170            0.0000000000
     14671      1267  TIP3      OH2            -6.8431310587       12.8373444099       39.0488833273  TIP3      1171            0.0000000000
     14672      1267  TIP3      H1             -6.5112183548       12.0462714200       38.5988342232  TIP3      1171            0.0000000000
     14673      1267  TIP3      H2             -7.0821190660       13.3974284830       38.2747086492  TIP3      1171            0.0000000000
     14674      1268  TIP3      OH2            -9.5605895808       13.8158698570       24.7918897897  TIP3      1172            0.0000000000
     14675      1268  TIP3      H1             -9.2461056598       13.3411075547       25.5858967293  TIP3      1172            0.0000000000
     14676      1268  TIP3      H2            -10.4673990481       13.4757796370       24.7103018496  TIP3      1172            0.0000000000
     14677      1269  TIP3      OH2           -24.3333783200       15.2192183111       30.3239509132  TIP3      1173            0.0000000000
     14678      1269  TIP3      H1            -23.8633109176       14.3688303029       30.2377961672  TIP3      1173            0.0000000000
     14679      1269  TIP3      H2            -23.5932744470       15.8503096582       30.2480002856  TIP3      1173            0.0000000000
     14680      1270  TIP3      OH2           -25.4945992892       18.2069870424       30.8192307182  TIP3      1174            0.0000000000
     14681      1270  TIP3      H1            -25.0705066911       17.4112507212       30.4536704037  TIP3      1174            0.0000000000
     14682      1270  TIP3      H2            -24.7515216955       18.8217333928       30.8514351675  TIP3      1174            0.0000000000
     14683      1271  TIP3      OH2            -7.8351587206       14.0233448607       36.8128570589  TIP3      1175            0.0000000000
     14684      1271  TIP3      H1             -8.6095303168       14.5958350332       37.0202126047  TIP3      1175            0.0000000000
     14685      1271  TIP3      H2             -8.1362935358       13.6298912457       35.9703832998  TIP3      1175            0.0000000000
     14686      1272  TIP3      OH2            -7.7823298635       14.5489353976       21.4809143247  TIP3      1176            0.0000000000
     14687      1272  TIP3      H1             -7.4188712647       13.6792728559       21.2395725976  TIP3      1176            0.0000000000
     14688      1272  TIP3      H2             -7.0489581931       14.9507419619       21.9847056191  TIP3      1176            0.0000000000
     14689      1273  TIP3      OH2           -25.4439899784       14.3820303229       24.7890738884  TIP3      1177            0.0000000000
     14690      1273  TIP3      H1            -26.3990127310       14.3100991312       24.6449006439  TIP3      1177            0.0000000000
     14691      1273  TIP3      H2            -25.1127137261       13.9964980492       23.9597541592  TIP3      1177            0.0000000000
     14692      1274  TIP3      OH2           -25.3658503926       12.7214731228       33.2005823842  TIP3      1178            0.0000000000
     14693      1274  TIP3      H1            -25.2482309317       13.5274721773       33.7320624315  TIP3      1178            0.0000000000
     14694      1274  TIP3      H2            -25.8463389842       13.1157143174       32.4428865051  TIP3      1178            0.0000000000
     14695      1275  TIP3      OH2            -8.7511690399       12.3379815483       34.9190434723  TIP3      1179            0.0000000000
     14696      1275  TIP3      H1             -9.7225354625       12.4045511265       34.9499396971  TIP3      1179            0.0000000000
     14697      1275  TIP3      H2             -8.6140640398       11.3828734616       34.7272646358  TIP3      1179            0.0000000000
     14698      1276  TIP3      OH2           -15.4321835522       13.2095167241       28.8983787215  TIP3      1180            0.0000000000
     14699      1276  TIP3      H1            -16.3098070816       13.0691412430       29.3180846866  TIP3      1180            0.0000000000
     14700      1276  TIP3      H2            -15.0084619302       12.3441967920       29.0388400846  TIP3      1180            0.0000000000
     14701      1277  TIP3      OH2           -10.0648718898       12.7600922902       29.4194001054  TIP3      1181            0.0000000000
     14702      1277  TIP3      H1             -9.4760847866       12.9318689876       28.6397545823  TIP3      1181            0.0000000000
     14703      1277  TIP3      H2            -10.9141481868       12.6258141510       28.9546479548  TIP3      1181            0.0000000000
     14704      1278  TIP3      OH2            -8.4538005234       13.2313279720       27.2939374035  TIP3      1182            0.0000000000
     14705      1278  TIP3      H1             -7.7836875753       12.6661603809       26.8608677017  TIP3      1182            0.0000000000
     14706      1278  TIP3      H2             -7.9281618863       14.0529616295       27.4654984915  TIP3      1182            0.0000000000
     14707      1279  TIP3      OH2           -22.7841992161       12.2603431004       26.9488043492  TIP3      1183            0.0000000000
     14708      1279  TIP3      H1            -23.5943848750       12.2200527186       26.3942718685  TIP3      1183            0.0000000000
     14709      1279  TIP3      H2            -22.4618016710       11.3360174598       26.8416186787  TIP3      1183            0.0000000000
     14710      1280  TIP3      OH2           -18.3704582947       12.6478626783       26.6509560470  TIP3      1184            0.0000000000
     14711      1280  TIP3      H1            -17.5058592374       13.0420757397       26.4278138492  TIP3      1184            0.0000000000
     14712      1280  TIP3      H2            -18.4070975740       12.6949357137       27.6206106230  TIP3      1184            0.0000000000
     14713      1281  TIP3      OH2           -12.4809973238       12.3254108217       27.7208465501  TIP3      1185            0.0000000000
     14714      1281  TIP3      H1            -13.0319625030       12.8153293103       27.0915127513  TIP3      1185            0.0000000000
     14715      1281  TIP3      H2            -13.1292594646       11.6512690448       28.0359288488  TIP3      1185            0.0000000000
     14716      1282  TIP3      OH2           -11.9830505402       12.2194449196       23.2998468597  TIP3      1186            0.0000000000
     14717      1282  TIP3      H1            -12.3607095376       11.9617403142       22.4321473620  TIP3      1186            0.0000000000
     14718      1282  TIP3      H2            -12.2848252790       11.4551920987       23.8395376145  TIP3      1186            0.0000000000
     14719      1283  TIP3      OH2           -17.5922913949       14.9202888732       23.6095918920  TIP3      1187            0.0000000000
     14720      1283  TIP3      H1            -17.1879305713       14.1939001908       24.1117067089  TIP3      1187            0.0000000000
     14721      1283  TIP3      H2            -17.5213337333       15.6421835335       24.2621017698  TIP3      1187            0.0000000000
     14722      1284  TIP3      OH2           -23.0202219512       13.2651938151       35.8559458737  TIP3      1188            0.0000000000
     14723      1284  TIP3      H1            -23.7107853732       12.7424941332       36.2952799764  TIP3      1188            0.0000000000
     14724      1284  TIP3      H2            -22.2311758396       12.9567761779       36.3723814606  TIP3      1188            0.0000000000
     14725      1285  TIP3      OH2           -21.4298434535       12.4423827047       37.8421292540  TIP3      1189            0.0000000000
     14726      1285  TIP3      H1            -20.5037072163       12.1708860846       37.6927475781  TIP3      1189            0.0000000000
     14727      1285  TIP3      H2            -21.6984218632       11.8268519597       38.5572975244  TIP3      1189            0.0000000000
     14728      1286  TIP3      OH2           -12.7202001752       11.9962715034       38.1961921334  TIP3      1190            0.0000000000
     14729      1286  TIP3      H1            -12.6781063261       11.5901447711       39.0748915603  TIP3      1190            0.0000000000
     14730      1286  TIP3      H2            -11.8504001711       11.7258674371       37.8237986716  TIP3      1190            0.0000000000
     14731      1287  TIP3      OH2             5.1382620076       21.5086268267       26.7029279260  TIP3      1191            0.0000000000
     14732      1287  TIP3      H1              5.1249585764       22.4779502901       26.6117616257  TIP3      1191            0.0000000000
     14733      1287  TIP3      H2              4.5847186101       21.4116453921       27.4840700559  TIP3      1191            0.0000000000
     14734      1288  TIP3      OH2             3.6467491159       21.2014707896       30.2783364838  TIP3      1192            0.0000000000
     14735      1288  TIP3      H1              3.8865428840       20.7336393775       31.1084763978  TIP3      1192            0.0000000000
     14736      1288  TIP3      H2              3.0736962134       20.5676339761       29.8354349996  TIP3      1192            0.0000000000
     14737      1289  TIP3      OH2            -3.8179452763       20.5113299302       31.9970348750  TIP3      1193            0.0000000000
     14738      1289  TIP3      H1             -3.7630786401       19.6376653502       32.4223989459  TIP3      1193            0.0000000000
     14739      1289  TIP3      H2             -2.9278111358       20.8707888598       32.1519351802  TIP3      1193            0.0000000000
     14740      1290  TIP3      OH2             7.0351832573       24.0621531660       28.7985053656  TIP3      1194            0.0000000000
     14741      1290  TIP3      H1              7.3170447865       23.3006899687       29.3262632477  TIP3      1194            0.0000000000
     14742      1290  TIP3      H2              7.6741814304       24.7376180624       29.1101311881  TIP3      1194            0.0000000000
     14743      1291  TIP3      OH2            -2.9367869640       24.7843394689       30.4438255248  TIP3      1195            0.0000000000
     14744      1291  TIP3      H1             -3.3844600577       23.9508944570       30.1939297568  TIP3      1195            0.0000000000
     14745      1291  TIP3      H2             -2.0760235167       24.6930201360       29.9669669739  TIP3      1195            0.0000000000
     14746      1292  TIP3      OH2            -6.0192096341       18.4921478951       25.7627044916  TIP3      1196            0.0000000000
     14747      1292  TIP3      H1             -6.3474567157       19.3908523292       25.9146395955  TIP3      1196            0.0000000000
     14748      1292  TIP3      H2             -6.6053679979       18.1619909901       25.0516112633  TIP3      1196            0.0000000000
     14749      1293  TIP3      OH2            -5.6551088376       20.9116823372       28.4354190371  TIP3      1197            0.0000000000
     14750      1293  TIP3      H1             -5.4646810492       19.9786521189       28.6696856506  TIP3      1197            0.0000000000
     14751      1293  TIP3      H2             -4.7645408757       21.3156940129       28.4352240207  TIP3      1197            0.0000000000
     14752      1294  TIP3      OH2             1.7615278944       23.4882661821       31.2208648948  TIP3      1198            0.0000000000
     14753      1294  TIP3      H1              2.3662665691       22.9026019603       30.7288769351  TIP3      1198            0.0000000000
     14754      1294  TIP3      H2              2.4387507825       23.8873165115       31.8080986089  TIP3      1198            0.0000000000
     14755      1295  TIP3      OH2            10.6227725902       15.0329413159       30.8125347568  TIP3      1199            0.0000000000
     14756      1295  TIP3      H1             10.7168374524       15.5988583981       31.6043627873  TIP3      1199            0.0000000000
     14757      1295  TIP3      H2             11.4514595736       15.2473603282       30.3492137270  TIP3      1199            0.0000000000
     14758      1296  TIP3      OH2             5.7588438597       17.9264375565       31.2230129722  TIP3      1200            0.0000000000
     14759      1296  TIP3      H1              5.9719325125       17.0368280033       31.5513157408  TIP3      1200            0.0000000000
     14760      1296  TIP3      H2              5.7820047062       17.7667742712       30.2577032491  TIP3      1200            0.0000000000
     14761      1297  TIP3      OH2            -1.3263637441       15.4859448311       27.9885482772  TIP3      1201            0.0000000000
     14762      1297  TIP3      H1             -1.4333732871       16.3599680590       27.5673338060  TIP3      1201            0.0000000000
     14763      1297  TIP3      H2             -1.9661220201       14.9742528213       27.4547526135  TIP3      1201            0.0000000000
     14764      1298  TIP3      OH2             6.3603968805       15.6328074098       26.6172830247  TIP3      1202            0.0000000000
     14765      1298  TIP3      H1              6.5470605751       15.4301827469       27.5592181283  TIP3      1202            0.0000000000
     14766      1298  TIP3      H2              7.2098032449       16.0335201946       26.3723679477  TIP3      1202            0.0000000000
     14767      1299  TIP3      OH2            -4.8319011977       18.3934566759       29.0590810932  TIP3      1203            0.0000000000
     14768      1299  TIP3      H1             -4.2432793931       17.8852458563       29.6532085485  TIP3      1203            0.0000000000
     14769      1299  TIP3      H2             -4.6531742743       17.9771636443       28.1984303434  TIP3      1203            0.0000000000
     14770      1300  TIP3      OH2            -0.5308938283       19.7220701365       28.2944191360  TIP3      1204            0.0000000000
     14771      1300  TIP3      H1              0.4179362762       19.4731367629       28.3412615713  TIP3      1204            0.0000000000
     14772      1300  TIP3      H2             -0.8848378567       19.0729452705       27.6460818300  TIP3      1204            0.0000000000
     14773      1301  TIP3      OH2            11.0981372422       16.4310968619       33.5983394193  TIP3      1205            0.0000000000
     14774      1301  TIP3      H1             10.5660797788       17.2642795407       33.6291355229  TIP3      1205            0.0000000000
     14775      1301  TIP3      H2             11.4233421945       16.3943546634       34.5145141553  TIP3      1205            0.0000000000
     14776      1302  TIP3      OH2            -2.2034394676       14.7413309425       32.1725476163  TIP3      1206            0.0000000000
     14777      1302  TIP3      H1             -2.5680833754       15.2711757950       31.4316015177  TIP3      1206            0.0000000000
     14778      1302  TIP3      H2             -2.9167963801       14.9042364799       32.8098116572  TIP3      1206            0.0000000000
     14779      1303  TIP3      OH2             4.1738748820       24.2432034308       25.7786348444  TIP3      1207            0.0000000000
     14780      1303  TIP3      H1              3.2157125522       24.0837525327       25.7670618669  TIP3      1207            0.0000000000
     14781      1303  TIP3      H2              4.1624189440       25.1869201484       25.9921713741  TIP3      1207            0.0000000000
     14782      1304  TIP3      OH2            -0.4166105755       22.7977272387       32.3668616247  TIP3      1208            0.0000000000
     14783      1304  TIP3      H1             -0.9463176325       23.6236263766       32.4375721458  TIP3      1208            0.0000000000
     14784      1304  TIP3      H2              0.3847656912       23.1383022900       31.8979753567  TIP3      1208            0.0000000000
     14785      1305  TIP3      OH2             7.9763305039       15.3472700959       29.0824359221  TIP3      1209            0.0000000000
     14786      1305  TIP3      H1              7.9255324026       14.7424174158       29.8325482097  TIP3      1209            0.0000000000
     14787      1305  TIP3      H2              8.9138258319       15.5800218409       29.1312371204  TIP3      1209            0.0000000000
     14788      1306  TIP3      OH2            -2.9711362130       16.6052129570       30.3547059433  TIP3      1210            0.0000000000
     14789      1306  TIP3      H1             -2.3902696022       17.2765689187       30.7982683853  TIP3      1210            0.0000000000
     14790      1306  TIP3      H2             -2.4833001305       16.4508894492       29.5214166013  TIP3      1210            0.0000000000
     14791      1307  TIP3      OH2            -1.6018880515       25.1481892396       32.9763436255  TIP3      1211            0.0000000000
     14792      1307  TIP3      H1             -2.0489152188       25.3900281076       32.1473925462  TIP3      1211            0.0000000000
     14793      1307  TIP3      H2             -2.4250242755       24.9613157765       33.5031671011  TIP3      1211            0.0000000000
     14794      1308  TIP3      OH2            -5.6376031256       25.0302485316       24.3037763057  TIP3      1212            0.0000000000
     14795      1308  TIP3      H1             -5.5503908214       25.6844694759       23.6011781675  TIP3      1212            0.0000000000
     14796      1308  TIP3      H2             -6.4811391374       25.2531198448       24.7250054852  TIP3      1212            0.0000000000
     14797      1309  TIP3      OH2             7.4211919563       25.2430444097       32.1472912037  TIP3      1213            0.0000000000
     14798      1309  TIP3      H1              6.7101598669       25.3723109659       31.5011423657  TIP3      1213            0.0000000000
     14799      1309  TIP3      H2              7.9883809368       26.0093542583       31.9786600756  TIP3      1213            0.0000000000
     14800      1310  TIP3      OH2             8.3812838002       13.9694921915       31.9920981915  TIP3      1214            0.0000000000
     14801      1310  TIP3      H1              7.5396877250       14.2551968339       31.5744438465  TIP3      1214            0.0000000000
     14802      1310  TIP3      H2              9.0730699023       14.3482354474       31.4062593963  TIP3      1214            0.0000000000
     14803      1311  TIP3      OH2             0.9419468446       12.2039671840       29.7377301825  TIP3      1215            0.0000000000
     14804      1311  TIP3      H1              0.7904003746       11.2451456177       29.7200369696  TIP3      1215            0.0000000000
     14805      1311  TIP3      H2              0.0133245794       12.4952699613       29.9196405994  TIP3      1215            0.0000000000
     14806      1312  TIP3      OH2             7.5439660698       25.7105923499       26.5366394950  TIP3      1216            0.0000000000
     14807      1312  TIP3      H1              7.8603799592       25.5295531662       25.6424469084  TIP3      1216            0.0000000000
     14808      1312  TIP3      H2              7.3180684548       24.8205965746       26.8545418939  TIP3      1216            0.0000000000
     14809      1313  TIP3      OH2             8.7877172459       24.3899332171       34.5130149443  TIP3      1217            0.0000000000
     14810      1313  TIP3      H1              9.1047366519       23.7338887962       33.8538278505  TIP3      1217            0.0000000000
     14811      1313  TIP3      H2              8.2204179653       24.9102613028       33.9085605518  TIP3      1217            0.0000000000
     14812      1314  TIP3      OH2            11.2522956794       20.6328553726       32.4192741241  TIP3      1218            0.0000000000
     14813      1314  TIP3      H1             10.6145647467       21.3260845257       32.6806753425  TIP3      1218            0.0000000000
     14814      1314  TIP3      H2             11.8582423142       21.1474041427       31.8503572959  TIP3      1218            0.0000000000
     14815      1315  TIP3      OH2             6.8674402478       19.4348234875       34.0694843728  TIP3      1219            0.0000000000
     14816      1315  TIP3      H1              6.5319263740       20.2424829973       34.4964664393  TIP3      1219            0.0000000000
     14817      1315  TIP3      H2              6.5373108093       19.6142640463       33.1737405490  TIP3      1219            0.0000000000
     14818      1316  TIP3      OH2            -1.2198467176       21.8816393367       26.8356557894  TIP3      1220            0.0000000000
     14819      1316  TIP3      H1             -1.9846336548       21.6961283448       26.2694647880  TIP3      1220            0.0000000000
     14820      1316  TIP3      H2             -1.0784820862       21.0629487994       27.3464706689  TIP3      1220            0.0000000000
     14821      1317  TIP3      OH2            -0.4250767658       24.4815417772       29.4098782383  TIP3      1221            0.0000000000
     14822      1317  TIP3      H1              0.0190447915       24.8968660968       28.6487284780  TIP3      1221            0.0000000000
     14823      1317  TIP3      H2              0.3216548250       24.2872146471       29.9982107862  TIP3      1221            0.0000000000
     14824      1318  TIP3      OH2            -1.3125930944       20.6753489771       30.7008857683  TIP3      1222            0.0000000000
     14825      1318  TIP3      H1             -0.9056483383       20.4626868282       29.8322593630  TIP3      1222            0.0000000000
     14826      1318  TIP3      H2             -0.6232897217       21.2083547197       31.1409693059  TIP3      1222            0.0000000000
     14827      1319  TIP3      OH2            -0.4473980837       24.1682722939       35.4995493974  TIP3      1223            0.0000000000
     14828      1319  TIP3      H1             -1.2497037692       24.6045908074       35.8129303235  TIP3      1223            0.0000000000
     14829      1319  TIP3      H2             -0.5704105070       24.1968952471       34.5329996685  TIP3      1223            0.0000000000
     14830      1320  TIP3      OH2            -3.1049927645       21.0538397312       34.9114599203  TIP3      1224            0.0000000000
     14831      1320  TIP3      H1             -3.2374663060       21.7960242739       35.5379974005  TIP3      1224            0.0000000000
     14832      1320  TIP3      H2             -4.0214749321       21.0418576950       34.5519648794  TIP3      1224            0.0000000000
     14833      1321  TIP3      OH2             9.7644761016       11.8213055935       23.4809001812  TIP3      1225            0.0000000000
     14834      1321  TIP3      H1              8.9067639141       12.2643476548       23.5830490860  TIP3      1225            0.0000000000
     14835      1321  TIP3      H2             10.1186090467       12.2983253815       22.7124614171  TIP3      1225            0.0000000000
     14836      1322  TIP3      OH2            -6.0439772133       23.5151318454       33.5941918873  TIP3      1226            0.0000000000
     14837      1322  TIP3      H1             -6.1669774771       23.4269945992       32.6338513384  TIP3      1226            0.0000000000
     14838      1322  TIP3      H2             -5.7100667829       22.6088398818       33.7857252394  TIP3      1226            0.0000000000
     14839      1323  TIP3      OH2             8.2141757725       17.7045234555       36.6285397722  TIP3      1227            0.0000000000
     14840      1323  TIP3      H1              7.6762818065       18.1681452650       35.9610320683  TIP3      1227            0.0000000000
     14841      1323  TIP3      H2              8.2076737966       16.7781769735       36.2964593109  TIP3      1227            0.0000000000
     14842      1324  TIP3      OH2            -3.8132202598       24.7311693995       34.3714145665  TIP3      1228            0.0000000000
     14843      1324  TIP3      H1             -3.6814427904       24.2759424575       35.2318467898  TIP3      1228            0.0000000000
     14844      1324  TIP3      H2             -4.7143088261       24.4285054246       34.1330104876  TIP3      1228            0.0000000000
     14845      1325  TIP3      OH2            -1.5790940557       12.8887957017       30.3725324068  TIP3      1229            0.0000000000
     14846      1325  TIP3      H1             -2.5506285520       12.9552606250       30.2229473497  TIP3      1229            0.0000000000
     14847      1325  TIP3      H2             -1.4922066769       13.5458674037       31.0897204063  TIP3      1229            0.0000000000
     14848      1326  TIP3      OH2             3.3113187257       12.8584681788       33.8465291642  TIP3      1230            0.0000000000
     14849      1326  TIP3      H1              3.5820278906       12.6448747459       34.7594997737  TIP3      1230            0.0000000000
     14850      1326  TIP3      H2              2.3276670209       12.8121414675       33.8906355989  TIP3      1230            0.0000000000
     14851      1327  TIP3      OH2             6.1273055063       16.7771542280       34.5584001390  TIP3      1231            0.0000000000
     14852      1327  TIP3      H1              5.5696476404       16.7564218548       35.3753602734  TIP3      1231            0.0000000000
     14853      1327  TIP3      H2              6.1617489546       17.7339306365       34.3852869514  TIP3      1231            0.0000000000
     14854      1328  TIP3      OH2            -1.2401349108       18.1913754597       31.5649374740  TIP3      1232            0.0000000000
     14855      1328  TIP3      H1             -1.7104990670       18.2845473862       32.4224556606  TIP3      1232            0.0000000000
     14856      1328  TIP3      H2             -1.3932381626       19.1071598143       31.2458548889  TIP3      1232            0.0000000000
     14857      1329  TIP3      OH2            -1.5469740291       17.7793897712       26.5613510475  TIP3      1233            0.0000000000
     14858      1329  TIP3      H1             -2.4856063622       17.4874617216       26.4395754729  TIP3      1233            0.0000000000
     14859      1329  TIP3      H2             -1.0773415532       17.3622720380       25.8214029739  TIP3      1233            0.0000000000
     14860      1330  TIP3      OH2             4.1308816306       18.2934778982       25.0121289289  TIP3      1234            0.0000000000
     14861      1330  TIP3      H1              4.7358585626       18.9753543901       25.3395079516  TIP3      1234            0.0000000000
     14862      1330  TIP3      H2              4.7321437719       17.7915981607       24.4240209998  TIP3      1234            0.0000000000
     14863      1331  TIP3      OH2             3.0374736102       19.2479145808       36.8894054271  TIP3      1235            0.0000000000
     14864      1331  TIP3      H1              2.7566289356       18.3263561574       37.0805268572  TIP3      1235            0.0000000000
     14865      1331  TIP3      H2              3.8430242349       19.3020901118       37.4451835822  TIP3      1235            0.0000000000
     14866      1332  TIP3      OH2             5.7846362320       18.2160731180       28.2964631063  TIP3      1236            0.0000000000
     14867      1332  TIP3      H1              5.7376299955       19.0230567500       27.7606997816  TIP3      1236            0.0000000000
     14868      1332  TIP3      H2              5.6727258902       17.5271206287       27.6234223124  TIP3      1236            0.0000000000
     14869      1333  TIP3      OH2            -3.7581281772       17.8525642026       32.9926089334  TIP3      1237            0.0000000000
     14870      1333  TIP3      H1             -3.4668476584       18.2223982003       33.8484077724  TIP3      1237            0.0000000000
     14871      1333  TIP3      H2             -4.2312896551       17.0420654523       33.2656973508  TIP3      1237            0.0000000000
     14872      1334  TIP3      OH2            -6.7814144941       15.2974527062       27.4731073204  TIP3      1238            0.0000000000
     14873      1334  TIP3      H1             -5.8944113463       15.4754156520       27.8022497270  TIP3      1238            0.0000000000
     14874      1334  TIP3      H2             -6.6117942606       15.1521255154       26.5215745093  TIP3      1238            0.0000000000
     14875      1335  TIP3      OH2            -5.8516577328       16.0168590875       22.7300830046  TIP3      1239            0.0000000000
     14876      1335  TIP3      H1             -5.4909969653       16.5485547983       21.9909481627  TIP3      1239            0.0000000000
     14877      1335  TIP3      H2             -6.4183525142       16.7196312750       23.1098952232  TIP3      1239            0.0000000000
     14878      1336  TIP3      OH2             4.3203400120       19.8085816812       32.5410457291  TIP3      1240            0.0000000000
     14879      1336  TIP3      H1              4.9575425068       19.2026384186       32.0955471660  TIP3      1240            0.0000000000
     14880      1336  TIP3      H2              3.7617240725       19.1748069549       33.0519198236  TIP3      1240            0.0000000000
     14881      1337  TIP3      OH2             1.5508476204       15.5285666273       27.9304856165  TIP3      1241            0.0000000000
     14882      1337  TIP3      H1              0.5801030843       15.4251393159       27.8692059189  TIP3      1241            0.0000000000
     14883      1337  TIP3      H2              1.6900026638       15.3426606317       28.8693697212  TIP3      1241            0.0000000000
     14884      1338  TIP3      OH2            -4.0510211028       16.8683766871       26.6179231313  TIP3      1242            0.0000000000
     14885      1338  TIP3      H1             -4.8619809822       17.2800161509       26.2455921100  TIP3      1242            0.0000000000
     14886      1338  TIP3      H2             -3.9576896168       15.9906138936       26.1783725008  TIP3      1242            0.0000000000
     14887      1339  TIP3      OH2             5.9236345040       14.6833133511       31.1001061036  TIP3      1243            0.0000000000
     14888      1339  TIP3      H1              5.0696124403       14.7636494823       31.5515901377  TIP3      1243            0.0000000000
     14889      1339  TIP3      H2              5.6385634177       14.3073623338       30.2324114450  TIP3      1243            0.0000000000
     14890      1340  TIP3      OH2            -3.5018930134       23.2830744412       36.5271043361  TIP3      1244            0.0000000000
     14891      1340  TIP3      H1             -2.7399546931       23.2400851365       37.1366360266  TIP3      1244            0.0000000000
     14892      1340  TIP3      H2             -4.2291895418       23.3214987624       37.1828970136  TIP3      1244            0.0000000000
     14893      1341  TIP3      OH2             2.0536405704       18.9073692585       29.1031250957  TIP3      1245            0.0000000000
     14894      1341  TIP3      H1              2.8911364194       18.4451202122       28.9537052620  TIP3      1245            0.0000000000
     14895      1341  TIP3      H2              1.6611351767       18.3410035664       29.7810312117  TIP3      1245            0.0000000000
     14896      1342  TIP3      OH2            -3.0046962405       14.4491103576       26.1296789244  TIP3      1246            0.0000000000
     14897      1342  TIP3      H1             -3.4728420218       13.6871522391       26.5505870817  TIP3      1246            0.0000000000
     14898      1342  TIP3      H2             -2.3470635836       13.9581389912       25.6055938087  TIP3      1246            0.0000000000
     14899      1343  TIP3      OH2             1.0221020867       16.7169876718       31.7372508290  TIP3      1247            0.0000000000
     14900      1343  TIP3      H1              0.1913406808       17.2406878324       31.6747759551  TIP3      1247            0.0000000000
     14901      1343  TIP3      H2              1.6288766784       17.2833079539       32.2427589173  TIP3      1247            0.0000000000
     14902      1344  TIP3      OH2             1.0507152787       22.3807739848       23.9890717608  TIP3      1248            0.0000000000
     14903      1344  TIP3      H1              0.7870536365       23.2096225029       23.5227020177  TIP3      1248            0.0000000000
     14904      1344  TIP3      H2              0.9305417956       22.6988329456       24.9065470083  TIP3      1248            0.0000000000
     14905      1345  TIP3      OH2             9.3484427299       22.5352208416       32.6048218011  TIP3      1249            0.0000000000
     14906      1345  TIP3      H1              9.7658224419       23.1067706831       31.9137106568  TIP3      1249            0.0000000000
     14907      1345  TIP3      H2              8.4352643565       22.4635940105       32.2616944134  TIP3      1249            0.0000000000
     14908      1346  TIP3      OH2             2.6083365296       23.6471945656       34.3524567012  TIP3      1250            0.0000000000
     14909      1346  TIP3      H1              3.2545761460       23.5956279251       35.0711482892  TIP3      1250            0.0000000000
     14910      1346  TIP3      H2              2.2844883437       24.5504999783       34.4247218614  TIP3      1250            0.0000000000
     14911      1347  TIP3      OH2             6.6955707603       18.2075357529       24.0129961512  TIP3      1251            0.0000000000
     14912      1347  TIP3      H1              7.3721709013       17.7583391993       24.5534447249  TIP3      1251            0.0000000000
     14913      1347  TIP3      H2              6.8976029686       17.9299569658       23.1159075843  TIP3      1251            0.0000000000
     14914      1348  TIP3      OH2            -3.0418195664       22.3156689792       29.0462949602  TIP3      1252            0.0000000000
     14915      1348  TIP3      H1             -2.3337396790       22.5815108748       28.4292889249  TIP3      1252            0.0000000000
     14916      1348  TIP3      H2             -2.6216153686       21.6857086939       29.6603620696  TIP3      1252            0.0000000000
     14917      1349  TIP3      OH2            -5.7220525605       20.9560294119       34.4363467781  TIP3      1253            0.0000000000
     14918      1349  TIP3      H1             -5.7772472072       20.7306656936       35.4066421902  TIP3      1253            0.0000000000
     14919      1349  TIP3      H2             -6.4925064809       20.4990866457       34.0671882714  TIP3      1253            0.0000000000
     14920      1350  TIP3      OH2             0.4747097972       20.4257760104       36.1984679355  TIP3      1254            0.0000000000
     14921      1350  TIP3      H1              0.5364906745       20.5777448296       35.2271465989  TIP3      1254            0.0000000000
     14922      1350  TIP3      H2              0.9971086464       19.6096432744       36.2840333827  TIP3      1254            0.0000000000
     14923      1351  TIP3      OH2             5.2648119764       25.4204818730       35.3806799992  TIP3      1255            0.0000000000
     14924      1351  TIP3      H1              4.6318343697       26.0475285646       34.9731851512  TIP3      1255            0.0000000000
     14925      1351  TIP3      H2              5.4770263936       25.8994635312       36.2036399773  TIP3      1255            0.0000000000
     14926      1352  TIP3      OH2            10.1999200195       17.9235783001       22.6889759395  TIP3      1256            0.0000000000
     14927      1352  TIP3      H1              9.7844435007       18.3384298547       21.9068403984  TIP3      1256            0.0000000000
     14928      1352  TIP3      H2             10.7665731313       18.6887407079       22.9246090372  TIP3      1256            0.0000000000
     14929      1353  TIP3      OH2            11.3433821918       23.8665790868       35.7683673529  TIP3      1257            0.0000000000
     14930      1353  TIP3      H1             10.4009213534       23.8357542851       35.5181526190  TIP3      1257            0.0000000000
     14931      1353  TIP3      H2             11.7998483919       23.7785454909       34.9076647609  TIP3      1257            0.0000000000
     14932      1354  TIP3      OH2             6.9902475894       21.4993754203       30.8791803695  TIP3      1258            0.0000000000
     14933      1354  TIP3      H1              6.2129343345       21.6758053037       30.3364546679  TIP3      1258            0.0000000000
     14934      1354  TIP3      H2              7.4266787069       20.7478253651       30.4208248760  TIP3      1258            0.0000000000
     14935      1355  TIP3      OH2            -1.6279756005       25.9897913426       26.9457398776  TIP3      1259            0.0000000000
     14936      1355  TIP3      H1             -0.9194074163       26.4746172780       26.4690031490  TIP3      1259            0.0000000000
     14937      1355  TIP3      H2             -1.9310762671       26.6868841483       27.5486668618  TIP3      1259            0.0000000000
     14938      1356  TIP3      OH2             0.5143469911       23.9150761563       26.3114032327  TIP3      1260            0.0000000000
     14939      1356  TIP3      H1             -0.2623101312       24.4429433293       26.0555217897  TIP3      1260            0.0000000000
     14940      1356  TIP3      H2              0.0746008525       23.2190795320       26.8396036234  TIP3      1260            0.0000000000
     14941      1357  TIP3      OH2             4.3086275349       23.7090732603       32.2075278026  TIP3      1261            0.0000000000
     14942      1357  TIP3      H1              3.9566898654       23.4424350704       33.0789534653  TIP3      1261            0.0000000000
     14943      1357  TIP3      H2              5.0525623838       23.1058451815       32.0990135438  TIP3      1261            0.0000000000
     14944      1358  TIP3      OH2            -4.3234145662       15.3513920517       34.2171636047  TIP3      1262            0.0000000000
     14945      1358  TIP3      H1             -4.9958423273       15.7930646282       34.7604921814  TIP3      1262            0.0000000000
     14946      1358  TIP3      H2             -3.9594667804       14.7321049985       34.8666049179  TIP3      1262            0.0000000000
     14947      1359  TIP3      OH2             1.2766560492       24.0191226242       19.8821632440  TIP3      1263            0.0000000000
     14948      1359  TIP3      H1              0.5504496727       23.3890132540       19.7941137712  TIP3      1263            0.0000000000
     14949      1359  TIP3      H2              0.8104698565       24.7898257807       20.2667495509  TIP3      1263            0.0000000000
     14950      1360  TIP3      OH2             0.3011141993       25.0625121106       23.4531399479  TIP3      1264            0.0000000000
     14951      1360  TIP3      H1              0.6000652779       25.8897115792       23.8498185101  TIP3      1264            0.0000000000
     14952      1360  TIP3      H2              0.3385851783       25.3031486309       22.5088321171  TIP3      1264            0.0000000000
     14953      1361  TIP3      OH2            -2.7394504767       23.1677574229       24.0404663590  TIP3      1265            0.0000000000
     14954      1361  TIP3      H1             -3.6773367184       23.3440432902       24.2060414452  TIP3      1265            0.0000000000
     14955      1361  TIP3      H2             -2.7347055249       23.1471189901       23.0670340773  TIP3      1265            0.0000000000
     14956      1362  TIP3      OH2             3.8556792971       15.5520536348       33.7148615746  TIP3      1266            0.0000000000
     14957      1362  TIP3      H1              4.7882284423       15.6858395158       33.9815182501  TIP3      1266            0.0000000000
     14958      1362  TIP3      H2              3.7262152735       14.5863141587       33.8229071912  TIP3      1266            0.0000000000
     14959      1363  TIP3      OH2             4.6377686963       14.9233238253       24.6455731381  TIP3      1267            0.0000000000
     14960      1363  TIP3      H1              5.0980566755       14.2856873131       24.0814484570  TIP3      1267            0.0000000000
     14961      1363  TIP3      H2              5.3487701967       15.1192003505       25.2966358690  TIP3      1267            0.0000000000
     14962      1364  TIP3      OH2             1.7446403094       16.9264090472       25.0814467500  TIP3      1268            0.0000000000
     14963      1364  TIP3      H1              2.6196409776       17.3742275587       25.0467688214  TIP3      1268            0.0000000000
     14964      1364  TIP3      H2              1.7825017694       16.4583094880       25.9331736279  TIP3      1268            0.0000000000
     14965      1365  TIP3      OH2             2.9520650806       18.2052680416       34.2548333914  TIP3      1269            0.0000000000
     14966      1365  TIP3      H1              2.9689091732       18.5991092808       35.1570817920  TIP3      1269            0.0000000000
     14967      1365  TIP3      H2              3.1939862182       17.2668090084       34.4044347716  TIP3      1269            0.0000000000
     14968      1366  TIP3      OH2             2.9335289386       13.6654513605       26.3179725952  TIP3      1270            0.0000000000
     14969      1366  TIP3      H1              2.5381716851       14.2825917898       26.9669736043  TIP3      1270            0.0000000000
     14970      1366  TIP3      H2              3.6184212915       14.2304254527       25.8849302530  TIP3      1270            0.0000000000
     14971      1367  TIP3      OH2             8.5316190331       15.5144118501       34.8003289542  TIP3      1271            0.0000000000
     14972      1367  TIP3      H1              7.6062727792       15.7410550013       34.5682453605  TIP3      1271            0.0000000000
     14973      1367  TIP3      H2              8.9292465451       15.3265267366       33.9380171355  TIP3      1271            0.0000000000
     14974      1368  TIP3      OH2             8.0265012964       19.3833012691       29.3931588891  TIP3      1272            0.0000000000
     14975      1368  TIP3      H1              7.3151307509       18.7427263751       29.2155151473  TIP3      1272            0.0000000000
     14976      1368  TIP3      H2              8.6524304353       18.8583554460       29.9417294546  TIP3      1272            0.0000000000
     14977      1369  TIP3      OH2            -3.0628477337       25.6577935009       21.8170200469  TIP3      1273            0.0000000000
     14978      1369  TIP3      H1             -2.6300128338       26.1469144555       22.5267179851  TIP3      1273            0.0000000000
     14979      1369  TIP3      H2             -2.2726607927       25.3205883811       21.3602425277  TIP3      1273            0.0000000000
     14980      1370  TIP3      OH2            -5.2872962479       18.0039166554       20.8528333272  TIP3      1274            0.0000000000
     14981      1370  TIP3      H1             -4.5043181468       18.5588772551       20.6609075662  TIP3      1274            0.0000000000
     14982      1370  TIP3      H2             -6.0112774684       18.5990181524       20.6211486217  TIP3      1274            0.0000000000
     14983      1371  TIP3      OH2            -4.1447869736       12.7003479929       29.9429078660  TIP3      1275            0.0000000000
     14984      1371  TIP3      H1             -4.0773228973       12.5172588874       28.9829008098  TIP3      1275            0.0000000000
     14985      1371  TIP3      H2             -4.5098586634       11.8483188152       30.2534643421  TIP3      1275            0.0000000000
     14986      1372  TIP3      OH2            -5.5685290845       23.4968583995       38.4458651502  TIP3      1276            0.0000000000
     14987      1372  TIP3      H1             -5.7776799933       22.7474850184       39.0205496015  TIP3      1276            0.0000000000
     14988      1372  TIP3      H2             -6.2747652099       23.3569053929       37.7898393088  TIP3      1276            0.0000000000
     14989      1373  TIP3      OH2            -1.6290379803       23.2002352342       19.9429650884  TIP3      1277            0.0000000000
     14990      1373  TIP3      H1             -2.2325946959       22.7173237053       20.5293523125  TIP3      1277            0.0000000000
     14991      1373  TIP3      H2             -1.1407550651       22.4426370747       19.5335464455  TIP3      1277            0.0000000000
     14992      1374  TIP3      OH2             1.2215227288       23.0973768161       37.2405477817  TIP3      1278            0.0000000000
     14993      1374  TIP3      H1              0.8739653356       23.5727986200       36.4464857423  TIP3      1278            0.0000000000
     14994      1374  TIP3      H2              1.4234279270       22.2387179283       36.8153670802  TIP3      1278            0.0000000000
     14995      1375  TIP3      OH2             4.3650892045       23.4287146815       19.7645036373  TIP3      1279            0.0000000000
     14996      1375  TIP3      H1              4.5425739947       24.2986579193       20.2076130221  TIP3      1279            0.0000000000
     14997      1375  TIP3      H2              3.4212093460       23.5262773654       19.5709302152  TIP3      1279            0.0000000000
     14998      1376  TIP3      OH2             6.4102546927       23.0686847661       34.9837494514  TIP3      1280            0.0000000000
     14999      1376  TIP3      H1              7.2563296609       23.5623121199       34.9034208371  TIP3      1280            0.0000000000
     15000      1376  TIP3      H2              5.7950067385       23.8406188981       34.9800246718  TIP3      1280            0.0000000000
     15001      1377  TIP3      OH2            -5.1222758950       20.6793134270       36.9632279468  TIP3      1281            0.0000000000
     15002      1377  TIP3      H1             -4.2336698200       20.3097861887       36.9623389362  TIP3      1281            0.0000000000
     15003      1377  TIP3      H2             -5.4176289435       20.3761405168       37.8356802316  TIP3      1281            0.0000000000
     15004      1378  TIP3      OH2            -1.4900789018       19.2452194158       33.9583603234  TIP3      1282            0.0000000000
     15005      1378  TIP3      H1             -2.1121891921       19.8678671094       34.4192987469  TIP3      1282            0.0000000000
     15006      1378  TIP3      H2             -0.7127186309       19.8142449928       33.8095702491  TIP3      1282            0.0000000000
     15007      1379  TIP3      OH2             4.5261067201       22.1716185391       38.2244687280  TIP3      1283            0.0000000000
     15008      1379  TIP3      H1              5.1784103688       21.5806657294       37.8209535310  TIP3      1283            0.0000000000
     15009      1379  TIP3      H2              3.7904613853       21.5832852713       38.4118560471  TIP3      1283            0.0000000000
     15010      1380  TIP3      OH2            -0.2728701322       17.4602661689       35.6660025703  TIP3      1284            0.0000000000
     15011      1380  TIP3      H1             -0.1133717534       16.5896727546       35.2627527608  TIP3      1284            0.0000000000
     15012      1380  TIP3      H2             -0.5344066771       18.0170483517       34.9031200430  TIP3      1284            0.0000000000
     15013      1381  TIP3      OH2             0.1651192903       15.1391819762       33.7535709437  TIP3      1285            0.0000000000
     15014      1381  TIP3      H1              0.6922843713       15.6590531955       33.1028762583  TIP3      1285            0.0000000000
     15015      1381  TIP3      H2             -0.6818834403       15.0304542033       33.2810320898  TIP3      1285            0.0000000000
     15016      1382  TIP3      OH2             1.0221191130       20.8379733907       33.5642763114  TIP3      1286            0.0000000000
     15017      1382  TIP3      H1              1.9012321155       21.0656092478       33.2311112097  TIP3      1286            0.0000000000
     15018      1382  TIP3      H2              0.4898721297       21.5847117652       33.2037904236  TIP3      1286            0.0000000000
     15019      1383  TIP3      OH2             5.2660800746       18.8272424571       38.5328258447  TIP3      1287            0.0000000000
     15020      1383  TIP3      H1              5.3496133061       17.8636073243       38.5053947828  TIP3      1287            0.0000000000
     15021      1383  TIP3      H2              6.2082572601       19.0533456689       38.5277780315  TIP3      1287            0.0000000000
     15022      1384  TIP3      OH2             7.1534611986       20.9129427231       36.7833217780  TIP3      1288            0.0000000000
     15023      1384  TIP3      H1              6.8879527056       21.6711793061       36.2280617705  TIP3      1288            0.0000000000
     15024      1384  TIP3      H2              8.0921212984       20.8051466958       36.5386725211  TIP3      1288            0.0000000000
     15025      1385  TIP3      OH2            -2.1851753080       18.4394498356       38.5766959874  TIP3      1289            0.0000000000
     15026      1385  TIP3      H1             -2.7624456863       17.6827861730       38.3655950249  TIP3      1289            0.0000000000
     15027      1385  TIP3      H2             -1.8110651814       18.6260127924       37.6985099744  TIP3      1289            0.0000000000
     15028      1386  TIP3      OH2             0.7638780362       12.5799981072       33.3909284831  TIP3      1290            0.0000000000
     15029      1386  TIP3      H1              0.4327431369       13.4832213313       33.6097031046  TIP3      1290            0.0000000000
     15030      1386  TIP3      H2             -0.0556208478       12.1419565681       33.1514690439  TIP3      1290            0.0000000000
     15031      1387  TIP3      OH2             2.1894013723       16.6151427935       37.6657361160  TIP3      1291            0.0000000000
     15032      1387  TIP3      H1              1.7420763114       16.5267533903       38.5278277543  TIP3      1291            0.0000000000
     15033      1387  TIP3      H2              1.4805089300       16.2723861852       37.0950224219  TIP3      1291            0.0000000000
     15034      1388  TIP3      OH2             4.8517739102       16.3218686927       36.9265630029  TIP3      1292            0.0000000000
     15035      1388  TIP3      H1              3.9211696202       16.3205577996       37.2414988549  TIP3      1292            0.0000000000
     15036      1388  TIP3      H2              5.2676593663       15.6635388485       37.5280194843  TIP3      1292            0.0000000000
     15037      1389  TIP3      OH2             6.0542366435       14.5777634296       38.7621256733  TIP3      1293            0.0000000000
     15038      1389  TIP3      H1              6.0452758670       13.6150953038       38.5242614166  TIP3      1293            0.0000000000
     15039      1389  TIP3      H2              6.1220537007       14.5439708740       39.7339155608  TIP3      1293            0.0000000000
     15040      1390  TIP3      OH2            -4.1343091618       15.5610204203       37.7920158696  TIP3      1294            0.0000000000
     15041      1390  TIP3      H1             -4.3245831155       14.7485055960       37.2819238305  TIP3      1294            0.0000000000
     15042      1390  TIP3      H2             -3.8531569166       15.1700357170       38.6366829715  TIP3      1294            0.0000000000
     15043      1391  TIP3      OH2             0.3293321838       11.7056009029       36.6837482549  TIP3      1295            0.0000000000
     15044      1391  TIP3      H1              0.9387450813       10.9599186732       36.8209773107  TIP3      1295            0.0000000000
     15045      1391  TIP3      H2              0.3679823611       11.7482971739       35.7235587180  TIP3      1295            0.0000000000
     15046      1392  TIP3      OH2             0.9246116411       13.2161371710       39.3540116643  TIP3      1296            0.0000000000
     15047      1392  TIP3      H1              0.8659943248       12.5612836966       38.6487516214  TIP3      1296            0.0000000000
     15048      1392  TIP3      H2              0.4858340357       13.9452495099       38.8595788893  TIP3      1296            0.0000000000
     15049      1393  TIP3      OH2            -4.3897841176       23.2434909386       21.7916852359  TIP3      1297            0.0000000000
     15050      1393  TIP3      H1             -4.1934108093       24.2108963494       21.7368523360  TIP3      1297            0.0000000000
     15051      1393  TIP3      H2             -5.1578068065       23.1065627350       21.2187624374  TIP3      1297            0.0000000000
     15052      1394  TIP3      OH2             9.8510318180       24.8483805907       38.7598469940  TIP3      1298            0.0000000000
     15053      1394  TIP3      H1              9.0094859869       24.3610830790       38.8496432448  TIP3      1298            0.0000000000
     15054      1394  TIP3      H2              9.6110265605       25.7145930159       39.1113575401  TIP3      1298            0.0000000000
     15055      1395  TIP3      OH2            11.0088097643       23.0122739602       24.4199778377  TIP3      1299            0.0000000000
     15056      1395  TIP3      H1             11.6907312711       23.7054259855       24.3813174945  TIP3      1299            0.0000000000
     15057      1395  TIP3      H2             11.1648814227       22.6140340304       25.3014906610  TIP3      1299            0.0000000000
     15058      1396  TIP3      OH2            11.1955772505       21.2923151227       26.4653389452  TIP3      1300            0.0000000000
     15059      1396  TIP3      H1             10.4809896617       20.6218864295       26.4848529098  TIP3      1300            0.0000000000
     15060      1396  TIP3      H2             11.7916415743       20.9656754555       27.1643944406  TIP3      1300            0.0000000000
     15061      1397  TIP3      OH2            10.3938263996       23.8276070828       30.5577859780  TIP3      1301            0.0000000000
     15062      1397  TIP3      H1             10.8354999048       23.0791898598       30.1256282428  TIP3      1301            0.0000000000
     15063      1397  TIP3      H2             11.0723103022       24.5202072966       30.5547890630  TIP3      1301            0.0000000000
     15064      1398  TIP3      OH2            11.1372094817       20.5416046065       22.8926978842  TIP3      1302            0.0000000000
     15065      1398  TIP3      H1             10.4524699330       20.9403855605       22.3364577617  TIP3      1302            0.0000000000
     15066      1398  TIP3      H2             11.2674624163       21.2903279494       23.5151566440  TIP3      1302            0.0000000000
     15067      1399  TIP3      OH2             9.2587411594       19.3857019577       26.6687774840  TIP3      1303            0.0000000000
     15068      1399  TIP3      H1              9.2878454093       18.4285077264       26.4950227181  TIP3      1303            0.0000000000
     15069      1399  TIP3      H2              8.9221474690       19.4226291994       27.5812092030  TIP3      1303            0.0000000000
     15070      1400  TIP3      OH2            -5.8355005714       21.9577744564       30.9768556236  TIP3      1304            0.0000000000
     15071      1400  TIP3      H1             -5.9563185585       21.4774339065       30.1268779567  TIP3      1304            0.0000000000
     15072      1400  TIP3      H2             -4.9807143302       21.5675049793       31.2920269618  TIP3      1304            0.0000000000
     15073      1401  TIP3      OH2            10.0285810583       21.1908791578       36.0423713285  TIP3      1305            0.0000000000
     15074      1401  TIP3      H1             10.3713450593       20.2806678060       36.1975528989  TIP3      1305            0.0000000000
     15075      1401  TIP3      H2             10.8573592892       21.6979007499       35.9206429791  TIP3      1305            0.0000000000
     15076      1402  TIP3      OH2            10.8173590068       18.5153059196       36.4350615755  TIP3      1306            0.0000000000
     15077      1402  TIP3      H1              9.9112290511       18.1400186001       36.3657850002  TIP3      1306            0.0000000000
     15078      1402  TIP3      H2             11.3814897141       17.7024131931       36.4381456353  TIP3      1306            0.0000000000
     15079      1403  TIP3      OH2             8.7882804450       16.8595538426       25.4940154764  TIP3      1307            0.0000000000
     15080      1403  TIP3      H1              9.2500706579       16.0056421615       25.6340462176  TIP3      1307            0.0000000000
     15081      1403  TIP3      H2              9.2226090119       17.1143795197       24.6635965372  TIP3      1307            0.0000000000
     15082      1404  TIP3      OH2             9.7423843899       17.8745079431       30.8362583676  TIP3      1308            0.0000000000
     15083      1404  TIP3      H1             10.7083350764       17.9919482742       30.6825439027  TIP3      1308            0.0000000000
     15084      1404  TIP3      H2              9.7690425600       17.9730275557       31.8139119264  TIP3      1308            0.0000000000
     15085      1405  TIP3      OH2             9.4799513979       18.6073631990       33.3681311949  TIP3      1309            0.0000000000
     15086      1405  TIP3      H1              8.5141668735       18.7276551124       33.5049461481  TIP3      1309            0.0000000000
     15087      1405  TIP3      H2              9.8322277661       19.5177728785       33.3847801136  TIP3      1309            0.0000000000
     15088      1406  TIP3      OH2            -6.4108294096       16.2760681134       36.3224078532  TIP3      1310            0.0000000000
     15089      1406  TIP3      H1             -5.6469554573       16.3971175216       36.9226135804  TIP3      1310            0.0000000000
     15090      1406  TIP3      H2             -6.7394004813       15.3893244203       36.6144158255  TIP3      1310            0.0000000000
     15091      1407  TIP3      OH2            11.8782693986       12.8202556038       39.1407285749  TIP3      1311            0.0000000000
     15092      1407  TIP3      H1             12.2375156034       12.1327584205       38.5536357606  TIP3      1311            0.0000000000
     15093      1407  TIP3      H2             11.5474728763       13.4540384104       38.4607447055  TIP3      1311            0.0000000000
     15094      1408  TIP3      OH2             9.4780761408       14.3126487455       24.9670430805  TIP3      1312            0.0000000000
     15095      1408  TIP3      H1              9.5678044692       13.7035739791       25.7282239308  TIP3      1312            0.0000000000
     15096      1408  TIP3      H2              8.5787394884       14.1156942925       24.6459336550  TIP3      1312            0.0000000000
     15097      1409  TIP3      OH2            -5.2129272025       15.1153005906       30.5585811241  TIP3      1313            0.0000000000
     15098      1409  TIP3      H1             -4.8753226736       14.2430289018       30.2628534894  TIP3      1313            0.0000000000
     15099      1409  TIP3      H2             -4.4182820810       15.6911643920       30.5368799343  TIP3      1313            0.0000000000
     15100      1410  TIP3      OH2            -6.6605567245       18.1718601414       30.9884685447  TIP3      1314            0.0000000000
     15101      1410  TIP3      H1             -6.1822695213       17.7801315882       30.2344409461  TIP3      1314            0.0000000000
     15102      1410  TIP3      H2             -5.9513385044       18.7018500038       31.3696509040  TIP3      1314            0.0000000000
     15103      1411  TIP3      OH2            10.7912645143       14.1509395479       37.1596629778  TIP3      1315            0.0000000000
     15104      1411  TIP3      H1             10.0069058184       14.7168546738       37.3400257113  TIP3      1315            0.0000000000
     15105      1411  TIP3      H2             10.6218752910       13.9003448876       36.2316137706  TIP3      1315            0.0000000000
     15106      1412  TIP3      OH2            -6.6820017316       14.5595049199       24.8299242055  TIP3      1316            0.0000000000
     15107      1412  TIP3      H1             -7.6371488621       14.5928939742       24.6409521068  TIP3      1316            0.0000000000
     15108      1412  TIP3      H2             -6.2973568324       14.9618926416       24.0277793899  TIP3      1316            0.0000000000
     15109      1413  TIP3      OH2            -6.9884185553       13.0959805627       33.1079150125  TIP3      1317            0.0000000000
     15110      1413  TIP3      H1             -7.4715025161       12.7270081347       33.8834830767  TIP3      1317            0.0000000000
     15111      1413  TIP3      H2             -6.7386952969       13.9638610190       33.4562693499  TIP3      1317            0.0000000000
     15112      1414  TIP3      OH2            10.1799514324       12.3751805682       35.0084550515  TIP3      1318            0.0000000000
     15113      1414  TIP3      H1              9.5507134098       12.4970580551       34.2880696826  TIP3      1318            0.0000000000
     15114      1414  TIP3      H2             10.4674320801       11.4649625624       34.7985157135  TIP3      1318            0.0000000000
     15115      1415  TIP3      OH2             3.9991735188       13.7056291201       29.3622567076  TIP3      1319            0.0000000000
     15116      1415  TIP3      H1              3.1288293105       13.8604481796       29.7352760860  TIP3      1319            0.0000000000
     15117      1415  TIP3      H2              3.7843282112       13.0874359395       28.6526669704  TIP3      1319            0.0000000000
     15118      1416  TIP3      OH2             8.7912273386       12.1726892842       29.2358129994  TIP3      1320            0.0000000000
     15119      1416  TIP3      H1              9.2870606044       12.8284241158       28.6937273121  TIP3      1320            0.0000000000
     15120      1416  TIP3      H2              7.8784499899       12.2957721468       28.8690498787  TIP3      1320            0.0000000000
     15121      1417  TIP3      OH2            10.3342892904       13.5296158083       27.3974261214  TIP3      1321            0.0000000000
     15122      1417  TIP3      H1             10.9578417196       12.8401242407       27.0800319171  TIP3      1321            0.0000000000
     15123      1417  TIP3      H2             10.9976420985       14.2396702241       27.5844358466  TIP3      1321            0.0000000000
     15124      1418  TIP3      OH2            -4.2095915447       12.2621884140       27.1088856219  TIP3      1322            0.0000000000
     15125      1418  TIP3      H1             -5.1300460615       12.1277462440       26.7936272644  TIP3      1322            0.0000000000
     15126      1418  TIP3      H2             -3.8188137227       11.3726313853       26.9456200644  TIP3      1322            0.0000000000
     15127      1419  TIP3      OH2            -5.4502591858       12.2849333733       22.6604472502  TIP3      1323            0.0000000000
     15128      1419  TIP3      H1             -5.1194674279       12.8766847839       21.9507196539  TIP3      1323            0.0000000000
     15129      1419  TIP3      H2             -5.7813270982       12.9092618619       23.3188414677  TIP3      1323            0.0000000000
     15130      1420  TIP3      OH2            -0.2687638598       12.2263068565       26.9634825856  TIP3      1324            0.0000000000
     15131      1420  TIP3      H1              0.6782038378       12.2250444221       26.7636386853  TIP3      1324            0.0000000000
     15132      1420  TIP3      H2             -0.2917899633       12.7699649165       27.7630690959  TIP3      1324            0.0000000000
     15133      1421  TIP3      OH2             6.2657091230       12.4554725620       28.3162460862  TIP3      1325            0.0000000000
     15134      1421  TIP3      H1              5.9850494631       12.6267314649       27.4086814143  TIP3      1325            0.0000000000
     15135      1421  TIP3      H2              5.6202314941       11.7864091785       28.6120676204  TIP3      1325            0.0000000000
     15136      1422  TIP3      OH2             6.6463687822       12.5554771683       23.9711821377  TIP3      1326            0.0000000000
     15137      1422  TIP3      H1              6.4257103432       12.2754328377       23.0577970194  TIP3      1326            0.0000000000
     15138      1422  TIP3      H2              6.4999928964       11.7316387249       24.4773058271  TIP3      1326            0.0000000000
     15139      1423  TIP3      OH2            -3.8897784324       13.8607331268       21.1348968949  TIP3      1327            0.0000000000
     15140      1423  TIP3      H1             -3.4259005273       13.0091150027       21.0304410573  TIP3      1327            0.0000000000
     15141      1423  TIP3      H2             -3.3341044035       14.3633859779       21.7377724558  TIP3      1327            0.0000000000
     15142      1424  TIP3      OH2             1.2982453848       14.2093015003       24.1079479622  TIP3      1328            0.0000000000
     15143      1424  TIP3      H1              1.7858934024       13.8456439687       24.8718782033  TIP3      1328            0.0000000000
     15144      1424  TIP3      H2              1.6501333218       15.1188458111       24.0866301805  TIP3      1328            0.0000000000
     15145      1425  TIP3      OH2            -4.3739995917       13.1044521192       36.5431687528  TIP3      1329            0.0000000000
     15146      1425  TIP3      H1             -4.8373226687       12.2462725237       36.6307684051  TIP3      1329            0.0000000000
     15147      1425  TIP3      H2             -3.5117334647       12.9389467399       36.9957046475  TIP3      1329            0.0000000000
     15148      1426  TIP3      OH2            -2.2607724210       12.4626454500       38.3403034930  TIP3      1330            0.0000000000
     15149      1426  TIP3      H1             -1.4557158997       12.1889774419       37.8748315610  TIP3      1330            0.0000000000
     15150      1426  TIP3      H2             -2.6773103112       11.6024492314       38.5249588089  TIP3      1330            0.0000000000
     15151      1427  TIP3      OH2             6.1283792028       11.9518362565       38.3040955280  TIP3      1331            0.0000000000
     15152      1427  TIP3      H1              6.2089276858       11.6545196824       39.2255243575  TIP3      1331            0.0000000000
     15153      1427  TIP3      H2              7.0418192469       11.7779601315       37.9727406339  TIP3      1331            0.0000000000
     15154      1428  TIP3      OH2            23.8057514487       22.0925928688       26.4037376719  TIP3      1332            0.0000000000
     15155      1428  TIP3      H1             24.0469327132       22.8540611027       26.9601951196  TIP3      1332            0.0000000000
     15156      1428  TIP3      H2             22.9209038793       22.3715997350       26.1337773746  TIP3      1332            0.0000000000
     15157      1429  TIP3      OH2            22.4897140151       21.0318616129       30.3832230076  TIP3      1333            0.0000000000
     15158      1429  TIP3      H1             22.5256819527       20.5587707031       31.2363726130  TIP3      1333            0.0000000000
     15159      1429  TIP3      H2             22.3857881602       20.3431738185       29.7103864027  TIP3      1333            0.0000000000
     15160      1430  TIP3      OH2            14.9715975289       20.6445705081       31.8185334784  TIP3      1334            0.0000000000
     15161      1430  TIP3      H1             14.9567732756       19.7248434112       32.1203776823  TIP3      1334            0.0000000000
     15162      1430  TIP3      H2             15.9053406210       20.8629479411       31.9266184804  TIP3      1334            0.0000000000
     15163      1431  TIP3      OH2            16.0305592281       24.6114516038       30.7539369307  TIP3      1335            0.0000000000
     15164      1431  TIP3      H1             15.8047783375       23.6846966413       30.5323292819  TIP3      1335            0.0000000000
     15165      1431  TIP3      H2             16.8228394657       24.7228676108       30.1839971523  TIP3      1335            0.0000000000
     15166      1432  TIP3      OH2            12.7819753547       18.9049023196       25.4481955390  TIP3      1336            0.0000000000
     15167      1432  TIP3      H1             12.4858126138       19.8342416651       25.4037497641  TIP3      1336            0.0000000000
     15168      1432  TIP3      H2             12.3051370657       18.4792387998       24.7185755231  TIP3      1336            0.0000000000
     15169      1433  TIP3      OH2            13.6471267552       21.1148868511       28.1822756460  TIP3      1337            0.0000000000
     15170      1433  TIP3      H1             14.0564805639       20.2375477189       28.3625205326  TIP3      1337            0.0000000000
     15171      1433  TIP3      H2             14.4167088453       21.7051778638       28.3187788446  TIP3      1337            0.0000000000
     15172      1434  TIP3      OH2            20.8302395226       23.6007353487       31.4331147617  TIP3      1338            0.0000000000
     15173      1434  TIP3      H1             21.1445076177       23.2929879892       30.5728900829  TIP3      1338            0.0000000000
     15174      1434  TIP3      H2             21.6581689017       23.5236432687       31.9639106495  TIP3      1338            0.0000000000
     15175      1435  TIP3      OH2            23.9056437261       17.4317922081       30.8249455617  TIP3      1339            0.0000000000
     15176      1435  TIP3      H1             24.8729298933       17.6152868464       30.8405320425  TIP3      1339            0.0000000000
     15177      1435  TIP3      H2             23.6399811566       17.9922724225       30.0711633506  TIP3      1339            0.0000000000
     15178      1436  TIP3      OH2            17.3029134115       15.8580897344       27.9482874832  TIP3      1340            0.0000000000
     15179      1436  TIP3      H1             17.3467031493       16.5784343775       27.2899769825  TIP3      1340            0.0000000000
     15180      1436  TIP3      H2             16.9728280547       15.1534070758       27.3636796474  TIP3      1340            0.0000000000
     15181      1437  TIP3      OH2            24.3684894391       16.1733339217       27.2035084579  TIP3      1341            0.0000000000
     15182      1437  TIP3      H1             25.0393868255       15.5147867119       27.4839739145  TIP3      1341            0.0000000000
     15183      1437  TIP3      H2             24.9752808142       16.9175965790       26.9563750402  TIP3      1341            0.0000000000
     15184      1438  TIP3      OH2            14.6940722524       18.7467335449       28.7216357688  TIP3      1342            0.0000000000
     15185      1438  TIP3      H1             15.1608178110       18.0898899241       29.2801377436  TIP3      1342            0.0000000000
     15186      1438  TIP3      H2             14.3651501949       18.2247954874       27.9715806284  TIP3      1342            0.0000000000
     15187      1439  TIP3      OH2            18.2128721378       19.6161283900       28.1715515356  TIP3      1343            0.0000000000
     15188      1439  TIP3      H1             19.0749540763       19.3173214601       28.5438205019  TIP3      1343            0.0000000000
     15189      1439  TIP3      H2             17.9840164684       18.8662659781       27.6004282679  TIP3      1343            0.0000000000
     15190      1440  TIP3      OH2            16.4455184940       15.0178290625       32.2539124123  TIP3      1344            0.0000000000
     15191      1440  TIP3      H1             16.1688121863       15.5185454377       31.4621425224  TIP3      1344            0.0000000000
     15192      1440  TIP3      H2             15.6460637669       15.1435959690       32.8139163806  TIP3      1344            0.0000000000
     15193      1441  TIP3      OH2            23.3377651073       25.2299542442       26.1829100402  TIP3      1345            0.0000000000
     15194      1441  TIP3      H1             23.3280476539       24.8843712422       25.2635290296  TIP3      1345            0.0000000000
     15195      1441  TIP3      H2             22.8816247741       26.0992333022       26.0959665320  TIP3      1345            0.0000000000
     15196      1442  TIP3      OH2            18.5009906713       22.7747983015       32.2957247902  TIP3      1346            0.0000000000
     15197      1442  TIP3      H1             18.0063633262       23.5799641087       32.5524526502  TIP3      1346            0.0000000000
     15198      1442  TIP3      H2             19.3244035911       23.1797102250       31.9217901002  TIP3      1346            0.0000000000
     15199      1443  TIP3      OH2            15.9807252972       16.8296611800       30.1158809977  TIP3      1347            0.0000000000
     15200      1443  TIP3      H1             16.5572079656       17.4517244385       30.6413230752  TIP3      1347            0.0000000000
     15201      1443  TIP3      H2             16.5769935844       16.5936546644       29.3703231006  TIP3      1347            0.0000000000
     15202      1444  TIP3      OH2            17.0699937648       25.0179232624       33.1912551771  TIP3      1348            0.0000000000
     15203      1444  TIP3      H1             16.6196990684       25.0727923764       32.3186997152  TIP3      1348            0.0000000000
     15204      1444  TIP3      H2             16.2453708612       24.9453557549       33.7352676099  TIP3      1348            0.0000000000
     15205      1445  TIP3      OH2            13.2505285435       24.7714014477       24.3386756167  TIP3      1349            0.0000000000
     15206      1445  TIP3      H1             13.3088194886       24.1073868919       23.6236292437  TIP3      1349            0.0000000000
     15207      1445  TIP3      H2             13.3612962667       25.5588308728       23.7669590674  TIP3      1349            0.0000000000
     15208      1446  TIP3      OH2            20.1518366313       12.0949511581       29.6745677149  TIP3      1350            0.0000000000
     15209      1446  TIP3      H1             19.9532089241       11.1399594937       29.7534927889  TIP3      1350            0.0000000000
     15210      1446  TIP3      H2             19.4022500525       12.4630956446       30.1954879613  TIP3      1350            0.0000000000
     15211      1447  TIP3      OH2            22.1850809000       20.6622338388       23.7975911326  TIP3      1351            0.0000000000
     15212      1447  TIP3      H1             21.6820327657       21.5113764303       23.8155054320  TIP3      1351            0.0000000000
     15213      1447  TIP3      H2             23.0150389448       20.9455231033       23.3738563370  TIP3      1351            0.0000000000
     15214      1448  TIP3      OH2            22.6892598184       18.3874966546       21.7772229412  TIP3      1352            0.0000000000
     15215      1448  TIP3      H1             22.9410453062       19.3245231093       21.8228727905  TIP3      1352            0.0000000000
     15216      1448  TIP3      H2             22.5076157029       18.2828002233       20.8316542573  TIP3      1352            0.0000000000
     15217      1449  TIP3      OH2           -25.8348313764       20.7606942161       25.5111563439  TIP3      1353            0.0000000000
     15218      1449  TIP3      H1            -26.5939739088       21.2302764158       25.9280639568  TIP3      1353            0.0000000000
     15219      1449  TIP3      H2            -25.2508469324       21.5268787730       25.3384416122  TIP3      1353            0.0000000000
     15220      1450  TIP3      OH2            25.3310619646       18.8719064213       34.4282591062  TIP3      1354            0.0000000000
     15221      1450  TIP3      H1             24.9287695339       18.8564161427       35.3061053477  TIP3      1354            0.0000000000
     15222      1450  TIP3      H2             24.7267941211       19.4415653047       33.9146983070  TIP3      1354            0.0000000000
     15223      1451  TIP3      OH2            17.8090721266       21.7738583026       26.7163981681  TIP3      1355            0.0000000000
     15224      1451  TIP3      H1             17.3846895774       21.3242218681       25.9880357604  TIP3      1355            0.0000000000
     15225      1451  TIP3      H2             18.1759910622       21.0188528498       27.2446664254  TIP3      1355            0.0000000000
     15226      1452  TIP3      OH2            18.5411771195       24.3336824994       29.5275630211  TIP3      1356            0.0000000000
     15227      1452  TIP3      H1             18.6479444250       24.9683782864       28.7920154784  TIP3      1356            0.0000000000
     15228      1452  TIP3      H2             19.2331729681       24.5924591071       30.1619277715  TIP3      1356            0.0000000000
     15229      1453  TIP3      OH2            17.6788302121       20.7926815211       30.6930740414  TIP3      1357            0.0000000000
     15230      1453  TIP3      H1             18.1602497704       20.6999702437       29.8446787476  TIP3      1357            0.0000000000
     15231      1453  TIP3      H2             18.1481944324       21.5404724488       31.1308706006  TIP3      1357            0.0000000000
     15232      1454  TIP3      OH2            18.4519713756       24.2553408799       35.5265918563  TIP3      1358            0.0000000000
     15233      1454  TIP3      H1             17.7898671163       24.7417169642       36.0443116447  TIP3      1358            0.0000000000
     15234      1454  TIP3      H2             18.0480682110       24.2543128590       34.6394083083  TIP3      1358            0.0000000000
     15235      1455  TIP3      OH2            25.0920999392       20.6127822236       22.8688815322  TIP3      1359            0.0000000000
     15236      1455  TIP3      H1             25.5846767065       20.9388316551       23.6528415347  TIP3      1359            0.0000000000
     15237      1455  TIP3      H2             25.4579762607       21.1743759042       22.1674120501  TIP3      1359            0.0000000000
     15238      1456  TIP3      OH2            15.6378645818       21.3963876742       34.6910880834  TIP3      1360            0.0000000000
     15239      1456  TIP3      H1             15.4379053272       22.0076672440       35.4347633162  TIP3      1360            0.0000000000
     15240      1456  TIP3      H2             14.7191050336       21.1559788439       34.4348971117  TIP3      1360            0.0000000000
     15241      1457  TIP3      OH2            12.7707931934       23.4907840548       33.5393742227  TIP3      1361            0.0000000000
     15242      1457  TIP3      H1             12.5185876963       23.4136704066       32.6041378120  TIP3      1361            0.0000000000
     15243      1457  TIP3      H2             13.0626121584       22.5745795391       33.7357447278  TIP3      1361            0.0000000000
     15244      1458  TIP3      OH2            14.7614025087       24.9440329962       34.5570705287  TIP3      1362            0.0000000000
     15245      1458  TIP3      H1             14.9652645369       24.3853044967       35.3439219802  TIP3      1362            0.0000000000
     15246      1458  TIP3      H2             14.0342354449       24.4269062398       34.1433057811  TIP3      1362            0.0000000000
     15247      1459  TIP3      OH2            17.8747309338       13.1631763155       30.8033871134  TIP3      1363            0.0000000000
     15248      1459  TIP3      H1             17.0173233381       13.1126267675       30.3273260837  TIP3      1363            0.0000000000
     15249      1459  TIP3      H2             17.7054741170       13.9576314817       31.3357367509  TIP3      1363            0.0000000000
     15250      1460  TIP3      OH2            22.2349465905       12.6837239834       34.1057639906  TIP3      1364            0.0000000000
     15251      1460  TIP3      H1             22.6228351924       12.4318975790       34.9725216701  TIP3      1364            0.0000000000
     15252      1460  TIP3      H2             21.2801302134       12.5930529403       34.3148032087  TIP3      1364            0.0000000000
     15253      1461  TIP3      OH2            25.8102426348       15.9293669388       34.4641401271  TIP3      1365            0.0000000000
     15254      1461  TIP3      H1             25.5981695055       16.0916372598       35.4135935085  TIP3      1365            0.0000000000
     15255      1461  TIP3      H2             25.7834802657       16.8499863946       34.1419665680  TIP3      1365            0.0000000000
     15256      1462  TIP3      OH2            21.5392449205       15.5349889327       21.9483258130  TIP3      1366            0.0000000000
     15257      1462  TIP3      H1             21.0161550070       15.3356063078       22.7475181979  TIP3      1366            0.0000000000
     15258      1462  TIP3      H2             21.1710665728       14.9246191778       21.2912171188  TIP3      1366            0.0000000000
     15259      1463  TIP3      OH2            17.5727359558       18.2922328006       31.5953549279  TIP3      1367            0.0000000000
     15260      1463  TIP3      H1             17.1256151100       18.3380109800       32.4688782118  TIP3      1367            0.0000000000
     15261      1463  TIP3      H2             17.5205371240       19.2309184355       31.3104509262  TIP3      1367            0.0000000000
     15262      1464  TIP3      OH2            17.4682598513       17.6841821100       25.9991320633  TIP3      1368            0.0000000000
     15263      1464  TIP3      H1             16.5093731213       17.5000945521       25.8561600660  TIP3      1368            0.0000000000
     15264      1464  TIP3      H2             17.9041268114       17.4602259811       25.1534130211  TIP3      1368            0.0000000000
     15265      1465  TIP3      OH2            23.1876769437       19.2887655020       25.8770823318  TIP3      1369            0.0000000000
     15266      1465  TIP3      H1             22.7112164349       20.0106902549       25.4174816057  TIP3      1369            0.0000000000
     15267      1465  TIP3      H2             24.1026580019       19.6147460472       25.8748138958  TIP3      1369            0.0000000000
     15268      1466  TIP3      OH2            22.2678551577       18.8983899554       36.3985065602  TIP3      1370            0.0000000000
     15269      1466  TIP3      H1             21.7040356630       18.1564972896       36.7134645517  TIP3      1370            0.0000000000
     15270      1466  TIP3      H2             22.9330959816       18.8854660877       37.1281979570  TIP3      1370            0.0000000000
     15271      1467  TIP3      OH2            23.2742766103       18.6221842404       28.5013415359  TIP3      1371            0.0000000000
     15272      1467  TIP3      H1             23.8448796881       19.1028896846       27.8715972844  TIP3      1371            0.0000000000
     15273      1467  TIP3      H2             23.5443592054       17.6997250258       28.3078294223  TIP3      1371            0.0000000000
     15274      1468  TIP3      OH2            15.1186337565       17.9782311522       33.0832558331  TIP3      1372            0.0000000000
     15275      1468  TIP3      H1             15.6207868795       18.3556588623       33.8316166312  TIP3      1372            0.0000000000
     15276      1468  TIP3      H2             14.7925210296       17.1319273346       33.4419113042  TIP3      1372            0.0000000000
     15277      1469  TIP3      OH2            18.5276973669       16.4916887626       20.6018846799  TIP3      1373            0.0000000000
     15278      1469  TIP3      H1             18.0374627962       15.8478012724       21.1443552296  TIP3      1373            0.0000000000
     15279      1469  TIP3      H2             17.7984750400       17.0727737463       20.3144687447  TIP3      1373            0.0000000000
     15280      1470  TIP3      OH2            12.2271387871       15.3797525811       27.7983932179  TIP3      1374            0.0000000000
     15281      1470  TIP3      H1             12.9651548351       15.2911684395       28.4404133082  TIP3      1374            0.0000000000
     15282      1470  TIP3      H2             12.5984747397       15.2447658985       26.9003803700  TIP3      1374            0.0000000000
     15283      1471  TIP3      OH2            13.4420753920       16.6381362104       23.3118729272  TIP3      1375            0.0000000000
     15284      1471  TIP3      H1             13.6185892432       15.9100262929       22.6868451153  TIP3      1375            0.0000000000
     15285      1471  TIP3      H2             12.4893696429       16.6782034522       23.1991862717  TIP3      1375            0.0000000000
     15286      1472  TIP3      OH2            23.1225564386       19.3326189912       32.7632015846  TIP3      1376            0.0000000000
     15287      1472  TIP3      H1             23.7820153122       18.7337390585       32.3573087048  TIP3      1376            0.0000000000
     15288      1472  TIP3      H2             22.5015837963       18.6936506403       33.1738578064  TIP3      1376            0.0000000000
     15289      1473  TIP3      OH2            20.1359064627       15.9305271815       27.9545471851  TIP3      1377            0.0000000000
     15290      1473  TIP3      H1             19.2049731853       15.9724705347       28.2569757164  TIP3      1377            0.0000000000
     15291      1473  TIP3      H2             20.5344460889       15.3216364946       28.5980892415  TIP3      1377            0.0000000000
     15292      1474  TIP3      OH2            14.7690352243       17.0735455042       26.1490671905  TIP3      1378            0.0000000000
     15293      1474  TIP3      H1             14.0148150617       17.5331190263       25.6982934717  TIP3      1378            0.0000000000
     15294      1474  TIP3      H2             14.5658082324       16.1501952568       25.9346961247  TIP3      1378            0.0000000000
     15295      1475  TIP3      OH2            18.7429210831       17.5727515687       23.5757623204  TIP3      1379            0.0000000000
     15296      1475  TIP3      H1             19.5181980426       17.4288662615       24.1396467905  TIP3      1379            0.0000000000
     15297      1475  TIP3      H2             18.6899528951       16.6849180653       23.1395193232  TIP3      1379            0.0000000000
     15298      1476  TIP3      OH2            24.7296647585       13.8214134355       31.1889629354  TIP3      1380            0.0000000000
     15299      1476  TIP3      H1             24.3009639327       14.6766516441       31.3436097080  TIP3      1380            0.0000000000
     15300      1476  TIP3      H2             24.9090423797       13.8597216781       30.2262624990  TIP3      1380            0.0000000000
     15301      1477  TIP3      OH2            15.2109034324       23.3007155397       36.5500206742  TIP3      1381            0.0000000000
     15302      1477  TIP3      H1             16.0030984942       23.2271468858       37.1395098632  TIP3      1381            0.0000000000
     15303      1477  TIP3      H2             14.5108216293       23.3106729528       37.2471969876  TIP3      1381            0.0000000000
     15304      1478  TIP3      OH2            20.6604043293       18.7996804877       28.9979103778  TIP3      1382            0.0000000000
     15305      1478  TIP3      H1             21.5192676614       18.6547288558       28.5465126944  TIP3      1382            0.0000000000
     15306      1478  TIP3      H2             20.9088278071       18.6626575837       29.9174744470  TIP3      1382            0.0000000000
     15307      1479  TIP3      OH2            16.0817435513       14.2061214543       25.8199548744  TIP3      1383            0.0000000000
     15308      1479  TIP3      H1             15.3787401483       13.6532072164       26.2159564905  TIP3      1383            0.0000000000
     15309      1479  TIP3      H2             16.7749813003       13.5474597043       25.6983626934  TIP3      1383            0.0000000000
     15310      1480  TIP3      OH2            19.5605164143       16.5172289964       31.6049347001  TIP3      1384            0.0000000000
     15311      1480  TIP3      H1             18.8299201881       17.1560081961       31.4420894956  TIP3      1384            0.0000000000
     15312      1480  TIP3      H2             20.1885601396       17.0538539335       32.1170998220  TIP3      1384            0.0000000000
     15313      1481  TIP3      OH2            20.7508468137       22.9991485722       23.9174112905  TIP3      1385            0.0000000000
     15314      1481  TIP3      H1             20.0040848305       23.0919957344       23.3110841560  TIP3      1385            0.0000000000
     15315      1481  TIP3      H2             20.3916054671       23.4330795156       24.7320200230  TIP3      1385            0.0000000000
     15316      1482  TIP3      OH2            24.3046395005       16.0988550565       22.1685642071  TIP3      1386            0.0000000000
     15317      1482  TIP3      H1             23.4139744853       15.7116712388       21.9998190127  TIP3      1386            0.0000000000
     15318      1482  TIP3      H2             24.1154801291       17.0307192835       21.9383984472  TIP3      1386            0.0000000000
     15319      1483  TIP3      OH2            22.4323029426       22.9569322099       34.9733010223  TIP3      1387            0.0000000000
     15320      1483  TIP3      H1             22.2852612356       22.6321483470       35.8709157307  TIP3      1387            0.0000000000
     15321      1483  TIP3      H2             22.0986587089       23.8643764790       35.0010260868  TIP3      1387            0.0000000000
     15322      1484  TIP3      OH2            24.7238755188       18.2383143153       23.9255241898  TIP3      1388            0.0000000000
     15323      1484  TIP3      H1             25.5985556231       17.8097660111       23.8411445494  TIP3      1388            0.0000000000
     15324      1484  TIP3      H2             24.9184692040       19.1198572508       23.5184994012  TIP3      1388            0.0000000000
     15325      1485  TIP3      OH2            15.9883026427       22.3714783352       29.1099063801  TIP3      1389            0.0000000000
     15326      1485  TIP3      H1             16.6855051178       22.7515658536       28.5440606579  TIP3      1389            0.0000000000
     15327      1485  TIP3      H2             16.4523451857       21.5898108275       29.4901712033  TIP3      1389            0.0000000000
     15328      1486  TIP3      OH2            22.9310191563       24.4882687542       23.4262023479  TIP3      1390            0.0000000000
     15329      1486  TIP3      H1             22.5360720943       25.2591544273       22.9929996019  TIP3      1390            0.0000000000
     15330      1486  TIP3      H2             22.1545311213       23.8901053093       23.5074590700  TIP3      1390            0.0000000000
     15331      1487  TIP3      OH2            13.0118221323       21.0280996298       34.4677559343  TIP3      1391            0.0000000000
     15332      1487  TIP3      H1             13.1120425048       20.7841267301       35.4228650568  TIP3      1391            0.0000000000
     15333      1487  TIP3      H2             12.2922965151       20.4464144741       34.1721364912  TIP3      1391            0.0000000000
     15334      1488  TIP3      OH2            19.7749102895       20.1684150563       36.2238229105  TIP3      1392            0.0000000000
     15335      1488  TIP3      H1             19.5107556431       20.4408294242       35.3228614658  TIP3      1392            0.0000000000
     15336      1488  TIP3      H2             20.6286862344       19.7133024809       36.0604821343  TIP3      1392            0.0000000000
     15337      1489  TIP3      OH2            24.3261694971       25.5083177839       35.7807798310  TIP3      1393            0.0000000000
     15338      1489  TIP3      H1             23.5380150114       25.9445965709       35.4001385711  TIP3      1393            0.0000000000
     15339      1489  TIP3      H2             24.3699576432       25.9113341313       36.6633267853  TIP3      1393            0.0000000000
     15340      1490  TIP3      OH2            25.1916656972       21.5263145728       31.3603903029  TIP3      1394            0.0000000000
     15341      1490  TIP3      H1             24.5414357901       21.4893070315       30.6378964904  TIP3      1394            0.0000000000
     15342      1490  TIP3      H2             26.0326978495       21.7478737454       30.9066863442  TIP3      1394            0.0000000000
     15343      1491  TIP3      OH2            17.4329562445       25.6264173680       27.1686950143  TIP3      1395            0.0000000000
     15344      1491  TIP3      H1             17.9274396285       26.4282211566       26.8998864023  TIP3      1395            0.0000000000
     15345      1491  TIP3      H2             16.7301257862       25.5982039312       26.5218303801  TIP3      1395            0.0000000000
     15346      1492  TIP3      OH2            19.4558166810       23.9435852195       26.1108739355  TIP3      1396            0.0000000000
     15347      1492  TIP3      H1             19.0635603654       24.6001595308       26.7113586366  TIP3      1396            0.0000000000
     15348      1492  TIP3      H2             19.1743945225       23.1062164623       26.5325825063  TIP3      1396            0.0000000000
     15349      1493  TIP3      OH2            23.3530368967       23.2114968730       32.3724320772  TIP3      1397            0.0000000000
     15350      1493  TIP3      H1             23.2604036060       23.0095481858       33.3261815520  TIP3      1397            0.0000000000
     15351      1493  TIP3      H2             23.9891473422       22.5295640274       32.0585257948  TIP3      1397            0.0000000000
     15352      1494  TIP3      OH2            24.6567980243       24.3349634385       21.3583961874  TIP3      1398            0.0000000000
     15353      1494  TIP3      H1             25.4585626743       24.8138949440       21.6193315733  TIP3      1398            0.0000000000
     15354      1494  TIP3      H2             24.1279557838       24.4948755593       22.1644716432  TIP3      1398            0.0000000000
     15355      1495  TIP3      OH2            14.0302145447       15.4604773791       33.6627916143  TIP3      1399            0.0000000000
     15356      1495  TIP3      H1             13.2235262423       15.7843382660       33.2368185632  TIP3      1399            0.0000000000
     15357      1495  TIP3      H2             13.6884254953       14.8804532249       34.3586046247  TIP3      1399            0.0000000000
     15358      1496  TIP3      OH2            20.2817691536       25.6966045435       21.0669848200  TIP3      1400            0.0000000000
     15359      1496  TIP3      H1             20.7403701875       24.8541994723       20.8730304678  TIP3      1400            0.0000000000
     15360      1496  TIP3      H2             19.8001859984       25.4652132002       21.8809085605  TIP3      1400            0.0000000000
     15361      1497  TIP3      OH2            18.8097684436       25.7941700013       23.3057080179  TIP3      1401            0.0000000000
     15362      1497  TIP3      H1             18.7055131511       25.9472008406       24.2588671072  TIP3      1401            0.0000000000
     15363      1497  TIP3      H2             18.5953626091       26.6755792567       22.9406025752  TIP3      1401            0.0000000000
     15364      1498  TIP3      OH2            22.4748049942       15.4077140122       33.6010774449  TIP3      1402            0.0000000000
     15365      1498  TIP3      H1             23.4051509574       15.5031230758       33.8745126251  TIP3      1402            0.0000000000
     15366      1498  TIP3      H2             22.3545063224       14.4407449682       33.7214707104  TIP3      1402            0.0000000000
     15367      1499  TIP3      OH2            23.8573361867       14.9896948940       24.8320557707  TIP3      1403            0.0000000000
     15368      1499  TIP3      H1             24.1851392912       15.5733857355       24.1218793295  TIP3      1403            0.0000000000
     15369      1499  TIP3      H2             24.0763287204       15.4988355699       25.6453208316  TIP3      1403            0.0000000000
     15370      1500  TIP3      OH2            21.3540736070       17.0261350081       25.8800221730  TIP3      1404            0.0000000000
     15371      1500  TIP3      H1             22.0689620169       17.4076956181       26.4205497591  TIP3      1404            0.0000000000
     15372      1500  TIP3      H2             20.9058296767       16.5043619175       26.6034514836  TIP3      1404            0.0000000000
     15373      1501  TIP3      OH2            21.3653019988       17.8465302495       34.1490429789  TIP3      1405            0.0000000000
     15374      1501  TIP3      H1             21.8915058534       18.2064390827       34.9029519941  TIP3      1405            0.0000000000
     15375      1501  TIP3      H2             21.7370486611       16.9471798263       34.0080450918  TIP3      1405            0.0000000000
     15376      1502  TIP3      OH2            21.8520269181       13.4517754227       26.2523939042  TIP3      1406            0.0000000000
     15377      1502  TIP3      H1             22.0159288079       13.5104683310       27.2195910268  TIP3      1406            0.0000000000
     15378      1502  TIP3      H2             22.6774007903       13.8297880376       25.8899082042  TIP3      1406            0.0000000000
     15379      1503  TIP3      OH2            17.8779098810       15.0778957547       23.0085467462  TIP3      1407            0.0000000000
     15380      1503  TIP3      H1             17.1863885255       15.0322169494       23.6839815826  TIP3      1407            0.0000000000
     15381      1503  TIP3      H2             18.0845952204       14.1447009375       22.8658863601  TIP3      1407            0.0000000000
     15382      1504  TIP3      OH2            16.0796813985       25.1621155849       21.2986198289  TIP3      1408            0.0000000000
     15383      1504  TIP3      H1             16.6864693271       25.7735263433       21.7273020173  TIP3      1408            0.0000000000
     15384      1504  TIP3      H2             16.6683022500       24.4140641021       21.1347494927  TIP3      1408            0.0000000000
     15385      1505  TIP3      OH2            15.3339736487       12.8983161138       29.8990607644  TIP3      1409            0.0000000000
     15386      1505  TIP3      H1             15.1081897333       12.6445163406       28.9754639020  TIP3      1409            0.0000000000
     15387      1505  TIP3      H2             15.0377364831       12.0665022187       30.3364322165  TIP3      1409            0.0000000000
     15388      1506  TIP3      OH2            13.5357663808       23.3679964825       38.6613413286  TIP3      1410            0.0000000000
     15389      1506  TIP3      H1             13.5545706245       22.5319545523       39.1585911994  TIP3      1410            0.0000000000
     15390      1506  TIP3      H2             12.6927965961       23.2511783572       38.1781366770  TIP3      1410            0.0000000000
     15391      1507  TIP3      OH2            20.0144816029       22.8694129104       37.2904462459  TIP3      1411            0.0000000000
     15392      1507  TIP3      H1             19.7760450472       23.4364515276       36.5238739049  TIP3      1411            0.0000000000
     15393      1507  TIP3      H2             20.1432740579       22.0049123340       36.8444677614  TIP3      1411            0.0000000000
     15394      1508  TIP3      OH2            21.8394078457       23.6450613330       20.5553343532  TIP3      1412            0.0000000000
     15395      1508  TIP3      H1             22.4006165774       24.2768055612       20.0798575266  TIP3      1412            0.0000000000
     15396      1508  TIP3      H2             22.5135449607       23.0735079967       20.9484191576  TIP3      1412            0.0000000000
     15397      1509  TIP3      OH2            25.1471758269       22.3634637158       35.4819228357  TIP3      1413            0.0000000000
     15398      1509  TIP3      H1             25.5590594243       22.9770544489       34.8493686835  TIP3      1413            0.0000000000
     15399      1509  TIP3      H2             24.2197778189       22.6536163686       35.4576601152  TIP3      1413            0.0000000000
     15400      1510  TIP3      OH2            13.8129331775       20.7343438629       36.9248387917  TIP3      1414            0.0000000000
     15401      1510  TIP3      H1             14.7013891337       20.3628718187       36.9514812148  TIP3      1414            0.0000000000
     15402      1510  TIP3      H2             13.4427292269       20.3438733647       37.7348698979  TIP3      1414            0.0000000000
     15403      1511  TIP3      OH2            17.2546090614       19.5019724439       33.9834405562  TIP3      1415            0.0000000000
     15404      1511  TIP3      H1             16.6925288317       20.3075482249       34.1022874917  TIP3      1415            0.0000000000
     15405      1511  TIP3      H2             18.1417347320       19.9005299475       33.8364951605  TIP3      1415            0.0000000000
     15406      1512  TIP3      OH2            19.8230719575       19.8686276504       20.8905368801  TIP3      1416            0.0000000000
     15407      1512  TIP3      H1             19.1434774942       19.7295778343       20.2099868404  TIP3      1416            0.0000000000
     15408      1512  TIP3      H2             20.0379863036       18.9686927487       21.1762672945  TIP3      1416            0.0000000000
     15409      1513  TIP3      OH2            23.2534230182       21.9126690326       38.2290463135  TIP3      1417            0.0000000000
     15410      1513  TIP3      H1             23.9478407414       22.0785340697       38.9100309956  TIP3      1417            0.0000000000
     15411      1513  TIP3      H2             23.4128521050       20.9660565793       38.1005506421  TIP3      1417            0.0000000000
     15412      1514  TIP3      OH2            18.2718151702       17.2883713290       35.6412686351  TIP3      1418            0.0000000000
     15413      1514  TIP3      H1             18.5652424211       16.5798099048       35.0380155368  TIP3      1418            0.0000000000
     15414      1514  TIP3      H2             18.3300069614       18.0752926979       35.0783007188  TIP3      1418            0.0000000000
     15415      1515  TIP3      OH2            18.7511345709       14.8669896402       33.6814677638  TIP3      1419            0.0000000000
     15416      1515  TIP3      H1             19.2257188113       15.3110754356       32.9375624511  TIP3      1419            0.0000000000
     15417      1515  TIP3      H2             17.8527444543       14.7676401907       33.2901748054  TIP3      1419            0.0000000000
     15418      1516  TIP3      OH2            19.6996468413       20.7410105100       33.5318749548  TIP3      1420            0.0000000000
     15419      1516  TIP3      H1             20.5331374391       20.7871504086       33.0347480314  TIP3      1420            0.0000000000
     15420      1516  TIP3      H2             19.1838686821       21.5038283981       33.1620471646  TIP3      1420            0.0000000000
     15421      1517  TIP3      OH2            23.6389004437       18.2647985981       38.5690725255  TIP3      1421            0.0000000000
     15422      1517  TIP3      H1             23.3004503925       17.4044377481       38.2905053807  TIP3      1421            0.0000000000
     15423      1517  TIP3      H2             24.3595735302       18.0108699350       39.1727387047  TIP3      1421            0.0000000000
     15424      1518  TIP3      OH2            16.6344113923       18.2210069131       38.3132982887  TIP3      1422            0.0000000000
     15425      1518  TIP3      H1             16.1718434029       17.3646840352       38.3497250076  TIP3      1422            0.0000000000
     15426      1518  TIP3      H2             16.9766932492       18.2074419530       37.3994196260  TIP3      1422            0.0000000000
     15427      1519  TIP3      OH2            19.4691836675       12.1570773388       34.1027090498  TIP3      1423            0.0000000000
     15428      1519  TIP3      H1             19.1204498969       13.0449586004       33.8642996892  TIP3      1423            0.0000000000
     15429      1519  TIP3      H2             19.2782899269       11.5865516811       33.3291468560  TIP3      1423            0.0000000000
     15430      1520  TIP3      OH2            20.7780000690       16.4665160085       37.5098544602  TIP3      1424            0.0000000000
     15431      1520  TIP3      H1             20.2411389105       16.4990945966       38.3189482900  TIP3      1424            0.0000000000
     15432      1520  TIP3      H2             20.1383272962       16.1334500129       36.8547070938  TIP3      1424            0.0000000000
     15433      1521  TIP3      OH2            23.4031887688       15.7648262514       36.7118831153  TIP3      1425            0.0000000000
     15434      1521  TIP3      H1             22.5117033660       15.7218818180       37.1140982205  TIP3      1425            0.0000000000
     15435      1521  TIP3      H2             23.9764586474       15.2669233147       37.3314307271  TIP3      1425            0.0000000000
     15436      1522  TIP3      OH2            25.1070305728       14.6593217549       38.6948866869  TIP3      1426            0.0000000000
     15437      1522  TIP3      H1             25.0077842491       13.6838052239       38.7124662703  TIP3      1426            0.0000000000
     15438      1522  TIP3      H2             25.0585912589       14.9087521136       39.6366592682  TIP3      1426            0.0000000000
     15439      1523  TIP3      OH2            14.7303677519       15.7045283314       37.9695739333  TIP3      1427            0.0000000000
     15440      1523  TIP3      H1             14.5844443592       14.9016186993       37.4165248325  TIP3      1427            0.0000000000
     15441      1523  TIP3      H2             14.7472293801       15.2873490328       38.8475313703  TIP3      1427            0.0000000000
     15442      1524  TIP3      OH2            19.1680411451       11.5025214100       36.8932463873  TIP3      1428            0.0000000000
     15443      1524  TIP3      H1             19.7781017725       10.7494259929       36.7857460474  TIP3      1428            0.0000000000
     15444      1524  TIP3      H2             19.1902828495       11.8627797368       35.9833524011  TIP3      1428            0.0000000000
     15445      1525  TIP3      OH2            19.8482420479       13.2691176269       39.3609184657  TIP3      1429            0.0000000000
     15446      1525  TIP3      H1             19.6756780080       12.5421570108       38.7440993188  TIP3      1429            0.0000000000
     15447      1525  TIP3      H2             19.3416303971       13.9413920503       38.8714813258  TIP3      1429            0.0000000000
     15448      1526  TIP3      OH2            13.4049138492       23.8487113708       21.5475647859  TIP3      1430            0.0000000000
     15449      1526  TIP3      H1             14.1428864040       24.4298243749       21.2933867069  TIP3      1430            0.0000000000
     15450      1526  TIP3      H2             13.2728239920       23.2833443864       20.7661848598  TIP3      1430            0.0000000000
     15451      1527  TIP3      OH2            12.9443864267       21.9661576078       30.6108628371  TIP3      1431            0.0000000000
     15452      1527  TIP3      H1             12.9654200789       21.4541308795       29.7654751542  TIP3      1431            0.0000000000
     15453      1527  TIP3      H2             13.8220439598       21.6997864871       30.9853973782  TIP3      1431            0.0000000000
     15454      1528  TIP3      OH2            12.3346414440       16.2973233683       36.4273210266  TIP3      1432            0.0000000000
     15455      1528  TIP3      H1             13.2788706215       16.3768535038       36.6538739023  TIP3      1432            0.0000000000
     15456      1528  TIP3      H2             12.0702136709       15.5517101367       37.0178944248  TIP3      1432            0.0000000000
     15457      1529  TIP3      OH2            13.9137718627       15.1982041819       30.0175556989  TIP3      1433            0.0000000000
     15458      1529  TIP3      H1             14.4018853142       14.3463842298       30.0626676423  TIP3      1433            0.0000000000
     15459      1529  TIP3      H2             14.6578273120       15.8395240047       29.9513650689  TIP3      1433            0.0000000000
     15460      1530  TIP3      OH2            12.4324377723       18.1830855764       30.6661874302  TIP3      1434            0.0000000000
     15461      1530  TIP3      H1             13.0522003421       17.8185565978       30.0182846619  TIP3      1434            0.0000000000
     15462      1530  TIP3      H2             12.9366830554       18.9268798555       31.0148819208  TIP3      1434            0.0000000000
     15463      1531  TIP3      OH2            12.2793216702       14.6758611555       25.0404816707  TIP3      1435            0.0000000000
     15464      1531  TIP3      H1             11.3121065034       14.5819459487       25.0037029732  TIP3      1435            0.0000000000
     15465      1531  TIP3      H2             12.5022847298       14.3690860941       24.1330413811  TIP3      1435            0.0000000000
     15466      1532  TIP3      OH2            12.3584717987       13.0159383201       33.1594300304  TIP3      1436            0.0000000000
     15467      1532  TIP3      H1             11.6920160270       12.4759259777       33.6119783156  TIP3      1436            0.0000000000
     15468      1532  TIP3      H2             11.8249869613       13.5888875929       32.5873165805  TIP3      1436            0.0000000000
     15469      1533  TIP3      OH2            22.1577256449       13.6478747542       28.9472798083  TIP3      1437            0.0000000000
     15470      1533  TIP3      H1             21.4523349368       13.0336363330       29.2719120073  TIP3      1437            0.0000000000
     15471      1533  TIP3      H2             22.9545711712       13.0920277663       28.8514594267  TIP3      1437            0.0000000000
     15472      1534  TIP3      OH2            14.6563515603       12.3067260248       27.2783161125  TIP3      1438            0.0000000000
     15473      1534  TIP3      H1             13.6987584069       12.2529565042       27.0650617978  TIP3      1438            0.0000000000
     15474      1534  TIP3      H2             14.9734714273       11.4086491602       27.0345376672  TIP3      1438            0.0000000000
     15475      1535  TIP3      OH2            18.7939101090       12.6505864877       26.7803745000  TIP3      1439            0.0000000000
     15476      1535  TIP3      H1             19.6085073426       12.9824874224       26.3550597887  TIP3      1439            0.0000000000
     15477      1535  TIP3      H2             19.0962259655       12.5599835583       27.7002655918  TIP3      1439            0.0000000000
     15478      1536  TIP3      OH2            24.6187463785       12.6607557746       28.1127068837  TIP3      1440            0.0000000000
     15479      1536  TIP3      H1             25.2971528476       12.4446201238       27.4627875407  TIP3      1440            0.0000000000
     15480      1536  TIP3      H2             24.3190227894       11.7482186728       28.3667024970  TIP3      1440            0.0000000000
     15481      1537  TIP3      OH2            20.5081924862       14.9350723124       24.3847137082  TIP3      1441            0.0000000000
     15482      1537  TIP3      H1             20.9814259670       14.1366015073       24.6666204253  TIP3      1441            0.0000000000
     15483      1537  TIP3      H2             20.7173255349       15.5423407386       25.1180734238  TIP3      1441            0.0000000000
     15484      1538  TIP3      OH2            14.3135473405       13.0248318209       37.0524923480  TIP3      1442            0.0000000000
     15485      1538  TIP3      H1             13.9016015846       12.1503160774       37.1857438285  TIP3      1442            0.0000000000
     15486      1538  TIP3      H2             15.2642494880       12.8139237460       37.2355206514  TIP3      1442            0.0000000000
     15487      1539  TIP3      OH2            16.6358313111       12.1352136361       37.9259505863  TIP3      1443            0.0000000000
     15488      1539  TIP3      H1             17.5354290178       12.0459269709       37.5562992340  TIP3      1443            0.0000000000
     15489      1539  TIP3      H2             16.6373064918       11.3829882569       38.5257948293  TIP3      1443            0.0000000000
     15490      1540  TIP3      OH2            24.8839292107       11.6124426642       38.8056781724  TIP3      1444            0.0000000000
     15491      1540  TIP3      H1             25.0717312312       11.1595892882       39.6424221175  TIP3      1444            0.0000000000
     15492      1540  TIP3      H2             25.7626744668       11.5809609308       38.3537484098  TIP3      1444            0.0000000000
     15493      1541  TIP3      OH2           -11.3927913930      -14.6419528965       38.5121171831  TIP3      1445            0.0000000000
     15494      1541  TIP3      H1            -11.9478769507      -15.2775649885       38.0256814478  TIP3      1445            0.0000000000
     15495      1541  TIP3      H2            -11.8958711645      -14.5858787560       39.3367325756  TIP3      1445            0.0000000000
     15496      1542  TIP3      OH2           -19.6584022838      -22.7131543762       38.4774411928  TIP3      1446            0.0000000000
     15497      1542  TIP3      H1            -19.3894553296      -22.5267596943       39.3978826651  TIP3      1446            0.0000000000
     15498      1542  TIP3      H2            -20.3150310379      -22.0194087201       38.3610099625  TIP3      1446            0.0000000000
     15499      1543  TIP3      OH2           -17.7816986949      -11.5958120342       38.6456938106  TIP3      1447            0.0000000000
     15500      1543  TIP3      H1            -17.8182987028      -12.1061246957       37.8210177357  TIP3      1447            0.0000000000
     15501      1543  TIP3      H2            -18.1398967055      -12.2413853507       39.2699621620  TIP3      1447            0.0000000000
     15502      1544  TIP3      OH2           -23.9569560483      -19.2603515367       39.6194422185  TIP3      1448            0.0000000000
     15503      1544  TIP3      H1            -23.0000699756      -19.2960698811       39.4267857947  TIP3      1448            0.0000000000
     15504      1544  TIP3      H2            -24.2938337629      -19.9711761772       39.0344856302  TIP3      1448            0.0000000000
     15505      1545  TIP3      OH2           -15.4687945515       -9.5445128534       38.5521437740  TIP3      1449            0.0000000000
     15506      1545  TIP3      H1            -16.1208867577      -10.2652335802       38.5571799718  TIP3      1449            0.0000000000
     15507      1545  TIP3      H2            -14.7326469930      -10.0006718978       38.0794271074  TIP3      1449            0.0000000000
     15508      1546  TIP3      OH2           -11.2479279479      -10.4612051199       38.4697570276  TIP3      1450            0.0000000000
     15509      1546  TIP3      H1            -10.9744919718      -11.3569390784       38.7375907714  TIP3      1450            0.0000000000
     15510      1546  TIP3      H2            -10.5753236562      -10.2322380486       37.7871541085  TIP3      1450            0.0000000000
     15511      1547  TIP3      OH2           -20.6541601474      -14.4175890121       38.1761557695  TIP3      1451            0.0000000000
     15512      1547  TIP3      H1            -20.5197124899      -14.8190225100       39.0722135412  TIP3      1451            0.0000000000
     15513      1547  TIP3      H2            -19.7806387675      -14.5384337099       37.7572109952  TIP3      1451            0.0000000000
     15514      1548  TIP3      OH2           -14.6980252893      -12.9544731264       39.4620021845  TIP3      1452            0.0000000000
     15515      1548  TIP3      H1            -14.8933742014      -13.3075220546       40.3459537417  TIP3      1452            0.0000000000
     15516      1548  TIP3      H2            -14.9485816641      -13.7412230058       38.9249384147  TIP3      1452            0.0000000000
     15517      1549  TIP3      OH2           -18.1786843374      -17.7615592870       39.0049900896  TIP3      1453            0.0000000000
     15518      1549  TIP3      H1            -18.7085828712      -17.5214055935       38.2147775091  TIP3      1453            0.0000000000
     15519      1549  TIP3      H2            -17.3337465508      -17.9916961095       38.5730155385  TIP3      1453            0.0000000000
     15520      1550  TIP3      OH2            -7.7410317079      -15.7514322358       38.1472573689  TIP3      1454            0.0000000000
     15521      1550  TIP3      H1             -8.4451884201      -16.2610192236       37.7143395251  TIP3      1454            0.0000000000
     15522      1550  TIP3      H2             -8.1998048067      -14.8865484788       38.2696029723  TIP3      1454            0.0000000000
     15523      1551  TIP3      OH2            -8.8900059856      -19.3277500203       38.9640964042  TIP3      1455            0.0000000000
     15524      1551  TIP3      H1             -8.4166745978      -18.9055260465       38.2301765016  TIP3      1455            0.0000000000
     15525      1551  TIP3      H2             -9.4838288989      -19.9048594280       38.4614197317  TIP3      1455            0.0000000000
     15526      1552  TIP3      OH2           -10.4288574750      -22.1351025989       38.4526278696  TIP3      1456            0.0000000000
     15527      1552  TIP3      H1            -10.1846596679      -22.2684945988       39.3800526157  TIP3      1456            0.0000000000
     15528      1552  TIP3      H2            -11.2650989105      -22.6318447748       38.3958241083  TIP3      1456            0.0000000000
     15529      1553  TIP3      OH2           -22.5860073220       -8.5757297350       39.2157572773  TIP3      1457            0.0000000000
     15530      1553  TIP3      H1            -22.6001056994       -8.6287773848       40.1932802370  TIP3      1457            0.0000000000
     15531      1553  TIP3      H2            -21.7346609662       -9.0363208783       39.0550930525  TIP3      1457            0.0000000000
     15532      1554  TIP3      OH2             7.3799947650      -14.5784036160       38.5230333424  TIP3      1458            0.0000000000
     15533      1554  TIP3      H1              6.6931474060      -15.1609471714       38.1709240876  TIP3      1458            0.0000000000
     15534      1554  TIP3      H2              6.9149671799      -14.2567322849       39.3103254227  TIP3      1458            0.0000000000
     15535      1555  TIP3      OH2            -1.0936507091      -22.6463294116       38.6776168325  TIP3      1459            0.0000000000
     15536      1555  TIP3      H1             -0.5876145591      -22.2053501299       39.3871240163  TIP3      1459            0.0000000000
     15537      1555  TIP3      H2             -1.5326686757      -21.8654253579       38.3046608200  TIP3      1459            0.0000000000
     15538      1556  TIP3      OH2             0.8227963397      -11.7640853348       38.6995244276  TIP3      1460            0.0000000000
     15539      1556  TIP3      H1              0.7133510200      -12.2192035037       37.8477450259  TIP3      1460            0.0000000000
     15540      1556  TIP3      H2              0.7118759275      -12.5222278825       39.2879773139  TIP3      1460            0.0000000000
     15541      1557  TIP3      OH2            -5.2199345376      -19.2495872498       39.1649000315  TIP3      1461            0.0000000000
     15542      1557  TIP3      H1             -4.6465078309      -19.4132936405       39.9417457401  TIP3      1461            0.0000000000
     15543      1557  TIP3      H2             -6.0322600129      -19.7231694774       39.4158602492  TIP3      1461            0.0000000000
     15544      1558  TIP3      OH2             2.7144124079       -9.9560285811       38.1323213609  TIP3      1462            0.0000000000
     15545      1558  TIP3      H1              2.2659897475      -10.6846503985       38.5986121194  TIP3      1462            0.0000000000
     15546      1558  TIP3      H2              3.6359928701      -10.1370415412       38.4015623271  TIP3      1462            0.0000000000
     15547      1559  TIP3      OH2             7.5325784248      -10.4017831735       38.6666915343  TIP3      1463            0.0000000000
     15548      1559  TIP3      H1              7.7118514134      -11.2645566412       39.0790504732  TIP3      1463            0.0000000000
     15549      1559  TIP3      H2              8.3399719174      -10.2172291487       38.1525227822  TIP3      1463            0.0000000000
     15550      1560  TIP3      OH2            -1.5178601325      -14.2046404083       38.0183691445  TIP3      1464            0.0000000000
     15551      1560  TIP3      H1             -1.6575706762      -14.6393222728       38.8889251335  TIP3      1464            0.0000000000
     15552      1560  TIP3      H2             -0.5934955498      -14.4427391090       37.8081469666  TIP3      1464            0.0000000000
     15553      1561  TIP3      OH2             4.3923976028      -12.9993268510       39.1279120055  TIP3      1465            0.0000000000
     15554      1561  TIP3      H1              4.6258725053      -12.9782407517       40.0687385393  TIP3      1465            0.0000000000
     15555      1561  TIP3      H2              4.3043559884      -13.9607567656       38.9339481233  TIP3      1465            0.0000000000
     15556      1562  TIP3      OH2             0.7262324498      -17.7405785595       39.0835191810  TIP3      1466            0.0000000000
     15557      1562  TIP3      H1              0.2105456265      -17.4906068126       38.2880870253  TIP3      1466            0.0000000000
     15558      1562  TIP3      H2              1.5034143998      -18.1370906276       38.6422104704  TIP3      1466            0.0000000000
     15559      1563  TIP3      OH2            10.8838719536      -15.7900929032       38.0454219594  TIP3      1467            0.0000000000
     15560      1563  TIP3      H1             10.1259102638      -16.1403449854       37.5406876180  TIP3      1467            0.0000000000
     15561      1563  TIP3      H2             10.5381493978      -14.9136020006       38.3134688890  TIP3      1467            0.0000000000
     15562      1564  TIP3      OH2             9.5875966797      -19.0887186759       38.9464795236  TIP3      1468            0.0000000000
     15563      1564  TIP3      H1             10.1634657584      -18.7622194911       38.2376591122  TIP3      1468            0.0000000000
     15564      1564  TIP3      H2              9.2594799630      -19.9003404829       38.5265301150  TIP3      1468            0.0000000000
     15565      1565  TIP3      OH2             8.8679986350      -22.2659201773       38.4861277102  TIP3      1469            0.0000000000
     15566      1565  TIP3      H1              8.8548328946      -22.2960443112       39.4672700719  TIP3      1469            0.0000000000
     15567      1565  TIP3      H2              8.0490335978      -22.7384100786       38.2737283317  TIP3      1469            0.0000000000
     15568      1566  TIP3      OH2            -3.7132474413       -8.9264417422       38.6669472588  TIP3      1470            0.0000000000
     15569      1566  TIP3      H1             -3.9495236166       -8.8109261933       39.6174582703  TIP3      1470            0.0000000000
     15570      1566  TIP3      H2             -2.8923296737       -9.4525367731       38.7969163005  TIP3      1470            0.0000000000
     15571      1567  TIP3      OH2            17.9382791177      -22.3438930583       38.5796564130  TIP3      1471            0.0000000000
     15572      1567  TIP3      H1             18.2959247234      -22.0323082921       39.4329575592  TIP3      1471            0.0000000000
     15573      1567  TIP3      H2             17.4545278482      -21.5528169944       38.2934940928  TIP3      1471            0.0000000000
     15574      1568  TIP3      OH2            19.7706304335      -11.8128085715       38.8671801871  TIP3      1472            0.0000000000
     15575      1568  TIP3      H1             19.3877840546      -12.2194611010       38.0632856282  TIP3      1472            0.0000000000
     15576      1568  TIP3      H2             20.0752784925      -12.5923108813       39.3445542709  TIP3      1472            0.0000000000
     15577      1569  TIP3      OH2            13.5557094832      -19.3398848314       39.0496988720  TIP3      1473            0.0000000000
     15578      1569  TIP3      H1             14.1711065921      -19.3706649892       39.8073456062  TIP3      1473            0.0000000000
     15579      1569  TIP3      H2             13.0040758131      -20.1173572021       39.2119308215  TIP3      1473            0.0000000000
     15580      1570  TIP3      OH2            21.8208603688      -10.1944203194       38.0984924717  TIP3      1474            0.0000000000
     15581      1570  TIP3      H1             21.2476136924      -10.9298140553       38.4014930464  TIP3      1474            0.0000000000
     15582      1570  TIP3      H2             22.6648008190      -10.6396169305       37.8864009879  TIP3      1474            0.0000000000
     15583      1571  TIP3      OH2            17.3131139464      -14.3044764443       37.8652838281  TIP3      1475            0.0000000000
     15584      1571  TIP3      H1             17.2875990008      -14.4906529506       38.8278233994  TIP3      1475            0.0000000000
     15585      1571  TIP3      H2             18.2443082062      -14.5171129337       37.6539281926  TIP3      1475            0.0000000000
     15586      1572  TIP3      OH2            22.9267022496      -13.0501611086       38.1335120608  TIP3      1476            0.0000000000
     15587      1572  TIP3      H1             22.6411156900      -13.1799546560       39.0434414998  TIP3      1476            0.0000000000
     15588      1572  TIP3      H2             23.2216399516      -13.9661367956       37.9310087995  TIP3      1476            0.0000000000
     15589      1573  TIP3      OH2            19.3629830247      -17.7902602926       39.0326866538  TIP3      1477            0.0000000000
     15590      1573  TIP3      H1             19.0517718148      -17.3814244023       38.2052990646  TIP3      1477            0.0000000000
     15591      1573  TIP3      H2             20.2138251127      -18.1312510996       38.7270872716  TIP3      1477            0.0000000000
     15592      1574  TIP3      OH2            14.7810529259       -8.9610599494       38.8832829685  TIP3      1478            0.0000000000
     15593      1574  TIP3      H1             14.8374579564       -8.8595914807       39.8651233778  TIP3      1478            0.0000000000
     15594      1574  TIP3      H2             15.4018325111       -9.6976208035       38.7907988872  TIP3      1478            0.0000000000
     15595      1575  TIP3      OH2           -11.4144839341        4.1930898851       38.5256412026  TIP3      1479            0.0000000000
     15596      1575  TIP3      H1            -11.9636995658        3.4746823218       38.1701541691  TIP3      1479            0.0000000000
     15597      1575  TIP3      H2            -11.8144610953        4.3587899099       39.3948021260  TIP3      1479            0.0000000000
     15598      1576  TIP3      OH2           -19.2187463274       -3.2318350083       38.3600567571  TIP3      1480            0.0000000000
     15599      1576  TIP3      H1            -19.1228044509       -3.1051521779       39.3264316161  TIP3      1480            0.0000000000
     15600      1576  TIP3      H2            -19.9494682603       -2.6123332760       38.2132699623  TIP3      1480            0.0000000000
     15601      1577  TIP3      OH2           -17.6933725052        7.0517367845       38.7067504656  TIP3      1481            0.0000000000
     15602      1577  TIP3      H1            -17.6449267020        6.7896433430       37.7724439739  TIP3      1481            0.0000000000
     15603      1577  TIP3      H2            -18.2958614591        6.3759554005       39.0545402188  TIP3      1481            0.0000000000
     15604      1578  TIP3      OH2           -24.0749996830       -0.1878074585       39.4585916060  TIP3      1482            0.0000000000
     15605      1578  TIP3      H1            -23.1337140640       -0.4243531928       39.4341864761  TIP3      1482            0.0000000000
     15606      1578  TIP3      H2            -24.4823944703       -0.9080814714       38.9174457195  TIP3      1482            0.0000000000
     15607      1579  TIP3      OH2           -15.7333900690        9.1972523026       38.5622571570  TIP3      1483            0.0000000000
     15608      1579  TIP3      H1            -16.3752487181        8.4592371852       38.6195924638  TIP3      1483            0.0000000000
     15609      1579  TIP3      H2            -14.9712598170        8.7468164050       38.1200276813  TIP3      1483            0.0000000000
     15610      1580  TIP3      OH2           -11.3018471589        8.4347568610       38.6143840472  TIP3      1484            0.0000000000
     15611      1580  TIP3      H1            -11.1450056576        7.5536499375       38.9953096101  TIP3      1484            0.0000000000
     15612      1580  TIP3      H2            -10.5988560126        8.5259069828       37.9271237969  TIP3      1484            0.0000000000
     15613      1581  TIP3      OH2           -20.5865406669        4.5559986528       38.1427960389  TIP3      1485            0.0000000000
     15614      1581  TIP3      H1            -20.5117325326        4.3014785117       39.0912222976  TIP3      1485            0.0000000000
     15615      1581  TIP3      H2            -19.7382387056        4.2151781107       37.8063424689  TIP3      1485            0.0000000000
     15616      1582  TIP3      OH2           -14.6308298541        5.8390650999       38.7682296832  TIP3      1486            0.0000000000
     15617      1582  TIP3      H1            -14.2607045325        5.7179239174       39.6533783961  TIP3      1486            0.0000000000
     15618      1582  TIP3      H2            -14.7804274436        4.8960097693       38.5067752972  TIP3      1486            0.0000000000
     15619      1583  TIP3      OH2           -18.2183794484        1.0326187304       38.9834311786  TIP3      1487            0.0000000000
     15620      1583  TIP3      H1            -18.8504763907        1.2389793468       38.2681372927  TIP3      1487            0.0000000000
     15621      1583  TIP3      H2            -17.4398761294        0.8245891378       38.4274769354  TIP3      1487            0.0000000000
     15622      1584  TIP3      OH2            -7.8509236757        3.1185866386       38.2382726206  TIP3      1488            0.0000000000
     15623      1584  TIP3      H1             -8.3644171418        2.6227399567       37.5829028161  TIP3      1488            0.0000000000
     15624      1584  TIP3      H2             -8.3081909339        3.9845261799       38.2023904178  TIP3      1488            0.0000000000
     15625      1585  TIP3      OH2            -8.9319693726       -0.2870718685       39.0160591332  TIP3      1489            0.0000000000
     15626      1585  TIP3      H1             -8.5322604988        0.1970991378       38.2635832617  TIP3      1489            0.0000000000
     15627      1585  TIP3      H2             -9.4011832245       -0.9788036432       38.5217254971  TIP3      1489            0.0000000000
     15628      1586  TIP3      OH2            -9.9922282023       -3.4178843201       38.2142782941  TIP3      1490            0.0000000000
     15629      1586  TIP3      H1            -10.0942078472       -3.3678373720       39.1791892695  TIP3      1490            0.0000000000
     15630      1586  TIP3      H2            -10.9071201601       -3.3482429976       37.8773654305  TIP3      1490            0.0000000000
     15631      1587  TIP3      OH2           -22.6363769133       10.3994969696       39.3337689769  TIP3      1491            0.0000000000
     15632      1587  TIP3      H1            -22.5728961741       10.1712605862       40.2820571307  TIP3      1491            0.0000000000
     15633      1587  TIP3      H2            -22.5421641759        9.5069960614       38.9548407033  TIP3      1491            0.0000000000
     15634      1588  TIP3      OH2             8.0853099190        3.2467753208       38.1740307544  TIP3      1492            0.0000000000
     15635      1588  TIP3      H1              7.1331346129        3.4236450120       38.2878156387  TIP3      1492            0.0000000000
     15636      1588  TIP3      H2              8.4199613340        3.5845606932       39.0170539919  TIP3      1492            0.0000000000
     15637      1589  TIP3      OH2            -0.1810519622       -3.1899608130       38.4879051289  TIP3      1493            0.0000000000
     15638      1589  TIP3      H1             -0.2524857677       -3.0581736792       39.4515956126  TIP3      1493            0.0000000000
     15639      1589  TIP3      H2             -0.8288925145       -2.5429234557       38.1747663687  TIP3      1493            0.0000000000
     15640      1590  TIP3      OH2             1.2054073923        7.1896872001       38.7111591666  TIP3      1494            0.0000000000
     15641      1590  TIP3      H1              1.0400304619        6.8633007340       37.8096167912  TIP3      1494            0.0000000000
     15642      1590  TIP3      H2              0.6684475367        6.5370649428       39.1776362349  TIP3      1494            0.0000000000
     15643      1591  TIP3      OH2            -5.2734530414       -0.3648366208       38.9575438170  TIP3      1495            0.0000000000
     15644      1591  TIP3      H1             -4.5714773557       -0.5180016796       39.6135264386  TIP3      1495            0.0000000000
     15645      1591  TIP3      H2             -6.0772215464       -0.6754468079       39.4021755699  TIP3      1495            0.0000000000
     15646      1592  TIP3      OH2             3.0345918374        9.1692417624       38.5296143204  TIP3      1496            0.0000000000
     15647      1592  TIP3      H1              2.5202571244        8.3395613890       38.5935078642  TIP3      1496            0.0000000000
     15648      1592  TIP3      H2              3.8593212424        8.8340922499       38.1233842906  TIP3      1496            0.0000000000
     15649      1593  TIP3      OH2             7.6680305817        8.3525201180       38.5848162950  TIP3      1497            0.0000000000
     15650      1593  TIP3      H1              8.1969067368        7.5574662303       38.7827293105  TIP3      1497            0.0000000000
     15651      1593  TIP3      H2              8.1780376619        8.6858771250       37.8060260933  TIP3      1497            0.0000000000
     15652      1594  TIP3      OH2            -1.3521692218        4.7251443681       38.0815108820  TIP3      1498            0.0000000000
     15653      1594  TIP3      H1             -1.4165372299        4.2931590026       38.9655032298  TIP3      1498            0.0000000000
     15654      1594  TIP3      H2             -0.5063440795        4.3521192412       37.7711501283  TIP3      1498            0.0000000000
     15655      1595  TIP3      OH2             4.3304052272        5.7545048236       38.9747797073  TIP3      1499            0.0000000000
     15656      1595  TIP3      H1              4.4165871242        5.3041639468       39.8267638441  TIP3      1499            0.0000000000
     15657      1595  TIP3      H2              4.2743524947        4.9446468693       38.4242504157  TIP3      1499            0.0000000000
     15658      1596  TIP3      OH2             0.7355872441        0.9403208843       39.0805284839  TIP3      1500            0.0000000000
     15659      1596  TIP3      H1              0.1004617088        1.0907787739       38.3439921729  TIP3      1500            0.0000000000
     15660      1596  TIP3      H2              1.5506201589        0.8673072696       38.5514318542  TIP3      1500            0.0000000000
     15661      1597  TIP3      OH2            10.9067328869        3.3405658903       37.9421165303  TIP3      1501            0.0000000000
     15662      1597  TIP3      H1              9.9588929289        3.2238165633       38.1104950034  TIP3      1501            0.0000000000
     15663      1597  TIP3      H2             10.8955239452        4.2539456908       37.6067405706  TIP3      1501            0.0000000000
     15664      1598  TIP3      OH2             9.6885499734       -0.0303993109       39.0765855481  TIP3      1502            0.0000000000
     15665      1598  TIP3      H1             10.3262632155        0.3800006716       38.4717488721  TIP3      1502            0.0000000000
     15666      1598  TIP3      H2              9.5997044369       -0.9158666160       38.6875878796  TIP3      1502            0.0000000000
     15667      1599  TIP3      OH2             8.6162998167       -3.6163529509       38.4338879853  TIP3      1503            0.0000000000
     15668      1599  TIP3      H1              8.7400669819       -3.5869125285       39.4121719591  TIP3      1503            0.0000000000
     15669      1599  TIP3      H2              7.6986302077       -3.9485060426       38.3649542959  TIP3      1503            0.0000000000
     15670      1600  TIP3      OH2            -3.6920074399       10.0674124459       38.7754366381  TIP3      1504            0.0000000000
     15671      1600  TIP3      H1             -3.7485723427        9.9017849046       39.7439265068  TIP3      1504            0.0000000000
     15672      1600  TIP3      H2             -3.1645103143        9.2774620205       38.5573201296  TIP3      1504            0.0000000000
     15673      1601  TIP3      OH2            18.3072671182       -3.5555336017       38.6146040112  TIP3      1505            0.0000000000
     15674      1601  TIP3      H1             18.7140017413       -3.4960276462       39.5020805240  TIP3      1505            0.0000000000
     15675      1601  TIP3      H2             17.8364545251       -2.7052971560       38.5850234102  TIP3      1505            0.0000000000
     15676      1602  TIP3      OH2            20.0419973281        7.0711667369       38.7244108311  TIP3      1506            0.0000000000
     15677      1602  TIP3      H1             19.9225208701        6.5580314581       37.9023066610  TIP3      1506            0.0000000000
     15678      1602  TIP3      H2             19.4292362125        6.6291574178       39.3295929878  TIP3      1506            0.0000000000
     15679      1603  TIP3      OH2            13.4346355238       -0.2350827433       38.5924830587  TIP3      1507            0.0000000000
     15680      1603  TIP3      H1             13.9788893268       -0.0233121764       39.3697127065  TIP3      1507            0.0000000000
     15681      1603  TIP3      H2             12.9966978432       -1.0593979491       38.8601992857  TIP3      1507            0.0000000000
     15682      1604  TIP3      OH2            21.8329283328        9.0596021702       38.6667665703  TIP3      1508            0.0000000000
     15683      1604  TIP3      H1             21.2507897959        8.2702660067       38.5485996747  TIP3      1508            0.0000000000
     15684      1604  TIP3      H2             22.6932454929        8.7048263789       38.3577810004  TIP3      1508            0.0000000000
     15685      1605  TIP3      OH2            17.3638654862        4.5147647934       38.4244451236  TIP3      1509            0.0000000000
     15686      1605  TIP3      H1             17.0223811828        4.2408355854       39.3092080410  TIP3      1509            0.0000000000
     15687      1605  TIP3      H2             18.2090125345        4.0448945709       38.4064978131  TIP3      1509            0.0000000000
     15688      1606  TIP3      OH2            22.9986904004        5.8386578216       38.3712071591  TIP3      1510            0.0000000000
     15689      1606  TIP3      H1             22.2501563098        5.8854848785       38.9850085792  TIP3      1510            0.0000000000
     15690      1606  TIP3      H2             23.0609263095        4.8641593274       38.2033334007  TIP3      1510            0.0000000000
     15691      1607  TIP3      OH2            19.1952005304        1.1092968979       39.1561932984  TIP3      1511            0.0000000000
     15692      1607  TIP3      H1             18.4389464347        0.9126253766       38.5822528788  TIP3      1511            0.0000000000
     15693      1607  TIP3      H2             19.9073430303        0.7755370557       38.5960313879  TIP3      1511            0.0000000000
     15694      1608  TIP3      OH2            14.8245618136       10.0036293115       39.1069528648  TIP3      1512            0.0000000000
     15695      1608  TIP3      H1             14.8008611380        9.8461040159       40.0646480947  TIP3      1512            0.0000000000
     15696      1608  TIP3      H2             15.2988923987        9.1930545577       38.8477317900  TIP3      1512            0.0000000000
     15697      1609  TIP3      OH2           -11.2700931926       22.8814593491       38.3378290463  TIP3      1513            0.0000000000
     15698      1609  TIP3      H1            -12.2190348408       22.7204645877       38.4791528202  TIP3      1513            0.0000000000
     15699      1609  TIP3      H2            -10.8612071253       22.3220506752       39.0185267198  TIP3      1513            0.0000000000
     15700      1610  TIP3      OH2           -19.1706966029       15.1941235205       38.0980202571  TIP3      1514            0.0000000000
     15701      1610  TIP3      H1            -19.3956561691       15.3757369398       39.0226725073  TIP3      1514            0.0000000000
     15702      1610  TIP3      H2            -19.8237647771       15.7451483652       37.6444404343  TIP3      1514            0.0000000000
     15703      1611  TIP3      OH2           -18.4132629749       25.4440309729       38.6473635655  TIP3      1515            0.0000000000
     15704      1611  TIP3      H1            -17.6917508131       24.7977194323       38.5296227023  TIP3      1515            0.0000000000
     15705      1611  TIP3      H2            -18.5865066696       25.3873242888       39.6011812278  TIP3      1515            0.0000000000
     15706      1612  TIP3      OH2           -23.8823686217       18.3726544614       38.9149667914  TIP3      1516            0.0000000000
     15707      1612  TIP3      H1            -23.3706157767       18.3230785430       39.7472882869  TIP3      1516            0.0000000000
     15708      1612  TIP3      H2            -24.7961491336       18.2549764997       39.2514537117  TIP3      1516            0.0000000000
     15709      1613  TIP3      OH2           -20.4445708999       23.2570087751       38.2438082393  TIP3      1517            0.0000000000
     15710      1613  TIP3      H1            -20.3309252802       22.6430057786       38.9834926496  TIP3      1517            0.0000000000
     15711      1613  TIP3      H2            -19.5333436543       23.5104645063       38.0306376617  TIP3      1517            0.0000000000
     15712      1614  TIP3      OH2           -14.4332456447       24.7013806747       39.4131912947  TIP3      1518            0.0000000000
     15713      1614  TIP3      H1            -13.6911229900       24.3879676046       39.9477518318  TIP3      1518            0.0000000000
     15714      1614  TIP3      H2            -14.6406855630       23.9247119107       38.8480735334  TIP3      1518            0.0000000000
     15715      1615  TIP3      OH2           -18.1191869210       19.5088185256       39.1556568696  TIP3      1519            0.0000000000
     15716      1615  TIP3      H1            -18.9863053248       19.3505473896       38.7426833678  TIP3      1519            0.0000000000
     15717      1615  TIP3      H2            -17.6642568741       19.8857515644       38.3842379586  TIP3      1519            0.0000000000
     15718      1616  TIP3      OH2            -7.9210302624       22.1494946798       38.3195655195  TIP3      1520            0.0000000000
     15719      1616  TIP3      H1             -8.5421482262       21.8744180502       37.6234371685  TIP3      1520            0.0000000000
     15720      1616  TIP3      H2             -8.2183578341       23.0636052226       38.4747184360  TIP3      1520            0.0000000000
     15721      1617  TIP3      OH2            -8.9554886191       18.7291157524       39.1522321372  TIP3      1521            0.0000000000
     15722      1617  TIP3      H1             -8.4219947344       19.2365192520       38.5142708967  TIP3      1521            0.0000000000
     15723      1617  TIP3      H2             -9.3027800077       18.0205947259       38.5777967823  TIP3      1521            0.0000000000
     15724      1618  TIP3      OH2           -10.0868743704       15.0602951714       38.0019787079  TIP3      1522            0.0000000000
     15725      1618  TIP3      H1             -9.8394733462       15.2224601320       38.9351372005  TIP3      1522            0.0000000000
     15726      1618  TIP3      H2            -11.0618255035       15.1412211493       38.0405444683  TIP3      1522            0.0000000000
     15727      1619  TIP3      OH2             7.8807969170       22.8868298176       38.6228019186  TIP3      1523            0.0000000000
     15728      1619  TIP3      H1              7.5672423716       22.0420268120       38.2489009983  TIP3      1523            0.0000000000
     15729      1619  TIP3      H2              8.2923654568       22.5788293604       39.4477895689  TIP3      1523            0.0000000000
     15730      1620  TIP3      OH2            -0.3394050087       15.1999136536       38.0481363249  TIP3      1524            0.0000000000
     15731      1620  TIP3      H1             -0.5183252402       15.5455200098       38.9572967530  TIP3      1524            0.0000000000
     15732      1620  TIP3      H2             -0.9512565718       15.7181300868       37.5193619380  TIP3      1524            0.0000000000
     15733      1621  TIP3      OH2             0.2651615127       25.7715790923       38.6473710802  TIP3      1525            0.0000000000
     15734      1621  TIP3      H1              0.8380636614       24.9889754598       38.5380561157  TIP3      1525            0.0000000000
     15735      1621  TIP3      H2              0.1466295889       25.7607106687       39.6115996445  TIP3      1525            0.0000000000
     15736      1622  TIP3      OH2            -5.3058429279       18.6097605820       38.7192230402  TIP3      1526            0.0000000000
     15737      1622  TIP3      H1             -4.8782789474       18.7641581582       39.5748310341  TIP3      1526            0.0000000000
     15738      1622  TIP3      H2             -6.0687084780       18.0654907653       38.9404397336  TIP3      1526            0.0000000000
     15739      1623  TIP3      OH2            -1.4129051160       23.0268780921       38.2785641705  TIP3      1527            0.0000000000
     15740      1623  TIP3      H1             -1.4166613614       22.0678520941       38.1385412271  TIP3      1527            0.0000000000
     15741      1623  TIP3      H2             -0.5452015998       23.2405623151       37.8818697213  TIP3      1527            0.0000000000
     15742      1624  TIP3      OH2             4.1386657273       24.6863546827       39.3633320874  TIP3      1528            0.0000000000
     15743      1624  TIP3      H1              4.8545015471       24.3017756099       39.8871633707  TIP3      1528            0.0000000000
     15744      1624  TIP3      H2              3.9613756532       23.9628433461       38.7244844474  TIP3      1528            0.0000000000
     15745      1625  TIP3      OH2             0.5522730351       19.8080167163       39.2415053880  TIP3      1529            0.0000000000
     15746      1625  TIP3      H1             -0.2764102633       19.4854501654       38.8499083325  TIP3      1529            0.0000000000
     15747      1625  TIP3      H2              0.9699658271       20.2037614200       38.4525308490  TIP3      1529            0.0000000000
     15748      1626  TIP3      OH2            10.9507557750       22.3519179826       38.3619860737  TIP3      1530            0.0000000000
     15749      1626  TIP3      H1             10.1969221459       21.9842936782       37.8613664922  TIP3      1530            0.0000000000
     15750      1626  TIP3      H2             10.7017909139       23.3019460573       38.3100706847  TIP3      1530            0.0000000000
     15751      1627  TIP3      OH2             9.6945932969       18.7730873170       38.9403747121  TIP3      1531            0.0000000000
     15752      1627  TIP3      H1             10.3283048316       19.2108980621       38.3503450643  TIP3      1531            0.0000000000
     15753      1627  TIP3      H2              9.3924784186       18.0508809044       38.3474364204  TIP3      1531            0.0000000000
     15754      1628  TIP3      OH2             8.6011393333       15.2926174114       38.2791322613  TIP3      1532            0.0000000000
     15755      1628  TIP3      H1              8.7834950435       15.2930323460       39.2411466824  TIP3      1532            0.0000000000
     15756      1628  TIP3      H2              7.6216278318       15.3019073947       38.2709082214  TIP3      1532            0.0000000000
     15757      1629  TIP3      OH2            18.1411053241       14.9843008332       37.8436894669  TIP3      1533            0.0000000000
     15758      1629  TIP3      H1             18.0864745631       15.4888407207       38.6854122936  TIP3      1533            0.0000000000
     15759      1629  TIP3      H2             17.8538208352       15.6347753803       37.1953892597  TIP3      1533            0.0000000000
     15760      1630  TIP3      OH2            19.2903584198       25.5207711514       38.7431283973  TIP3      1534            0.0000000000
     15761      1630  TIP3      H1             20.0369139557       24.8989639372       38.6614195739  TIP3      1534            0.0000000000
     15762      1630  TIP3      H2             19.2313980152       25.6411058267       39.7032511406  TIP3      1534            0.0000000000
     15763      1631  TIP3      OH2            13.3353699188       18.6222826122       38.7144833756  TIP3      1535            0.0000000000
     15764      1631  TIP3      H1             14.1430172293       18.5501588749       39.2468175851  TIP3      1535            0.0000000000
     15765      1631  TIP3      H2             12.7437019752       18.0028959904       39.1489264913  TIP3      1535            0.0000000000
     15766      1632  TIP3      OH2            17.3638268146       23.0348053501       38.1812546700  TIP3      1536            0.0000000000
     15767      1632  TIP3      H1             17.4522267377       22.8069485531       39.1213537856  TIP3      1536            0.0000000000
     15768      1632  TIP3      H2             18.2982509088       23.0806055849       37.8911089893  TIP3      1536            0.0000000000
     15769      1633  TIP3      OH2            22.4427235234       24.5617758322       38.2983245103  TIP3      1537            0.0000000000
     15770      1633  TIP3      H1             22.6373444529       24.3276676114       39.2079067588  TIP3      1537            0.0000000000
     15771      1633  TIP3      H2             22.6752324744       23.7208789739       37.8662464033  TIP3      1537            0.0000000000
     15772      1634  TIP3      OH2            19.2672604286       19.5391618009       39.1470161228  TIP3      1538            0.0000000000
     15773      1634  TIP3      H1             18.4625611659       19.3597029080       38.6282868375  TIP3      1538            0.0000000000
     15774      1634  TIP3      H2             19.8611968037       19.8486185065       38.4415687498  TIP3      1538            0.0000000000
     15775      1635  TIP3      OH2           -13.8640671959      -15.8738768647      -33.4054101949  TIP3      1539            0.0000000000
     15776      1635  TIP3      H1            -13.8562798615      -14.9374220679      -33.1135671100  TIP3      1539            0.0000000000
     15777      1635  TIP3      H2            -14.6471905109      -15.8612936176      -33.9714206465  TIP3      1539            0.0000000000
     15778      1636  TIP3      OH2           -15.0311070114      -17.1198915647      -30.0000301058  TIP3      1540            0.0000000000
     15779      1636  TIP3      H1            -15.0609036539      -17.5724602791      -29.1252512058  TIP3      1540            0.0000000000
     15780      1636  TIP3      H2            -15.8797037988      -17.3425108349      -30.4041391731  TIP3      1540            0.0000000000
     15781      1637  TIP3      OH2           -23.1556993533      -16.7804075210      -28.1683891758  TIP3      1541            0.0000000000
     15782      1637  TIP3      H1            -23.3202300543      -17.6074573860      -27.6844296629  TIP3      1541            0.0000000000
     15783      1637  TIP3      H2            -22.3530139553      -16.4659304895      -27.7114687757  TIP3      1541            0.0000000000
     15784      1638  TIP3      OH2           -12.1277695696      -14.0227634803      -31.3103341793  TIP3      1542            0.0000000000
     15785      1638  TIP3      H1            -12.1682197988      -14.7229089027      -30.6408463624  TIP3      1542            0.0000000000
     15786      1638  TIP3      H2            -11.7893209293      -13.2851620217      -30.7739800268  TIP3      1542            0.0000000000
     15787      1639  TIP3      OH2           -22.1329632284      -12.4260898585      -30.2549265319  TIP3      1543            0.0000000000
     15788      1639  TIP3      H1            -22.2929872423      -13.3869935771      -30.4071186576  TIP3      1543            0.0000000000
     15789      1639  TIP3      H2            -21.1940394416      -12.5251370712      -29.9971032003  TIP3      1543            0.0000000000
     15790      1640  TIP3      OH2           -25.5052866117      -19.9913625509      -34.0897417748  TIP3      1544            0.0000000000
     15791      1640  TIP3      H1            -25.3101616242      -19.0548865097      -34.3320877842  TIP3      1544            0.0000000000
     15792      1640  TIP3      H2            -25.3002621092      -20.4451994849      -34.9364271238  TIP3      1544            0.0000000000
     15793      1641  TIP3      OH2           -25.0869707235      -17.1079151173      -32.0336081926  TIP3      1545            0.0000000000
     15794      1641  TIP3      H1            -24.4605262689      -17.8707325363      -31.8886589671  TIP3      1545            0.0000000000
     15795      1641  TIP3      H2            -24.4724066348      -16.3592353264      -32.1667364958  TIP3      1545            0.0000000000
     15796      1642  TIP3      OH2           -13.8869971437       -8.3478536405      -31.1858993803  TIP3      1546            0.0000000000
     15797      1642  TIP3      H1            -13.2203760693       -8.8847354651      -31.6707479797  TIP3      1546            0.0000000000
     15798      1642  TIP3      H2            -14.4640996578       -9.0829669993      -30.9229326533  TIP3      1546            0.0000000000
     15799      1643  TIP3      OH2           -17.0291629843      -13.9568817937      -28.8491880575  TIP3      1547            0.0000000000
     15800      1643  TIP3      H1            -16.6324628601      -14.5014165096      -29.5369035812  TIP3      1547            0.0000000000
     15801      1643  TIP3      H2            -16.2072041348      -13.6824073933      -28.3754209398  TIP3      1547            0.0000000000
     15802      1644  TIP3      OH2            -8.2093946938      -23.2883187052      -28.8441402024  TIP3      1548            0.0000000000
     15803      1644  TIP3      H1             -8.0567631335      -22.7057485939      -28.0699337745  TIP3      1548            0.0000000000
     15804      1644  TIP3      H2             -7.6772676107      -22.8229483808      -29.5074166517  TIP3      1548            0.0000000000
     15805      1645  TIP3      OH2           -13.1540332494      -19.8029959855      -28.6999864012  TIP3      1549            0.0000000000
     15806      1645  TIP3      H1            -12.8484376994      -20.7205772061      -28.5703108986  TIP3      1549            0.0000000000
     15807      1645  TIP3      H2            -13.4325401696      -19.8336147127      -29.6372706949  TIP3      1549            0.0000000000
     15808      1646  TIP3      OH2           -20.1833076351      -21.8940814419      -31.5697925091  TIP3      1550            0.0000000000
     15809      1646  TIP3      H1            -20.0673122890      -21.2274567618      -32.2891944163  TIP3      1550            0.0000000000
     15810      1646  TIP3      H2            -20.7420249878      -22.5379046557      -32.0750170929  TIP3      1550            0.0000000000
     15811      1647  TIP3      OH2           -13.0631924284      -21.8100630179      -33.1603115961  TIP3      1551            0.0000000000
     15812      1647  TIP3      H1            -12.4870398187      -21.8658793086      -32.3535332028  TIP3      1551            0.0000000000
     15813      1647  TIP3      H2            -12.4881701466      -21.2102306767      -33.6689209623  TIP3      1551            0.0000000000
     15814      1648  TIP3      OH2           -23.4686388477      -19.0206297269      -31.1783023261  TIP3      1552            0.0000000000
     15815      1648  TIP3      H1            -23.1650105532      -19.6265093245      -30.4827533055  TIP3      1552            0.0000000000
     15816      1648  TIP3      H2            -23.3398786617      -19.5807854603      -31.9827622436  TIP3      1552            0.0000000000
     15817      1649  TIP3      OH2           -19.3838144029      -17.9218991765      -31.5715149914  TIP3      1553            0.0000000000
     15818      1649  TIP3      H1            -18.4419534334      -18.1555713753      -31.4159440763  TIP3      1553            0.0000000000
     15819      1649  TIP3      H2            -19.6307618629      -18.7152722872      -32.1008134327  TIP3      1553            0.0000000000
     15820      1650  TIP3      OH2            -7.8746201035      -21.6963316891      -26.5468431302  TIP3      1554            0.0000000000
     15821      1650  TIP3      H1             -8.2944707894      -20.8312855246      -26.7582082968  TIP3      1554            0.0000000000
     15822      1650  TIP3      H2             -7.7242544397      -21.5783278664      -25.5949300627  TIP3      1554            0.0000000000
     15823      1651  TIP3      OH2           -21.0632949190      -22.2046945362      -27.5506395914  TIP3      1555            0.0000000000
     15824      1651  TIP3      H1            -21.5893156652      -21.8057703392      -28.2814242314  TIP3      1555            0.0000000000
     15825      1651  TIP3      H2            -21.7884036676      -22.3454174905      -26.8959032558  TIP3      1555            0.0000000000
     15826      1652  TIP3      OH2           -14.3987716591      -13.2721684453      -34.1833404243  TIP3      1556            0.0000000000
     15827      1652  TIP3      H1            -14.7037165437      -13.1674841938      -35.1035828179  TIP3      1556            0.0000000000
     15828      1652  TIP3      H2            -14.8251753436      -12.5109978048      -33.7262049261  TIP3      1556            0.0000000000
     15829      1653  TIP3      OH2           -19.1030175205      -15.2155294285      -27.6998168240  TIP3      1557            0.0000000000
     15830      1653  TIP3      H1            -19.7141248679      -14.5159292302      -27.4000895327  TIP3      1557            0.0000000000
     15831      1653  TIP3      H2            -18.3577401933      -14.6581543807      -28.0363127146  TIP3      1557            0.0000000000
     15832      1654  TIP3      OH2           -11.0974998952      -21.7248239556      -31.4101953988  TIP3      1558            0.0000000000
     15833      1654  TIP3      H1            -10.8887307866      -22.5510212367      -30.9258898344  TIP3      1558            0.0000000000
     15834      1654  TIP3      H2            -10.6149675521      -21.0889879621      -30.8515968855  TIP3      1558            0.0000000000
     15835      1655  TIP3      OH2           -21.7255870038      -20.5858033476      -29.5661987032  TIP3      1559            0.0000000000
     15836      1655  TIP3      H1            -21.3197745016      -19.7692815743      -29.2010937272  TIP3      1559            0.0000000000
     15837      1655  TIP3      H2            -21.3654545294      -20.6699304585      -30.4782615721  TIP3      1559            0.0000000000
     15838      1656  TIP3      OH2           -20.3368889791      -12.5881702546      -27.0868435605  TIP3      1560            0.0000000000
     15839      1656  TIP3      H1            -20.3423050725      -11.6236386374      -26.8880218950  TIP3      1560            0.0000000000
     15840      1656  TIP3      H2            -21.2672642841      -12.8172733358      -26.8917438956  TIP3      1560            0.0000000000
     15841      1657  TIP3      OH2           -24.9591712051      -13.4376757790      -36.0900023842  TIP3      1561            0.0000000000
     15842      1657  TIP3      H1            -24.6942412655      -12.8547001040      -36.8462517249  TIP3      1561            0.0000000000
     15843      1657  TIP3      H2            -24.4108023756      -13.1382626787      -35.3620514518  TIP3      1561            0.0000000000
     15844      1658  TIP3      OH2           -11.0141195872      -12.2227320117      -29.3453473370  TIP3      1562            0.0000000000
     15845      1658  TIP3      H1            -11.9292852222      -11.8689246518      -29.2313082235  TIP3      1562            0.0000000000
     15846      1658  TIP3      H2            -10.5709557611      -11.4235364458      -29.6576837251  TIP3      1562            0.0000000000
     15847      1659  TIP3      OH2           -10.7332055154      -23.1741595143      -27.5326048502  TIP3      1563            0.0000000000
     15848      1659  TIP3      H1            -11.4338076056      -22.9377579801      -28.1771489906  TIP3      1563            0.0000000000
     15849      1659  TIP3      H2             -9.9695824683      -23.3306375634      -28.1189856175  TIP3      1563            0.0000000000
     15850      1660  TIP3      OH2           -17.6967232830      -24.8443958191      -30.8160312107  TIP3      1564            0.0000000000
     15851      1660  TIP3      H1            -17.7652092320      -25.7916412909      -30.5673609161  TIP3      1564            0.0000000000
     15852      1660  TIP3      H2            -18.4487716934      -24.5181893620      -30.2719849271  TIP3      1564            0.0000000000
     15853      1661  TIP3      OH2           -12.4684151775      -10.2904416612      -32.4456225919  TIP3      1565            0.0000000000
     15854      1661  TIP3      H1            -12.3635873624      -11.0433003947      -33.0663348594  TIP3      1565            0.0000000000
     15855      1661  TIP3      H2            -11.6809524272       -9.7613465622      -32.6744354443  TIP3      1565            0.0000000000
     15856      1662  TIP3      OH2           -11.4252473167      -12.3311056039      -34.1853572375  TIP3      1566            0.0000000000
     15857      1662  TIP3      H1            -11.7070873511      -12.9291427486      -34.9060168938  TIP3      1566            0.0000000000
     15858      1662  TIP3      H2            -11.7420208268      -12.8231905950      -33.4151780659  TIP3      1566            0.0000000000
     15859      1663  TIP3      OH2            -9.7996971379      -13.6460977321      -25.7931523489  TIP3      1567            0.0000000000
     15860      1663  TIP3      H1             -9.7232694323      -14.3079260618      -26.5146315492  TIP3      1567            0.0000000000
     15861      1663  TIP3      H2             -9.6272952123      -12.8239824810      -26.2987381922  TIP3      1567            0.0000000000
     15862      1664  TIP3      OH2           -15.2951564828      -16.8045969828      -35.9777674965  TIP3      1568            0.0000000000
     15863      1664  TIP3      H1            -15.8838747083      -16.2136737154      -36.4727991522  TIP3      1568            0.0000000000
     15864      1664  TIP3      H2            -14.4751303290      -16.8291764331      -36.5159467207  TIP3      1568            0.0000000000
     15865      1665  TIP3      OH2           -15.0666151417      -18.3687018509      -38.7267218397  TIP3      1569            0.0000000000
     15866      1665  TIP3      H1            -14.2781030791      -18.0006016588      -38.2936082982  TIP3      1569            0.0000000000
     15867      1665  TIP3      H2            -14.8000752550      -19.2835159931      -38.9138368877  TIP3      1569            0.0000000000
     15868      1666  TIP3      OH2            -7.8080281559      -17.2857618246      -27.7266182499  TIP3      1570            0.0000000000
     15869      1666  TIP3      H1             -8.5114033353      -16.6228048395      -27.8900728006  TIP3      1570            0.0000000000
     15870      1666  TIP3      H2             -7.1063830473      -16.9426063468      -28.3240143898  TIP3      1570            0.0000000000
     15871      1667  TIP3      OH2           -11.5196930273      -16.5029708294      -34.8292470394  TIP3      1571            0.0000000000
     15872      1667  TIP3      H1            -12.3151127304      -16.2853584376      -34.2980426811  TIP3      1571            0.0000000000
     15873      1667  TIP3      H2            -11.0049531768      -17.0343262292      -34.1783713560  TIP3      1571            0.0000000000
     15874      1668  TIP3      OH2           -11.9255550007      -18.1603388028      -25.5207513950  TIP3      1572            0.0000000000
     15875      1668  TIP3      H1            -12.4238439938      -17.3959994833      -25.1702269510  TIP3      1572            0.0000000000
     15876      1668  TIP3      H2            -12.3034719665      -18.1879498975      -26.4161198708  TIP3      1572            0.0000000000
     15877      1669  TIP3      OH2           -20.3065302799      -16.1797908715      -33.3931919831  TIP3      1573            0.0000000000
     15878      1669  TIP3      H1            -20.5398211811      -16.7035959847      -34.1851885812  TIP3      1573            0.0000000000
     15879      1669  TIP3      H2            -20.0134793983      -16.8438315063      -32.7320546423  TIP3      1573            0.0000000000
     15880      1670  TIP3      OH2           -19.1481575001      -12.7686750855      -30.4543346434  TIP3      1574            0.0000000000
     15881      1670  TIP3      H1            -18.9438840955      -13.0666370449      -31.3494263541  TIP3      1574            0.0000000000
     15882      1670  TIP3      H2            -18.4141874425      -13.1398720451      -29.9286531654  TIP3      1574            0.0000000000
     15883      1671  TIP3      OH2           -20.1481973863      -17.3499120809      -28.9614406008  TIP3      1575            0.0000000000
     15884      1671  TIP3      H1            -19.7777908891      -17.2171658166      -29.8593411051  TIP3      1575            0.0000000000
     15885      1671  TIP3      H2            -19.7319539990      -16.5982851144      -28.4760538053  TIP3      1575            0.0000000000
     15886      1672  TIP3      OH2           -13.4942835098      -11.3650853460      -28.8252628920  TIP3      1576            0.0000000000
     15887      1672  TIP3      H1            -13.4984659357      -10.7453520069      -28.0739402694  TIP3      1576            0.0000000000
     15888      1672  TIP3      H2            -13.9876256461      -12.1173657533      -28.4492930413  TIP3      1576            0.0000000000
     15889      1673  TIP3      OH2           -19.4291132222      -13.0009103287      -24.5935619053  TIP3      1577            0.0000000000
     15890      1673  TIP3      H1            -20.0148135378      -12.4470135624      -24.0594738096  TIP3      1577            0.0000000000
     15891      1673  TIP3      H2            -19.8897055906      -13.0427525794      -25.4579271350  TIP3      1577            0.0000000000
     15892      1674  TIP3      OH2           -12.8641963157      -17.2954629311      -37.0277320338  TIP3      1578            0.0000000000
     15893      1674  TIP3      H1            -12.3296176769      -17.0335487030      -36.2301260990  TIP3      1578            0.0000000000
     15894      1674  TIP3      H2            -12.5940470171      -16.5895101072      -37.6703725804  TIP3      1578            0.0000000000
     15895      1675  TIP3      OH2           -22.0078872212      -16.1194013771      -25.5680540310  TIP3      1579            0.0000000000
     15896      1675  TIP3      H1            -22.1947789989      -15.5322428876      -24.8102551389  TIP3      1579            0.0000000000
     15897      1675  TIP3      H2            -22.8855257013      -16.5486479788      -25.6558562643  TIP3      1579            0.0000000000
     15898      1676  TIP3      OH2           -15.5268486491      -10.9668167786      -33.1084728657  TIP3      1580            0.0000000000
     15899      1676  TIP3      H1            -14.9248176610      -10.2317295218      -32.9923693926  TIP3      1580            0.0000000000
     15900      1676  TIP3      H2            -15.9495938128      -10.7283213273      -33.9550437801  TIP3      1580            0.0000000000
     15901      1677  TIP3      OH2            -9.0657089083      -25.7799486017      -37.2127041520  TIP3      1581            0.0000000000
     15902      1677  TIP3      H1             -9.9962711068      -25.4997955607      -37.1520865842  TIP3      1581            0.0000000000
     15903      1677  TIP3      H2             -8.6204445477      -24.9405768503      -37.4004133422  TIP3      1581            0.0000000000
     15904      1678  TIP3      OH2           -21.2913619342      -17.0899677190      -35.9424471308  TIP3      1582            0.0000000000
     15905      1678  TIP3      H1            -21.5959626002      -16.1539722768      -35.9814840089  TIP3      1582            0.0000000000
     15906      1678  TIP3      H2            -22.1398723105      -17.5550130023      -35.8685338960  TIP3      1582            0.0000000000
     15907      1679  TIP3      OH2            -8.4408608145      -11.0229684175      -38.7293859075  TIP3      1583            0.0000000000
     15908      1679  TIP3      H1             -8.1418665141      -10.1401640918      -38.4169417336  TIP3      1583            0.0000000000
     15909      1679  TIP3      H2             -7.5786276550      -11.4430965473      -38.9239519334  TIP3      1583            0.0000000000
     15910      1680  TIP3      OH2           -24.8791512115      -14.3330057971      -26.7244358120  TIP3      1584            0.0000000000
     15911      1680  TIP3      H1            -25.5333505269      -14.2677597589      -27.4362149200  TIP3      1584            0.0000000000
     15912      1680  TIP3      H2            -24.6160723612      -15.2657036291      -26.8127894016  TIP3      1584            0.0000000000
     15913      1681  TIP3      OH2           -25.1905178507      -11.5921978123      -30.3873395114  TIP3      1585            0.0000000000
     15914      1681  TIP3      H1            -24.5453278564      -12.1837659201      -29.9776439859  TIP3      1585            0.0000000000
     15915      1681  TIP3      H2            -25.9476405636      -11.5937818140      -29.7674546528  TIP3      1585            0.0000000000
     15916      1682  TIP3      OH2           -16.8697908616      -11.6939391954      -24.6236954360  TIP3      1586            0.0000000000
     15917      1682  TIP3      H1            -16.8241741854      -11.8768954548      -23.6692204274  TIP3      1586            0.0000000000
     15918      1682  TIP3      H2            -17.8210503011      -11.8322082696      -24.7963509462  TIP3      1586            0.0000000000
     15919      1683  TIP3      OH2           -15.2395437677       -7.5613680107      -35.6092887915  TIP3      1587            0.0000000000
     15920      1683  TIP3      H1            -15.4326948501       -7.4072592253      -36.5571518053  TIP3      1587            0.0000000000
     15921      1683  TIP3      H2            -15.5712214535       -6.7483742202      -35.1907720536  TIP3      1587            0.0000000000
     15922      1684  TIP3      OH2           -22.0647028000       -9.3410048682      -33.2496971618  TIP3      1588            0.0000000000
     15923      1684  TIP3      H1            -21.7641386108       -9.4902449910      -32.3180426541  TIP3      1588            0.0000000000
     15924      1684  TIP3      H2            -22.4226114267      -10.2284816856      -33.4819679289  TIP3      1588            0.0000000000
     15925      1685  TIP3      OH2           -13.1411939283       -8.5405174043      -38.1040210570  TIP3      1589            0.0000000000
     15926      1685  TIP3      H1            -12.3347141712       -8.8346398484      -38.5753188696  TIP3      1589            0.0000000000
     15927      1685  TIP3      H2            -12.8384682161       -8.6717400498      -37.1797121403  TIP3      1589            0.0000000000
     15928      1686  TIP3      OH2           -12.6322955286       -8.2646940173      -35.4510078143  TIP3      1590            0.0000000000
     15929      1686  TIP3      H1            -13.6059304140       -8.2574348087      -35.3392528332  TIP3      1590            0.0000000000
     15930      1686  TIP3      H2            -12.3011988158       -8.5465737896      -34.5776693523  TIP3      1590            0.0000000000
     15931      1687  TIP3      OH2           -10.4443685361      -19.2471551017      -23.5085124137  TIP3      1591            0.0000000000
     15932      1687  TIP3      H1            -10.9428038233      -18.8267119315      -24.2425624872  TIP3      1591            0.0000000000
     15933      1687  TIP3      H2            -10.3079591729      -20.1537023209      -23.8178967485  TIP3      1591            0.0000000000
     15934      1688  TIP3      OH2           -22.7438021241      -12.9941123486      -25.6460560191  TIP3      1592            0.0000000000
     15935      1688  TIP3      H1            -22.5773452708      -13.4900228486      -24.8207025301  TIP3      1592            0.0000000000
     15936      1688  TIP3      H2            -23.5398441991      -13.4686139661      -25.9931545011  TIP3      1592            0.0000000000
     15937      1689  TIP3      OH2           -19.8756851020      -24.0901067681      -29.3010807654  TIP3      1593            0.0000000000
     15938      1689  TIP3      H1            -20.5861316386      -24.3424401275      -29.9518078676  TIP3      1593            0.0000000000
     15939      1689  TIP3      H2            -20.0639334757      -24.7372824059      -28.6038301268  TIP3      1593            0.0000000000
     15940      1690  TIP3      OH2           -15.0266336023      -24.7503286057      -26.1563555501  TIP3      1594            0.0000000000
     15941      1690  TIP3      H1            -15.6112681926      -24.9894699906      -25.4110414097  TIP3      1594            0.0000000000
     15942      1690  TIP3      H2            -15.5778922491      -24.9712883870      -26.9189386941  TIP3      1594            0.0000000000
     15943      1691  TIP3      OH2           -12.4039942218      -21.0055003886      -25.5809003517  TIP3      1595            0.0000000000
     15944      1691  TIP3      H1            -12.8986003826      -21.3043843806      -24.7887225736  TIP3      1595            0.0000000000
     15945      1691  TIP3      H2            -12.2339630866      -20.0755851906      -25.3627394019  TIP3      1595            0.0000000000
     15946      1692  TIP3      OH2           -12.1803883527      -15.7041961365      -39.0445691370  TIP3      1596            0.0000000000
     15947      1692  TIP3      H1            -11.9951605856      -16.4424581324      -39.6341724105  TIP3      1596            0.0000000000
     15948      1692  TIP3      H2            -11.2805711136      -15.3012111329      -38.9898326286  TIP3      1596            0.0000000000
     15949      1693  TIP3      OH2           -15.6047002770      -22.5987987354      -38.5527838928  TIP3      1597            0.0000000000
     15950      1693  TIP3      H1            -16.3295568795      -22.8098548689      -37.9425132619  TIP3      1597            0.0000000000
     15951      1693  TIP3      H2            -16.0626864916      -22.6536455154      -39.4070501421  TIP3      1597            0.0000000000
     15952      1694  TIP3      OH2           -19.7194691111      -19.7381989006      -27.9680723049  TIP3      1598            0.0000000000
     15953      1694  TIP3      H1            -20.0396553566      -19.5842869638      -27.0516977542  TIP3      1598            0.0000000000
     15954      1694  TIP3      H2            -19.8407690733      -18.8240209719      -28.3229273229  TIP3      1598            0.0000000000
     15955      1695  TIP3      OH2           -20.0831944711      -19.8531430574      -33.3134578737  TIP3      1599            0.0000000000
     15956      1695  TIP3      H1            -21.0523639251      -19.7633850905      -33.4133868023  TIP3      1599            0.0000000000
     15957      1695  TIP3      H2            -19.8802996042      -20.0782733327      -34.2446451531  TIP3      1599            0.0000000000
     15958      1696  TIP3      OH2           -14.2709263556      -18.7374960215      -34.3128888304  TIP3      1600            0.0000000000
     15959      1696  TIP3      H1            -14.6290686690      -17.9120319396      -34.7136869127  TIP3      1600            0.0000000000
     15960      1696  TIP3      H2            -13.7468279379      -19.0669666136      -35.0586130256  TIP3      1600            0.0000000000
     15961      1697  TIP3      OH2           -15.5022307535      -18.7484083421      -23.2876076976  TIP3      1601            0.0000000000
     15962      1697  TIP3      H1            -16.0940100944      -19.4163927332      -22.9035494636  TIP3      1601            0.0000000000
     15963      1697  TIP3      H2            -14.7123562681      -18.8473563826      -22.7153976078  TIP3      1601            0.0000000000
     15964      1698  TIP3      OH2           -13.5612730055      -19.3516299056      -31.4454140176  TIP3      1602            0.0000000000
     15965      1698  TIP3      H1            -13.6499490662      -18.5714074418      -32.0435776838  TIP3      1602            0.0000000000
     15966      1698  TIP3      H2            -13.8014881179      -20.0484572331      -32.0741985678  TIP3      1602            0.0000000000
     15967      1699  TIP3      OH2           -22.9295775098      -19.4761356111      -26.9836697639  TIP3      1603            0.0000000000
     15968      1699  TIP3      H1            -22.0706277146      -19.1540480366      -26.6381421267  TIP3      1603            0.0000000000
     15969      1699  TIP3      H2            -22.9537207800      -20.3908807327      -26.6329781890  TIP3      1603            0.0000000000
     15970      1700  TIP3      OH2           -19.0789592617      -21.8290463492      -38.8818760604  TIP3      1604            0.0000000000
     15971      1700  TIP3      H1            -19.6986249117      -22.2900619253      -38.2828446303  TIP3      1604            0.0000000000
     15972      1700  TIP3      H2            -19.3064912614      -20.8935441731      -38.7394307065  TIP3      1604            0.0000000000
     15973      1701  TIP3      OH2           -25.5335937362      -23.0538053851      -32.1283274603  TIP3      1605            0.0000000000
     15974      1701  TIP3      H1            -24.6338767165      -22.8924962508      -31.7627104500  TIP3      1605            0.0000000000
     15975      1701  TIP3      H2            -25.3522570653      -23.3127394697      -33.0515434778  TIP3      1605            0.0000000000
     15976      1702  TIP3      OH2           -24.4793390230      -21.6621907401      -36.2804100922  TIP3      1606            0.0000000000
     15977      1702  TIP3      H1            -24.1678585357      -20.8809541213      -36.7771805336  TIP3      1606            0.0000000000
     15978      1702  TIP3      H2            -24.7577046548      -22.2250374211      -37.0262922357  TIP3      1606            0.0000000000
     15979      1703  TIP3      OH2           -14.8478708509      -18.1143339987      -27.4291006541  TIP3      1607            0.0000000000
     15980      1703  TIP3      H1            -14.1526767973      -18.7448166609      -27.7252847971  TIP3      1607            0.0000000000
     15981      1703  TIP3      H2            -15.3222271604      -18.6529887542      -26.7580622689  TIP3      1607            0.0000000000
     15982      1704  TIP3      OH2           -17.1023603088      -22.0101046123      -32.8474702062  TIP3      1608            0.0000000000
     15983      1704  TIP3      H1            -18.0041569402      -22.3788125945      -32.6804110265  TIP3      1608            0.0000000000
     15984      1704  TIP3      H2            -16.6736727995      -22.0579386579      -31.9668786419  TIP3      1608            0.0000000000
     15985      1705  TIP3      OH2           -22.8694480223      -20.4106852699      -33.3489516057  TIP3      1609            0.0000000000
     15986      1705  TIP3      H1            -23.6187346871      -20.5105297428      -33.9571474340  TIP3      1609            0.0000000000
     15987      1705  TIP3      H2            -22.4683596927      -21.2991168821      -33.4519199669  TIP3      1609            0.0000000000
     15988      1706  TIP3      OH2           -20.1213403225      -20.3600461018      -35.9755164974  TIP3      1610            0.0000000000
     15989      1706  TIP3      H1            -19.2489548214      -19.9659114940      -36.1274819656  TIP3      1610            0.0000000000
     15990      1706  TIP3      H2            -20.6534609310      -19.8237898478      -36.5997116791  TIP3      1610            0.0000000000
     15991      1707  TIP3      OH2           -12.9202957846      -22.7117779773      -29.2427541084  TIP3      1611            0.0000000000
     15992      1707  TIP3      H1            -13.6964753021      -22.7384275439      -28.6512453420  TIP3      1611            0.0000000000
     15993      1707  TIP3      H2            -13.1382257971      -23.2939867513      -29.9885883125  TIP3      1611            0.0000000000
     15994      1708  TIP3      OH2           -20.8930837873      -19.3831736585      -38.4937987993  TIP3      1612            0.0000000000
     15995      1708  TIP3      H1            -21.1772372362      -19.2393977873      -39.4108265110  TIP3      1612            0.0000000000
     15996      1708  TIP3      H2            -20.0021112161      -18.9688624695      -38.5147443988  TIP3      1612            0.0000000000
     15997      1709  TIP3      OH2           -22.6036830512      -14.6976756549      -23.3771929412  TIP3      1613            0.0000000000
     15998      1709  TIP3      H1            -21.8237724853      -14.8548656619      -22.8172625555  TIP3      1613            0.0000000000
     15999      1709  TIP3      H2            -23.3099865572      -14.5720283786      -22.7117655222  TIP3      1613            0.0000000000
     16000      1710  TIP3      OH2           -17.0812261696      -19.1126756685      -30.8065452038  TIP3      1614            0.0000000000
     16001      1710  TIP3      H1            -16.1309673200      -19.1971120043      -30.9842672800  TIP3      1614            0.0000000000
     16002      1710  TIP3      H2            -17.2539011670      -19.9090332145      -30.2928380951  TIP3      1614            0.0000000000
     16003      1711  TIP3      OH2           -21.7274301483      -22.8834197955      -33.5971290945  TIP3      1615            0.0000000000
     16004      1711  TIP3      H1            -22.1820321194      -23.7527390919      -33.4938712918  TIP3      1615            0.0000000000
     16005      1711  TIP3      H2            -21.2408273384      -23.0574714176      -34.4167127092  TIP3      1615            0.0000000000
     16006      1712  TIP3      OH2           -17.4990359566      -21.4042760717      -28.2760012931  TIP3      1616            0.0000000000
     16007      1712  TIP3      H1            -17.6115225139      -20.4755937829      -27.9827821090  TIP3      1616            0.0000000000
     16008      1712  TIP3      H2            -16.6348971481      -21.5937950008      -27.8496681898  TIP3      1616            0.0000000000
     16009      1713  TIP3      OH2           -17.2116657005      -14.3670529559      -36.0654443211  TIP3      1617            0.0000000000
     16010      1713  TIP3      H1            -17.8704708304      -14.9671723199      -36.4612794108  TIP3      1617            0.0000000000
     16011      1713  TIP3      H2            -17.5525402927      -14.2803912334      -35.1527765372  TIP3      1617            0.0000000000
     16012      1714  TIP3      OH2            -9.7033281990      -15.3406059486      -27.8967866843  TIP3      1618            0.0000000000
     16013      1714  TIP3      H1             -9.2464268470      -14.9731485791      -28.6958945481  TIP3      1618            0.0000000000
     16014      1714  TIP3      H2            -10.6227468272      -15.4113458379      -28.2230293891  TIP3      1618            0.0000000000
     16015      1715  TIP3      OH2           -13.0473830789      -21.6356951792      -38.7065486339  TIP3      1619            0.0000000000
     16016      1715  TIP3      H1            -13.9435228735      -22.0173792591      -38.5704359688  TIP3      1619            0.0000000000
     16017      1715  TIP3      H2            -12.9304258469      -21.0343286174      -37.9474583186  TIP3      1619            0.0000000000
     16018      1716  TIP3      OH2           -16.1780003079      -14.4205747445      -25.5590882336  TIP3      1620            0.0000000000
     16019      1716  TIP3      H1            -16.4924604107      -14.9943738779      -24.8342122378  TIP3      1620            0.0000000000
     16020      1716  TIP3      H2            -16.3305652986      -13.5497551857      -25.1688642697  TIP3      1620            0.0000000000
     16021      1717  TIP3      OH2           -12.6454780794      -19.9120779789      -36.3957244351  TIP3      1621            0.0000000000
     16022      1717  TIP3      H1            -11.7506023563      -19.8478261282      -35.9984548738  TIP3      1621            0.0000000000
     16023      1717  TIP3      H2            -12.7275909285      -19.0323064902      -36.8134627459  TIP3      1621            0.0000000000
     16024      1718  TIP3      OH2           -21.7339699955      -15.0583369520      -30.8220862099  TIP3      1622            0.0000000000
     16025      1718  TIP3      H1            -21.3356410889      -15.4053096993      -31.6345092852  TIP3      1622            0.0000000000
     16026      1718  TIP3      H2            -21.6072186833      -15.7998568781      -30.2200842856  TIP3      1622            0.0000000000
     16027      1719  TIP3      OH2           -15.2068142556      -12.9882558307      -37.0387886390  TIP3      1623            0.0000000000
     16028      1719  TIP3      H1            -15.7140150252      -12.2325230785      -36.6761950694  TIP3      1623            0.0000000000
     16029      1719  TIP3      H2            -15.8205674921      -13.7094503205      -36.7703703504  TIP3      1623            0.0000000000
     16030      1720  TIP3      OH2           -24.5476671210      -17.0500475741      -25.6230037733  TIP3      1624            0.0000000000
     16031      1720  TIP3      H1            -24.8476956747      -17.2929831073      -24.7331688748  TIP3      1624            0.0000000000
     16032      1720  TIP3      H2            -25.2327305381      -17.5012492177      -26.1553430985  TIP3      1624            0.0000000000
     16033      1721  TIP3      OH2           -13.1901830435      -12.0862141008      -24.6382472394  TIP3      1625            0.0000000000
     16034      1721  TIP3      H1            -14.0799262345      -11.8061222534      -24.8799451252  TIP3      1625            0.0000000000
     16035      1721  TIP3      H2            -12.9921471416      -11.5429852634      -23.8684775839  TIP3      1625            0.0000000000
     16036      1722  TIP3      OH2            -7.7794488310      -20.0907110348      -36.2372580082  TIP3      1626            0.0000000000
     16037      1722  TIP3      H1             -8.3471922590      -20.1483405584      -37.0433976680  TIP3      1626            0.0000000000
     16038      1722  TIP3      H2             -7.4372109542      -19.1827311537      -36.3385243527  TIP3      1626            0.0000000000
     16039      1723  TIP3      OH2            -7.5529525860      -14.1035581945      -24.4143576921  TIP3      1627            0.0000000000
     16040      1723  TIP3      H1             -8.3867892446      -13.6962805071      -24.7552852954  TIP3      1627            0.0000000000
     16041      1723  TIP3      H2             -7.0400289172      -14.1872685693      -25.2380055927  TIP3      1627            0.0000000000
     16042      1724  TIP3      OH2            -8.7683092639      -11.2164592607      -35.9890122261  TIP3      1628            0.0000000000
     16043      1724  TIP3      H1             -9.5965720091      -11.6892595521      -35.8085464582  TIP3      1628            0.0000000000
     16044      1724  TIP3      H2             -8.6517910896      -11.2746407986      -36.9592172901  TIP3      1628            0.0000000000
     16045      1725  TIP3      OH2           -12.0317385489      -16.1932525611      -29.3463300905  TIP3      1629            0.0000000000
     16046      1725  TIP3      H1            -12.9395506900      -16.5002027061      -29.5193796225  TIP3      1629            0.0000000000
     16047      1725  TIP3      H2            -11.5035193830      -16.8244444363      -29.8882061307  TIP3      1629            0.0000000000
     16048      1726  TIP3      OH2           -19.9599065183      -11.7086935000      -33.4975778767  TIP3      1630            0.0000000000
     16049      1726  TIP3      H1            -19.3542727621      -10.9846456405      -33.7555116674  TIP3      1630            0.0000000000
     16050      1726  TIP3      H2            -20.5252766171      -11.2795564422      -32.8495049909  TIP3      1630            0.0000000000
     16051      1727  TIP3      OH2           -24.3088081289      -16.4454704908      -37.8461175267  TIP3      1631            0.0000000000
     16052      1727  TIP3      H1            -23.3786373433      -16.2217071351      -37.6529561054  TIP3      1631            0.0000000000
     16053      1727  TIP3      H2            -24.4648331451      -15.9434825947      -38.6559758838  TIP3      1631            0.0000000000
     16054      1728  TIP3      OH2           -18.3893050163      -13.9890717388      -33.6109158032  TIP3      1632            0.0000000000
     16055      1728  TIP3      H1            -18.9306857923      -13.1753233610      -33.6169066491  TIP3      1632            0.0000000000
     16056      1728  TIP3      H2            -19.0162631923      -14.6543732935      -33.2888204459  TIP3      1632            0.0000000000
     16057      1729  TIP3      OH2           -17.5813132093       -9.9894603962      -26.8564170011  TIP3      1633            0.0000000000
     16058      1729  TIP3      H1            -16.9434566255       -9.3435855932      -27.2462175864  TIP3      1633            0.0000000000
     16059      1729  TIP3      H2            -17.0373004564      -10.5044189039      -26.2319963472  TIP3      1633            0.0000000000
     16060      1730  TIP3      OH2           -19.1907264688       -9.0973377186      -33.7870760850  TIP3      1634            0.0000000000
     16061      1730  TIP3      H1            -20.1495700332       -8.9292087565      -33.8112751807  TIP3      1634            0.0000000000
     16062      1730  TIP3      H2            -18.8741194184       -8.1899659740      -33.5925028693  TIP3      1634            0.0000000000
     16063      1731  TIP3      OH2           -14.5217060537      -13.8787810044      -27.8105356208  TIP3      1635            0.0000000000
     16064      1731  TIP3      H1            -14.9383605287      -14.2557494940      -26.9948213366  TIP3      1635            0.0000000000
     16065      1731  TIP3      H2            -13.8027526261      -14.5166746248      -27.9852104689  TIP3      1635            0.0000000000
     16066      1732  TIP3      OH2           -11.9419505961      -12.4278146214      -38.7237932548  TIP3      1636            0.0000000000
     16067      1732  TIP3      H1            -11.6812947095      -12.9078061401      -37.9110291340  TIP3      1636            0.0000000000
     16068      1732  TIP3      H2            -12.8917089330      -12.6083591914      -38.7182916026  TIP3      1636            0.0000000000
     16069      1733  TIP3      OH2           -11.1239979578       -9.3693957874      -25.7946192955  TIP3      1637            0.0000000000
     16070      1733  TIP3      H1            -12.0166423650       -9.6351777095      -26.0758548494  TIP3      1637            0.0000000000
     16071      1733  TIP3      H2            -11.0057990381       -8.5376053343      -26.2966573168  TIP3      1637            0.0000000000
     16072      1734  TIP3      OH2            -7.1431667314       -8.6563303547      -37.8407185555  TIP3      1638            0.0000000000
     16073      1734  TIP3      H1             -6.5588349291       -8.1360482524      -38.4235610799  TIP3      1638            0.0000000000
     16074      1734  TIP3      H2             -7.8400158585       -7.9833958297      -37.6646684844  TIP3      1638            0.0000000000
     16075      1735  TIP3      OH2           -23.3601860568      -22.2640300530      -26.1471012021  TIP3      1639            0.0000000000
     16076      1735  TIP3      H1            -24.2309063725      -21.9636986517      -25.8394807619  TIP3      1639            0.0000000000
     16077      1735  TIP3      H2            -23.4545507014      -23.2211948408      -25.9807997166  TIP3      1639            0.0000000000
     16078      1736  TIP3      OH2           -11.2967662989      -14.0181763123      -36.5169976195  TIP3      1640            0.0000000000
     16079      1736  TIP3      H1            -11.4845947387      -14.9563036374      -36.3524276280  TIP3      1640            0.0000000000
     16080      1736  TIP3      H2            -10.3373553957      -13.9821117135      -36.2896562998  TIP3      1640            0.0000000000
     16081      1737  TIP3      OH2           -23.5508069945      -10.1932063659      -27.2916244476  TIP3      1641            0.0000000000
     16082      1737  TIP3      H1            -23.2107232299      -11.0956500446      -27.3288574273  TIP3      1641            0.0000000000
     16083      1737  TIP3      H2            -23.1065210997       -9.8443908831      -26.5050776434  TIP3      1641            0.0000000000
     16084      1738  TIP3      OH2           -19.1138797900      -12.2582772565      -37.5838026401  TIP3      1642            0.0000000000
     16085      1738  TIP3      H1            -18.6256120950      -12.8170467672      -36.9631260539  TIP3      1642            0.0000000000
     16086      1738  TIP3      H2            -18.9016204877      -11.3580836492      -37.2357360887  TIP3      1642            0.0000000000
     16087      1739  TIP3      OH2           -22.4722463534      -14.7107927831      -36.7607144929  TIP3      1643            0.0000000000
     16088      1739  TIP3      H1            -23.3998808568      -14.4468558564      -36.6196647608  TIP3      1643            0.0000000000
     16089      1739  TIP3      H2            -22.1359048327      -13.9288843206      -37.2277667700  TIP3      1643            0.0000000000
     16090      1740  TIP3      OH2           -14.4546707683      -22.2168584681      -26.8906624978  TIP3      1644            0.0000000000
     16091      1740  TIP3      H1            -13.6157410709      -21.9742322016      -26.4431515657  TIP3      1644            0.0000000000
     16092      1740  TIP3      H2            -14.6512878365      -23.0432689251      -26.4009687298  TIP3      1644            0.0000000000
     16093      1741  TIP3      OH2           -13.5089640756      -23.0880465898      -35.3982872649  TIP3      1645            0.0000000000
     16094      1741  TIP3      H1            -13.7447289571      -22.2091046433      -35.7448837796  TIP3      1645            0.0000000000
     16095      1741  TIP3      H2            -13.1959900099      -22.8397813359      -34.5016518614  TIP3      1645            0.0000000000
     16096      1742  TIP3      OH2           -16.3755895219      -10.9116284284      -35.6946223936  TIP3      1646            0.0000000000
     16097      1742  TIP3      H1            -17.2219737020      -10.4701518466      -35.9111621720  TIP3      1646            0.0000000000
     16098      1742  TIP3      H2            -15.7771735372      -10.4222283232      -36.2819994208  TIP3      1646            0.0000000000
     16099      1743  TIP3      OH2           -16.2248882958      -21.0823991712      -35.2505500223  TIP3      1647            0.0000000000
     16100      1743  TIP3      H1            -15.7005582755      -20.3416427363      -34.9100779259  TIP3      1647            0.0000000000
     16101      1743  TIP3      H2            -16.6523962453      -21.4007497552      -34.4305909044  TIP3      1647            0.0000000000
     16102      1744  TIP3      OH2           -15.8333244311      -19.9333108008      -25.6764895011  TIP3      1648            0.0000000000
     16103      1744  TIP3      H1            -15.6659541736      -19.4633861608      -24.8229762552  TIP3      1648            0.0000000000
     16104      1744  TIP3      H2            -15.3424838074      -20.7707893354      -25.5646236772  TIP3      1648            0.0000000000
     16105      1745  TIP3      OH2           -15.8814493967      -24.0482075667      -34.1875697293  TIP3      1649            0.0000000000
     16106      1745  TIP3      H1            -16.1215113880      -23.3058122065      -33.5918617872  TIP3      1649            0.0000000000
     16107      1745  TIP3      H2            -14.9889596152      -23.7703272262      -34.4785580232  TIP3      1649            0.0000000000
     16108      1746  TIP3      OH2           -18.7317661266       -9.8570825961      -36.4246244926  TIP3      1650            0.0000000000
     16109      1746  TIP3      H1            -18.3847021811       -9.1108283075      -36.9622463749  TIP3      1650            0.0000000000
     16110      1746  TIP3      H2            -18.9725481008       -9.3597567585      -35.6081841155  TIP3      1650            0.0000000000
     16111      1747  TIP3      OH2           -20.4663465010      -23.0118671542      -36.8153178398  TIP3      1651            0.0000000000
     16112      1747  TIP3      H1            -20.5030886953      -22.1068504555      -36.4520757115  TIP3      1651            0.0000000000
     16113      1747  TIP3      H2            -19.5354846994      -23.2604785667      -36.6331223652  TIP3      1651            0.0000000000
     16114      1748  TIP3      OH2           -10.0903933005      -21.9619995843      -24.4922337506  TIP3      1652            0.0000000000
     16115      1748  TIP3      H1            -10.9295664235      -21.7130144566      -24.9410395419  TIP3      1652            0.0000000000
     16116      1748  TIP3      H2             -9.7796540305      -22.6348245793      -25.1233870144  TIP3      1652            0.0000000000
     16117      1749  TIP3      OH2           -11.1233469090      -18.4284131627      -30.7681644076  TIP3      1653            0.0000000000
     16118      1749  TIP3      H1            -11.9472294790      -18.9396807254      -30.6586565515  TIP3      1653            0.0000000000
     16119      1749  TIP3      H2            -10.4756145174      -18.9481641832      -30.2353634415  TIP3      1653            0.0000000000
     16120      1750  TIP3      OH2           -21.7080850658      -12.2332562022      -38.2393102872  TIP3      1654            0.0000000000
     16121      1750  TIP3      H1            -20.8024911048      -12.0495561233      -37.8929026335  TIP3      1654            0.0000000000
     16122      1750  TIP3      H2            -21.4955020485      -12.7801146186      -39.0081917212  TIP3      1654            0.0000000000
     16123      1751  TIP3      OH2           -24.2060154021      -19.1185419518      -37.6100829600  TIP3      1655            0.0000000000
     16124      1751  TIP3      H1            -24.3359273365      -18.1446801692      -37.6829606159  TIP3      1655            0.0000000000
     16125      1751  TIP3      H2            -24.0108072465      -19.3297734009      -38.5557260894  TIP3      1655            0.0000000000
     16126      1752  TIP3      OH2           -10.4055423773       -8.7920018473      -29.2690081736  TIP3      1656            0.0000000000
     16127      1752  TIP3      H1            -10.2276669546       -8.0735963747      -29.9202877187  TIP3      1656            0.0000000000
     16128      1752  TIP3      H2             -9.4862517811       -9.0801442770      -29.1082118087  TIP3      1656            0.0000000000
     16129      1753  TIP3      OH2           -21.8593263276      -25.0159385895      -30.8262017722  TIP3      1657            0.0000000000
     16130      1753  TIP3      H1            -22.1459435988      -25.3421192398      -31.6941963745  TIP3      1657            0.0000000000
     16131      1753  TIP3      H2            -22.0744403782      -25.7913767218      -30.2772333580  TIP3      1657            0.0000000000
     16132      1754  TIP3      OH2           -23.7440329950      -11.3118886604      -34.0807747770  TIP3      1658            0.0000000000
     16133      1754  TIP3      H1            -24.4329215063      -11.9646337972      -33.8847367863  TIP3      1658            0.0000000000
     16134      1754  TIP3      H2            -23.7137985499      -11.2420378774      -35.0559667515  TIP3      1658            0.0000000000
     16135      1755  TIP3      OH2           -24.2468094502       -7.8490948269      -22.4146222108  TIP3      1659            0.0000000000
     16136      1755  TIP3      H1            -23.4195891892       -8.0569995283      -21.9379013236  TIP3      1659            0.0000000000
     16137      1755  TIP3      H2            -24.4119904924       -8.6838476758      -22.8773909002  TIP3      1659            0.0000000000
     16138      1756  TIP3      OH2           -16.5071920147      -10.3570246568      -39.0031329158  TIP3      1660            0.0000000000
     16139      1756  TIP3      H1            -17.1503296787      -10.6896381832      -39.6513070057  TIP3      1660            0.0000000000
     16140      1756  TIP3      H2            -15.7600984438      -10.1225285201      -39.5820206001  TIP3      1660            0.0000000000
     16141      1757  TIP3      OH2           -10.8449696038       -9.3965649594      -39.1715383960  TIP3      1661            0.0000000000
     16142      1757  TIP3      H1            -10.7252792144      -10.2848813241      -38.7933902176  TIP3      1661            0.0000000000
     16143      1757  TIP3      H2            -11.0854192112       -9.6436205464      -40.0889794465  TIP3      1661            0.0000000000
     16144      1758  TIP3      OH2           -25.0108661713      -14.5045353561      -22.1142432156  TIP3      1662            0.0000000000
     16145      1758  TIP3      H1            -24.8376799658      -15.4632700795      -22.1321692972  TIP3      1662            0.0000000000
     16146      1758  TIP3      H2            -25.5660423707      -14.3997792805      -22.9205040171  TIP3      1662            0.0000000000
     16147      1759  TIP3      OH2           -20.1272079305      -15.0037737510      -39.2838979669  TIP3      1663            0.0000000000
     16148      1759  TIP3      H1            -20.1083271352      -15.6316463627      -38.5465674507  TIP3      1663            0.0000000000
     16149      1759  TIP3      H2            -19.2115653743      -14.6869000453      -39.2111364147  TIP3      1663            0.0000000000
     16150      1760  TIP3      OH2           -17.8684079562      -14.8187488420      -23.2624152971  TIP3      1664            0.0000000000
     16151      1760  TIP3      H1            -18.4228130626      -14.2224244183      -23.8142252832  TIP3      1664            0.0000000000
     16152      1760  TIP3      H2            -18.2172799132      -15.7132702800      -23.4027809658  TIP3      1664            0.0000000000
     16153      1761  TIP3      OH2           -12.2323765413      -14.7949730250      -25.2527919978  TIP3      1665            0.0000000000
     16154      1761  TIP3      H1            -11.3664737000      -14.3661956279      -25.4426818411  TIP3      1665            0.0000000000
     16155      1761  TIP3      H2            -12.7077925104      -14.0157530301      -24.8971833280  TIP3      1665            0.0000000000
     16156      1762  TIP3      OH2           -24.1310688192      -17.4066131314      -22.4248935333  TIP3      1666            0.0000000000
     16157      1762  TIP3      H1            -23.3287857889      -17.6159440436      -22.9319864442  TIP3      1666            0.0000000000
     16158      1762  TIP3      H2            -23.9010810699      -17.7742542018      -21.5378292510  TIP3      1666            0.0000000000
     16159      1763  TIP3      OH2           -18.7524119358      -16.1771654669      -37.3070413362  TIP3      1667            0.0000000000
     16160      1763  TIP3      H1            -19.4780663846      -16.4922709931      -36.7290714973  TIP3      1667            0.0000000000
     16161      1763  TIP3      H2            -18.5173465734      -16.9997589127      -37.7839107796  TIP3      1667            0.0000000000
     16162      1764  TIP3      OH2           -20.6132182654      -18.4591885166      -25.8070138634  TIP3      1668            0.0000000000
     16163      1764  TIP3      H1            -21.1998824159      -17.7715023904      -25.4322188523  TIP3      1668            0.0000000000
     16164      1764  TIP3      H2            -19.7491147800      -17.9952526968      -25.7257258447  TIP3      1668            0.0000000000
     16165      1765  TIP3      OH2           -18.2874185488      -18.6957308320      -38.4696062090  TIP3      1669            0.0000000000
     16166      1765  TIP3      H1            -18.1575036791      -18.4190656643      -39.4175870003  TIP3      1669            0.0000000000
     16167      1765  TIP3      H2            -17.3812862849      -19.0086098540      -38.2901523351  TIP3      1669            0.0000000000
     16168      1766  TIP3      OH2            -9.5597760534      -15.5531927439      -38.8908082456  TIP3      1670            0.0000000000
     16169      1766  TIP3      H1             -8.8149459728      -15.8942376364      -39.4033641914  TIP3      1670            0.0000000000
     16170      1766  TIP3      H2             -9.2686307565      -14.6395338139      -38.7122067629  TIP3      1670            0.0000000000
     16171      1767  TIP3      OH2           -19.3893408159      -21.2052806735      -23.9466265683  TIP3      1671            0.0000000000
     16172      1767  TIP3      H1            -19.1305867815      -21.8213455742      -24.6657579937  TIP3      1671            0.0000000000
     16173      1767  TIP3      H2            -19.9553605736      -20.5816252584      -24.4099467121  TIP3      1671            0.0000000000
     16174      1768  TIP3      OH2           -18.8124671983      -22.7477812445      -26.1784460812  TIP3      1672            0.0000000000
     16175      1768  TIP3      H1            -18.1974075292      -22.1817077020      -26.6893642402  TIP3      1672            0.0000000000
     16176      1768  TIP3      H2            -19.6315292168      -22.7373906638      -26.7240465413  TIP3      1672            0.0000000000
     16177      1769  TIP3      OH2           -17.7661550439      -16.9441603036      -26.1262929939  TIP3      1673            0.0000000000
     16178      1769  TIP3      H1            -16.8685518580      -16.8749299556      -26.4730626526  TIP3      1673            0.0000000000
     16179      1769  TIP3      H2            -18.2509242487      -16.2445097269      -26.6105086412  TIP3      1673            0.0000000000
     16180      1770  TIP3      OH2           -13.2772897914      -19.6127609086      -21.8359682812  TIP3      1674            0.0000000000
     16181      1770  TIP3      H1            -13.6092162496      -20.1223535610      -21.0674927592  TIP3      1674            0.0000000000
     16182      1770  TIP3      H2            -12.7533772623      -18.9163546577      -21.4248001846  TIP3      1674            0.0000000000
     16183      1771  TIP3      OH2           -11.6643159204      -16.4149368111      -23.1846251209  TIP3      1675            0.0000000000
     16184      1771  TIP3      H1            -11.9784969105      -15.8248604634      -23.9084653457  TIP3      1675            0.0000000000
     16185      1771  TIP3      H2            -10.7472181946      -16.6341490621      -23.4497868704  TIP3      1675            0.0000000000
     16186      1772  TIP3      OH2           -21.6331409935      -19.4619839385      -22.2884929285  TIP3      1676            0.0000000000
     16187      1772  TIP3      H1            -21.8479758997      -20.4086991124      -22.3648416442  TIP3      1676            0.0000000000
     16188      1772  TIP3      H2            -20.7381287714      -19.4283727833      -22.6774093398  TIP3      1676            0.0000000000
     16189      1773  TIP3      OH2           -18.0723796552      -25.3763642981      -26.8359191179  TIP3      1677            0.0000000000
     16190      1773  TIP3      H1            -18.3994486827      -24.4604465446      -26.7104713944  TIP3      1677            0.0000000000
     16191      1773  TIP3      H2            -18.9148051081      -25.8799096846      -26.8309213849  TIP3      1677            0.0000000000
     16192      1774  TIP3      OH2           -16.8268756902      -21.1333254861      -22.6345353983  TIP3      1678            0.0000000000
     16193      1774  TIP3      H1            -17.4390982940      -21.0360120702      -21.8954701814  TIP3      1678            0.0000000000
     16194      1774  TIP3      H2            -17.4609664078      -21.1464858380      -23.3774928506  TIP3      1678            0.0000000000
     16195      1775  TIP3      OH2           -14.0362699383      -22.0555582149      -23.5010868891  TIP3      1679            0.0000000000
     16196      1775  TIP3      H1            -14.8620607834      -21.8014672537      -23.0411014048  TIP3      1679            0.0000000000
     16197      1775  TIP3      H2            -13.4028538274      -22.0379324367      -22.7534377936  TIP3      1679            0.0000000000
     16198      1776  TIP3      OH2           -12.6229489628      -22.4818014713      -21.1915667912  TIP3      1680            0.0000000000
     16199      1776  TIP3      H1            -12.5590653362      -23.4516220665      -21.2205800269  TIP3      1680            0.0000000000
     16200      1776  TIP3      H2            -13.2286531075      -22.2829799704      -20.4590900766  TIP3      1680            0.0000000000
     16201      1777  TIP3      OH2           -23.0802186528      -22.1276809252      -22.0008376822  TIP3      1681            0.0000000000
     16202      1777  TIP3      H1            -23.0934082660      -22.8483324700      -22.6645818467  TIP3      1681            0.0000000000
     16203      1777  TIP3      H2            -23.2787845405      -22.5591080025      -21.1594602628  TIP3      1681            0.0000000000
     16204      1778  TIP3      OH2           -17.1092819411      -25.5929688425      -24.1809419818  TIP3      1682            0.0000000000
     16205      1778  TIP3      H1            -16.7791912351      -26.5089456617      -24.2368634547  TIP3      1682            0.0000000000
     16206      1778  TIP3      H2            -17.5914826341      -25.5116813673      -25.0219485768  TIP3      1682            0.0000000000
     16207      1779  TIP3      OH2           -18.1897908399       -7.3519156236      -37.3728160846  TIP3      1683            0.0000000000
     16208      1779  TIP3      H1            -17.2560066401       -7.1539451868      -37.5812048508  TIP3      1683            0.0000000000
     16209      1779  TIP3      H2            -18.6156982895       -6.9562320405      -38.1422660168  TIP3      1683            0.0000000000
     16210      1780  TIP3      OH2           -24.4257555979      -11.7592194674      -38.1085924386  TIP3      1684            0.0000000000
     16211      1780  TIP3      H1            -23.4750498057      -11.5151145175      -38.0955275679  TIP3      1684            0.0000000000
     16212      1780  TIP3      H2            -24.5543205606      -11.9782151599      -39.0387045217  TIP3      1684            0.0000000000
     16213      1781  TIP3      OH2            26.6051207327       -6.8883183502      -33.8739309993  TIP3      1685            0.0000000000
     16214      1781  TIP3      H1             26.3659210277       -6.2174497469      -34.5660970848  TIP3      1685            0.0000000000
     16215      1781  TIP3      H2             25.9049119834       -6.7115909033      -33.2036859104  TIP3      1685            0.0000000000
     16216      1782  TIP3      OH2           -24.4824013812       -9.3748190053      -31.6364238756  TIP3      1686            0.0000000000
     16217      1782  TIP3      H1            -24.4746173384      -10.3025537910      -31.2960358999  TIP3      1686            0.0000000000
     16218      1782  TIP3      H2            -24.1733661775       -8.9052166942      -30.8365171221  TIP3      1686            0.0000000000
     16219      1783  TIP3      OH2            -7.7064589629       -8.8179390050      -28.8852065319  TIP3      1687            0.0000000000
     16220      1783  TIP3      H1             -7.3967780602       -9.0133325127      -27.9730131482  TIP3      1687            0.0000000000
     16221      1783  TIP3      H2             -7.4066005061       -7.9073482541      -28.9849325747  TIP3      1687            0.0000000000
     16222      1784  TIP3      OH2            -7.6939712736       -9.3555007342      -26.1212367090  TIP3      1688            0.0000000000
     16223      1784  TIP3      H1             -8.1909407659      -10.1596851529      -26.3795161724  TIP3      1688            0.0000000000
     16224      1784  TIP3      H2             -7.5125340057       -9.5529925076      -25.1841910333  TIP3      1688            0.0000000000
     16225      1785  TIP3      OH2            -9.0023141057      -13.3792039089      -21.8698460164  TIP3      1689            0.0000000000
     16226      1785  TIP3      H1             -9.9083567717      -13.0630804673      -21.8723177132  TIP3      1689            0.0000000000
     16227      1785  TIP3      H2             -8.5185824336      -12.6287279846      -22.2712600276  TIP3      1689            0.0000000000
     16228      1786  TIP3      OH2            -8.5839253554      -14.3940490245      -36.1345380649  TIP3      1690            0.0000000000
     16229      1786  TIP3      H1             -7.7858261095      -13.8959622679      -35.8499423046  TIP3      1690            0.0000000000
     16230      1786  TIP3      H2             -8.6072996125      -15.0895297108      -35.4558253669  TIP3      1690            0.0000000000
     16231      1787  TIP3      OH2            -7.9283844546      -16.6985802756      -33.6964154490  TIP3      1691            0.0000000000
     16232      1787  TIP3      H1             -8.7018686038      -17.3010390283      -33.5820184261  TIP3      1691            0.0000000000
     16233      1787  TIP3      H2             -7.9976256072      -16.1680098061      -32.8918313949  TIP3      1691            0.0000000000
     16234      1788  TIP3      OH2            -8.1687444105      -14.1835588066      -29.6435903155  TIP3      1692            0.0000000000
     16235      1788  TIP3      H1             -7.3493238855      -14.6833668490      -29.7932326908  TIP3      1692            0.0000000000
     16236      1788  TIP3      H2             -7.8500557613      -13.2718472587      -29.7992151146  TIP3      1692            0.0000000000
     16237      1789  TIP3      OH2            -9.4764115872      -11.2278254510      -27.0207305700  TIP3      1693            0.0000000000
     16238      1789  TIP3      H1            -10.0394043412      -10.6628532076      -26.4364903585  TIP3      1693            0.0000000000
     16239      1789  TIP3      H2            -10.0567414340      -11.4054895534      -27.7821078493  TIP3      1693            0.0000000000
     16240      1790  TIP3      OH2            -7.5839340193      -16.8456946839      -37.4080959909  TIP3      1694            0.0000000000
     16241      1790  TIP3      H1             -8.3388239980      -17.2355824199      -37.8632100899  TIP3      1694            0.0000000000
     16242      1790  TIP3      H2             -7.9603706272      -16.0041085852      -37.0810078666  TIP3      1694            0.0000000000
     16243      1791  TIP3      OH2            -9.2491878790      -19.9052876756      -38.5114017681  TIP3      1695            0.0000000000
     16244      1791  TIP3      H1             -9.1493296226      -19.6090497477      -39.4534370861  TIP3      1695            0.0000000000
     16245      1791  TIP3      H2             -9.4754383485      -20.8463697841      -38.6637066826  TIP3      1695            0.0000000000
     16246      1792  TIP3      OH2           -10.0742225877      -18.0988636665      -33.2132019920  TIP3      1696            0.0000000000
     16247      1792  TIP3      H1            -10.4224001390      -18.9188392241      -33.6012098988  TIP3      1696            0.0000000000
     16248      1792  TIP3      H2            -10.3429954576      -18.2112559846      -32.2721395276  TIP3      1696            0.0000000000
     16249      1793  TIP3      OH2           -24.6166358381      -15.4484099717      -29.9855438759  TIP3      1697            0.0000000000
     16250      1793  TIP3      H1            -24.7750177441      -16.2439890557      -30.5295411384  TIP3      1697            0.0000000000
     16251      1793  TIP3      H2            -23.9374805945      -15.7713282510      -29.3418961386  TIP3      1697            0.0000000000
     16252      1794  TIP3      OH2            -8.9830624022      -16.4136947842      -24.0768169947  TIP3      1698            0.0000000000
     16253      1794  TIP3      H1             -8.8719696907      -16.6775458158      -24.9955193262  TIP3      1698            0.0000000000
     16254      1794  TIP3      H2             -8.5311930024      -15.5371572885      -24.0643241208  TIP3      1698            0.0000000000
     16255      1795  TIP3      OH2            -9.8768378399      -22.5074322173      -38.6127347899  TIP3      1699            0.0000000000
     16256      1795  TIP3      H1             -9.0675300343      -23.0548411812      -38.4954270695  TIP3      1699            0.0000000000
     16257      1795  TIP3      H2            -10.5286350447      -22.9992429540      -38.0979405326  TIP3      1699            0.0000000000
     16258      1796  TIP3      OH2           -10.3284645308      -20.4034905432      -34.9157375946  TIP3      1700            0.0000000000
     16259      1796  TIP3      H1            -10.3675379292      -21.3655378413      -34.7227907351  TIP3      1700            0.0000000000
     16260      1796  TIP3      H2             -9.4244968074      -20.3579643989      -35.2699610977  TIP3      1700            0.0000000000
     16261      1797  TIP3      OH2            -9.4543967381      -20.0393434359      -29.3744658422  TIP3      1701            0.0000000000
     16262      1797  TIP3      H1             -8.4671274634      -20.0063639195      -29.3798368345  TIP3      1701            0.0000000000
     16263      1797  TIP3      H2             -9.5810632682      -20.0066533788      -28.4006044980  TIP3      1701            0.0000000000
     16264      1798  TIP3      OH2            -9.1770896824      -19.3647267638      -26.7793422172  TIP3      1702            0.0000000000
     16265      1798  TIP3      H1             -9.9626264156      -19.0020238785      -26.3570277615  TIP3      1702            0.0000000000
     16266      1798  TIP3      H2             -8.7064339720      -18.5416830509      -27.0589482058  TIP3      1702            0.0000000000
     16267      1799  TIP3      OH2           -25.2781367216      -20.4271067589      -23.0738358096  TIP3      1703            0.0000000000
     16268      1799  TIP3      H1            -24.7463719470      -19.6473148952      -22.8462071280  TIP3      1703            0.0000000000
     16269      1799  TIP3      H2            -24.5952417543      -21.1158698418      -23.1556509891  TIP3      1703            0.0000000000
     16270      1800  TIP3      OH2            -7.4079852146      -25.4411925400      -21.4314665207  TIP3      1704            0.0000000000
     16271      1800  TIP3      H1             -6.7450865202      -25.6379959478      -22.0993514049  TIP3      1704            0.0000000000
     16272      1800  TIP3      H2             -7.5889512630      -24.4955132439      -21.5849558297  TIP3      1704            0.0000000000
     16273      1801  TIP3      OH2           -10.1480715997      -23.2461724470      -34.5236778833  TIP3      1705            0.0000000000
     16274      1801  TIP3      H1             -9.6195579737      -23.6145406235      -33.7927131678  TIP3      1705            0.0000000000
     16275      1801  TIP3      H2            -10.4375313834      -24.0541056899      -34.9855624390  TIP3      1705            0.0000000000
     16276      1802  TIP3      OH2           -23.4157626214      -22.4948011681      -30.3772201781  TIP3      1706            0.0000000000
     16277      1802  TIP3      H1            -24.1353085149      -22.9357072484      -29.9014755042  TIP3      1706            0.0000000000
     16278      1802  TIP3      H2            -23.0961825519      -21.8397280198      -29.7317080230  TIP3      1706            0.0000000000
     16279      1803  TIP3      OH2           -25.5805679305      -19.2952869614      -28.9960158673  TIP3      1707            0.0000000000
     16280      1803  TIP3      H1            -25.2532890712      -18.7085172412      -29.6938994447  TIP3      1707            0.0000000000
     16281      1803  TIP3      H2            -24.7947290408      -19.3818060807      -28.4210918694  TIP3      1707            0.0000000000
     16282      1804  TIP3      OH2            -8.0381553058      -23.0775138166      -22.8496260622  TIP3      1708            0.0000000000
     16283      1804  TIP3      H1             -8.9213182477      -22.7431060020      -23.1014071480  TIP3      1708            0.0000000000
     16284      1804  TIP3      H2             -7.9376444657      -23.7995895471      -23.5003321739  TIP3      1708            0.0000000000
     16285      1805  TIP3      OH2            -7.4734603129      -23.6052575665      -38.2823135907  TIP3      1709            0.0000000000
     16286      1805  TIP3      H1             -6.9494113095      -23.7816621762      -39.0775646280  TIP3      1709            0.0000000000
     16287      1805  TIP3      H2             -6.8503229575      -23.0808428476      -37.7411231835  TIP3      1709            0.0000000000
     16288      1806  TIP3      OH2           -25.4615318680      -23.9251065296      -34.6603090749  TIP3      1710            0.0000000000
     16289      1806  TIP3      H1            -26.1117835617      -23.4336987366      -35.1928398454  TIP3      1710            0.0000000000
     16290      1806  TIP3      H2            -24.6893752547      -23.7786317267      -35.2397742643  TIP3      1710            0.0000000000
     16291      1807  TIP3      OH2           -10.8560130055       -8.2786710738      -33.2465713818  TIP3      1711            0.0000000000
     16292      1807  TIP3      H1            -10.1156305325       -8.3269893821      -33.8943563860  TIP3      1711            0.0000000000
     16293      1807  TIP3      H2            -10.4908589841       -7.7025445935      -32.5438542616  TIP3      1711            0.0000000000
     16294      1808  TIP3      OH2           -25.0609756413      -24.8931395188      -26.9240355469  TIP3      1712            0.0000000000
     16295      1808  TIP3      H1            -25.6083119533      -25.6404443748      -27.1811253293  TIP3      1712            0.0000000000
     16296      1808  TIP3      H2            -25.3010285101      -24.2128726481      -27.5766947319  TIP3      1712            0.0000000000
     16297      1809  TIP3      OH2           -24.4818707096      -11.3356972982      -23.0195509820  TIP3      1713            0.0000000000
     16298      1809  TIP3      H1            -23.9247772844      -11.7139219958      -23.7158904362  TIP3      1713            0.0000000000
     16299      1809  TIP3      H2            -24.1529587011      -11.8090238246      -22.2464212513  TIP3      1713            0.0000000000
     16300      1810  TIP3      OH2           -20.0944348221       -9.8932149196      -25.9549865337  TIP3      1714            0.0000000000
     16301      1810  TIP3      H1            -20.3036721691       -9.0072063732      -26.3336650324  TIP3      1714            0.0000000000
     16302      1810  TIP3      H2            -19.1662000589       -9.9766998949      -26.2569670711  TIP3      1714            0.0000000000
     16303      1811  TIP3      OH2           -13.6776326768       -7.8617487681      -24.3226409292  TIP3      1715            0.0000000000
     16304      1811  TIP3      H1            -12.8816466774       -7.7521063385      -24.8655638687  TIP3      1715            0.0000000000
     16305      1811  TIP3      H2            -13.4008446899       -8.5380931705      -23.6814054344  TIP3      1715            0.0000000000
     16306      1812  TIP3      OH2            -8.9336830267      -24.9003573766      -24.9127425204  TIP3      1716            0.0000000000
     16307      1812  TIP3      H1             -9.8390775301      -24.8931221638      -25.2435863017  TIP3      1716            0.0000000000
     16308      1812  TIP3      H2             -8.8099643416      -25.8768311691      -24.8401150718  TIP3      1716            0.0000000000
     16309      1813  TIP3      OH2           -22.6166255521       -6.6935655939      -25.8877546825  TIP3      1717            0.0000000000
     16310      1813  TIP3      H1            -23.4324383798       -6.4105780133      -26.3307234086  TIP3      1717            0.0000000000
     16311      1813  TIP3      H2            -22.7999053694       -6.4517008113      -24.9589184512  TIP3      1717            0.0000000000
     16312      1814  TIP3      OH2           -20.3820255322       -7.5514569652      -27.2559150496  TIP3      1718            0.0000000000
     16313      1814  TIP3      H1            -21.2257837301       -7.2638173576      -26.8173948614  TIP3      1718            0.0000000000
     16314      1814  TIP3      H2            -20.3330799891       -6.8946360475      -27.9747459084  TIP3      1718            0.0000000000
     16315      1815  TIP3      OH2           -16.1236769925       -8.1053795566      -28.1915766379  TIP3      1719            0.0000000000
     16316      1815  TIP3      H1            -16.2062744814       -7.6076322860      -29.0210694672  TIP3      1719            0.0000000000
     16317      1815  TIP3      H2            -15.8082248550       -7.4114028357      -27.5790364543  TIP3      1719            0.0000000000
     16318      1816  TIP3      OH2           -13.6955303456       -9.2791878477      -27.1140315556  TIP3      1720            0.0000000000
     16319      1816  TIP3      H1            -14.4441160017       -8.9800714877      -27.6644769939  TIP3      1720            0.0000000000
     16320      1816  TIP3      H2            -13.0514884494       -8.5676136215      -27.2801147048  TIP3      1720            0.0000000000
     16321      1817  TIP3      OH2           -11.6499682710       -7.1987565642      -27.4505266134  TIP3      1721            0.0000000000
     16322      1817  TIP3      H1            -11.5769823809       -6.2977850254      -27.8055787504  TIP3      1721            0.0000000000
     16323      1817  TIP3      H2            -11.3036277147       -7.6981316408      -28.2281532483  TIP3      1721            0.0000000000
     16324      1818  TIP3      OH2           -23.2133426315       -8.4912394104      -29.4113931092  TIP3      1722            0.0000000000
     16325      1818  TIP3      H1            -23.5832202350       -9.0214215922      -28.6734379789  TIP3      1722            0.0000000000
     16326      1818  TIP3      H2            -22.4785868498       -9.0806252669      -29.6877791546  TIP3      1722            0.0000000000
     16327      1819  TIP3      OH2           -21.2239691335       -9.9376749771      -30.7698364261  TIP3      1723            0.0000000000
     16328      1819  TIP3      H1            -21.4323652899      -10.8601383842      -30.5013458831  TIP3      1723            0.0000000000
     16329      1819  TIP3      H2            -20.3402053222       -9.8045019653      -30.3439468379  TIP3      1723            0.0000000000
     16330      1820  TIP3      OH2           -18.8595319264       -9.5813834302      -29.5561372764  TIP3      1724            0.0000000000
     16331      1820  TIP3      H1            -18.5677017611      -10.5069818891      -29.4871245667  TIP3      1724            0.0000000000
     16332      1820  TIP3      H2            -18.5964272730       -9.1966247967      -28.7030815365  TIP3      1724            0.0000000000
     16333      1821  TIP3      OH2           -15.7040227658      -23.0450439264      -30.7466115280  TIP3      1725            0.0000000000
     16334      1821  TIP3      H1            -16.4112358345      -23.7261595553      -30.7346895725  TIP3      1725            0.0000000000
     16335      1821  TIP3      H2            -14.9323827016      -23.5761560246      -31.0229192554  TIP3      1725            0.0000000000
     16336      1822  TIP3      OH2           -10.7135273302      -24.6523531855      -30.8576147679  TIP3      1726            0.0000000000
     16337      1822  TIP3      H1             -9.9225588228      -24.7318860746      -31.4306706910  TIP3      1726            0.0000000000
     16338      1822  TIP3      H2            -11.4490118713      -24.8662025636      -31.4530248213  TIP3      1726            0.0000000000
     16339      1823  TIP3      OH2            -8.4549856226      -24.8054661625      -32.6044722490  TIP3      1727            0.0000000000
     16340      1823  TIP3      H1             -7.9031911854      -25.4595767129      -33.0515528740  TIP3      1727            0.0000000000
     16341      1823  TIP3      H2             -7.8483783006      -24.0274709640      -32.4916196735  TIP3      1727            0.0000000000
     16342      1824  TIP3      OH2           -22.8999571993      -25.2663421305      -33.7459946156  TIP3      1728            0.0000000000
     16343      1824  TIP3      H1            -23.7516391912      -25.0457094014      -34.1738810266  TIP3      1728            0.0000000000
     16344      1824  TIP3      H2            -22.9230330334      -26.2367242798      -33.7536028402  TIP3      1728            0.0000000000
     16345      1825  TIP3      OH2           -24.2930728036      -24.8663149239      -37.2060123220  TIP3      1729            0.0000000000
     16346      1825  TIP3      H1            -23.9838783472      -25.2992539165      -38.0316557056  TIP3      1729            0.0000000000
     16347      1825  TIP3      H2            -25.2423646190      -24.9140403102      -37.3578673515  TIP3      1729            0.0000000000
     16348      1826  TIP3      OH2           -18.5063103260      -24.3188265891      -33.4281261969  TIP3      1730            0.0000000000
     16349      1826  TIP3      H1            -17.7271007880      -24.3401032457      -34.0184812916  TIP3      1730            0.0000000000
     16350      1826  TIP3      H2            -18.0839578567      -24.6060677658      -32.5890570654  TIP3      1730            0.0000000000
     16351      1827  TIP3      OH2           -13.3758780123      -24.8671809405      -31.9125092250  TIP3      1731            0.0000000000
     16352      1827  TIP3      H1            -13.3750545437      -24.8598427968      -32.8834613855  TIP3      1731            0.0000000000
     16353      1827  TIP3      H2            -13.4141806470      -25.8199952381      -31.7171316424  TIP3      1731            0.0000000000
     16354      1828  TIP3      OH2           -11.5916975961      -24.7836028422      -36.5444756722  TIP3      1732            0.0000000000
     16355      1828  TIP3      H1            -12.2974078082      -24.1240792477      -36.3915797451  TIP3      1732            0.0000000000
     16356      1828  TIP3      H2            -11.7730334249      -25.3972649211      -35.8056191152  TIP3      1732            0.0000000000
     16357      1829  TIP3      OH2           -24.6206459372       -8.8733485768      -36.0873429804  TIP3      1733            0.0000000000
     16358      1829  TIP3      H1            -25.5096745136       -8.8178815054      -36.4865352018  TIP3      1733            0.0000000000
     16359      1829  TIP3      H2            -24.2799395168       -8.0065798302      -36.4083823309  TIP3      1733            0.0000000000
     16360      1830  TIP3      OH2           -22.7980189627      -22.9264827316      -39.2949017019  TIP3      1734            0.0000000000
     16361      1830  TIP3      H1            -22.4091712801      -23.8078080688      -39.2096805109  TIP3      1734            0.0000000000
     16362      1830  TIP3      H2            -22.6348440156      -22.5630565848      -38.4140665245  TIP3      1734            0.0000000000
     16363      1831  TIP3      OH2           -17.5311442641      -23.1200868389      -36.4611006906  TIP3      1735            0.0000000000
     16364      1831  TIP3      H1            -16.8664246056      -23.5004651970      -35.8642460246  TIP3      1735            0.0000000000
     16365      1831  TIP3      H2            -17.2719867094      -22.1799474847      -36.3453589637  TIP3      1735            0.0000000000
     16366      1832  TIP3      OH2           -15.5330804416       -7.4854110992      -38.2331294877  TIP3      1736            0.0000000000
     16367      1832  TIP3      H1            -14.5748326092       -7.7246523560      -38.2248937197  TIP3      1736            0.0000000000
     16368      1832  TIP3      H2            -15.8059263577       -8.1160294617      -38.9218700426  TIP3      1736            0.0000000000
     16369      1833  TIP3      OH2            -9.0073227929       -8.6171818970      -35.1743359925  TIP3      1737            0.0000000000
     16370      1833  TIP3      H1             -8.8260175501       -9.5316641468      -35.5165315733  TIP3      1737            0.0000000000
     16371      1833  TIP3      H2             -9.0310949898       -8.1193021104      -36.0179458842  TIP3      1737            0.0000000000
     16372      1834  TIP3      OH2           -23.2753639033      -24.6441352484      -23.9541702211  TIP3      1738            0.0000000000
     16373      1834  TIP3      H1            -23.4418404639      -25.3538011741      -24.5955645088  TIP3      1738            0.0000000000
     16374      1834  TIP3      H2            -22.4142105586      -24.9075178975      -23.5817520924  TIP3      1738            0.0000000000
     16375      1835  TIP3      OH2           -21.0740884828      -25.3596792950      -22.4403815486  TIP3      1739            0.0000000000
     16376      1835  TIP3      H1            -20.1727423700      -25.6252429362      -22.1721403987  TIP3      1739            0.0000000000
     16377      1835  TIP3      H2            -21.5132420304      -25.2145778019      -21.5972328630  TIP3      1739            0.0000000000
     16378      1836  TIP3      OH2           -21.9697659978       -8.8459662015      -38.0133751010  TIP3      1740            0.0000000000
     16379      1836  TIP3      H1            -22.0811997804       -8.0007927409      -37.5445904268  TIP3      1740            0.0000000000
     16380      1836  TIP3      H2            -21.0172351832       -8.9801195181      -38.0861586034  TIP3      1740            0.0000000000
     16381      1837  TIP3      OH2           -12.6802372701       26.0851497028      -22.5175025032  TIP3      1741            0.0000000000
     16382      1837  TIP3      H1            -12.9628962142       25.1662848897      -22.3015930805  TIP3      1741            0.0000000000
     16383      1837  TIP3      H2            -11.7599319247       25.9098620301      -22.7812596301  TIP3      1741            0.0000000000
     16384      1838  TIP3      OH2             5.2193490653      -15.7692658535      -33.1669089482  TIP3      1742            0.0000000000
     16385      1838  TIP3      H1              5.1557019189      -14.8792660920      -32.7797378869  TIP3      1742            0.0000000000
     16386      1838  TIP3      H2              4.4756971483      -15.7397243808      -33.7894106869  TIP3      1742            0.0000000000
     16387      1839  TIP3      OH2             3.8253128982      -17.1132188748      -29.9555318672  TIP3      1743            0.0000000000
     16388      1839  TIP3      H1              3.8751224674      -17.4880491494      -29.0487408167  TIP3      1743            0.0000000000
     16389      1839  TIP3      H2              3.0984867906      -17.6199095850      -30.3476303428  TIP3      1743            0.0000000000
     16390      1840  TIP3      OH2            -4.0178878430      -17.2981740638      -28.0560549302  TIP3      1744            0.0000000000
     16391      1840  TIP3      H1             -4.0318363080      -18.2023510903      -27.6727624578  TIP3      1744            0.0000000000
     16392      1840  TIP3      H2             -3.1694214010      -17.3027025952      -28.5542017650  TIP3      1744            0.0000000000
     16393      1841  TIP3      OH2             7.0818201949      -13.7503265690      -31.1793947312  TIP3      1745            0.0000000000
     16394      1841  TIP3      H1              6.9130751809      -14.4519751854      -30.5279679814  TIP3      1745            0.0000000000
     16395      1841  TIP3      H2              7.3847660582      -13.0182563699      -30.5950876150  TIP3      1745            0.0000000000
     16396      1842  TIP3      OH2            -3.2137563201      -12.5679596383      -30.2129195031  TIP3      1746            0.0000000000
     16397      1842  TIP3      H1             -3.4327799792      -13.5015727309      -30.4200195045  TIP3      1746            0.0000000000
     16398      1842  TIP3      H2             -2.3091550187      -12.7052128587      -29.8948489879  TIP3      1746            0.0000000000
     16399      1843  TIP3      OH2            -6.2679314706      -19.4337917585      -34.1411822997  TIP3      1747            0.0000000000
     16400      1843  TIP3      H1             -6.4654087167      -18.5171620235      -33.8855646540  TIP3      1747            0.0000000000
     16401      1843  TIP3      H2             -7.0900456265      -19.7180721016      -34.5837714732  TIP3      1747            0.0000000000
     16402      1844  TIP3      OH2            -5.4568561946      -16.7554604453      -31.8220948159  TIP3      1748            0.0000000000
     16403      1844  TIP3      H1             -5.0085637361      -17.6047241101      -31.6079327926  TIP3      1748            0.0000000000
     16404      1844  TIP3      H2             -5.0877303148      -16.4749837690      -32.6608804303  TIP3      1748            0.0000000000
     16405      1845  TIP3      OH2             4.6535240441       -8.2720203178      -31.3684945250  TIP3      1749            0.0000000000
     16406      1845  TIP3      H1              5.2533999421       -8.9298472654      -31.8029794990  TIP3      1749            0.0000000000
     16407      1845  TIP3      H2              4.3982160161       -8.7613832811      -30.5739658778  TIP3      1749            0.0000000000
     16408      1846  TIP3      OH2             2.0702456439      -14.8880978761      -28.9356307976  TIP3      1750            0.0000000000
     16409      1846  TIP3      H1              2.5218287341      -15.6035904203      -29.4179134241  TIP3      1750            0.0000000000
     16410      1846  TIP3      H2              2.8352584861      -14.3902974498      -28.5629821143  TIP3      1750            0.0000000000
     16411      1847  TIP3      OH2            10.6471943768      -23.1757934596      -28.5834317069  TIP3      1751            0.0000000000
     16412      1847  TIP3      H1             10.7432304593      -22.5006128403      -27.8856441275  TIP3      1751            0.0000000000
     16413      1847  TIP3      H2             11.2916949433      -22.8266647074      -29.2288851036  TIP3      1751            0.0000000000
     16414      1848  TIP3      OH2             5.6870565276      -19.7959370686      -28.5720235915  TIP3      1752            0.0000000000
     16415      1848  TIP3      H1              5.7622401886      -20.7630541018      -28.5411868197  TIP3      1752            0.0000000000
     16416      1848  TIP3      H2              5.4578481564      -19.6961140981      -29.5143666547  TIP3      1752            0.0000000000
     16417      1849  TIP3      OH2            -1.3095791230      -21.8444307000      -31.7785441488  TIP3      1753            0.0000000000
     16418      1849  TIP3      H1             -1.1928044271      -21.1143542596      -32.4153448584  TIP3      1753            0.0000000000
     16419      1849  TIP3      H2             -1.8089758430      -22.4805669175      -32.3319975153  TIP3      1753            0.0000000000
     16420      1850  TIP3      OH2             5.8988143207      -21.7292714009      -33.1601540544  TIP3      1754            0.0000000000
     16421      1850  TIP3      H1              6.4291183916      -21.8203018959      -32.3288043048  TIP3      1754            0.0000000000
     16422      1850  TIP3      H2              6.4926616957      -21.1070129797      -33.6131165458  TIP3      1754            0.0000000000
     16423      1851  TIP3      OH2            -4.6054834390      -19.0241066535      -30.8118509445  TIP3      1755            0.0000000000
     16424      1851  TIP3      H1             -4.0081841189      -19.6139269852      -30.3098412216  TIP3      1755            0.0000000000
     16425      1851  TIP3      H2             -4.6997487311      -19.5763524071      -31.6162572787  TIP3      1755            0.0000000000
     16426      1852  TIP3      OH2            -0.3644441407      -17.7412638059      -31.5269317565  TIP3      1756            0.0000000000
     16427      1852  TIP3      H1              0.4963642432      -18.1253320073      -31.2405520535  TIP3      1756            0.0000000000
     16428      1852  TIP3      H2             -0.6772802985      -18.4496229823      -32.1339250992  TIP3      1756            0.0000000000
     16429      1853  TIP3      OH2            11.1118177625      -21.3672215423      -26.2799126636  TIP3      1757            0.0000000000
     16430      1853  TIP3      H1             10.6186717932      -20.5755530201      -26.5967538914  TIP3      1757            0.0000000000
     16431      1853  TIP3      H2             10.7268451069      -21.4702121627      -25.3941132301  TIP3      1757            0.0000000000
     16432      1854  TIP3      OH2            -2.3838392093      -22.6806366259      -27.6783887651  TIP3      1758            0.0000000000
     16433      1854  TIP3      H1             -2.9375900042      -22.1366462327      -28.2614932941  TIP3      1758            0.0000000000
     16434      1854  TIP3      H2             -2.9516575659      -22.7189774900      -26.8798625856  TIP3      1758            0.0000000000
     16435      1855  TIP3      OH2             4.3641979299      -13.2175583374      -34.1891193345  TIP3      1759            0.0000000000
     16436      1855  TIP3      H1              4.1846784468      -13.2183624680      -35.1521128639  TIP3      1759            0.0000000000
     16437      1855  TIP3      H2              4.2856993513      -12.2564800299      -33.9974257145  TIP3      1759            0.0000000000
     16438      1856  TIP3      OH2            -0.2935198974      -15.2086864904      -27.7616928620  TIP3      1760            0.0000000000
     16439      1856  TIP3      H1             -0.8524835163      -14.4114533268      -27.5832960103  TIP3      1760            0.0000000000
     16440      1856  TIP3      H2              0.5207088695      -14.8111739777      -28.1432357153  TIP3      1760            0.0000000000
     16441      1857  TIP3      OH2             7.7598171417      -21.5669439972      -31.2516166676  TIP3      1761            0.0000000000
     16442      1857  TIP3      H1              8.0447850913      -22.1527081790      -30.5371342619  TIP3      1761            0.0000000000
     16443      1857  TIP3      H2              8.4695399826      -20.9080030599      -31.2416312054  TIP3      1761            0.0000000000
     16444      1858  TIP3      OH2            -2.8969644146      -20.8197238119      -29.7859368364  TIP3      1762            0.0000000000
     16445      1858  TIP3      H1             -2.2501595447      -20.2933358080      -29.2465141444  TIP3      1762            0.0000000000
     16446      1858  TIP3      H2             -2.3296158701      -21.1700795557      -30.5117267832  TIP3      1762            0.0000000000
     16447      1859  TIP3      OH2            -1.8118389154      -13.2191384137      -26.8444130965  TIP3      1763            0.0000000000
     16448      1859  TIP3      H1             -1.8475464604      -12.2471327790      -26.8084935233  TIP3      1763            0.0000000000
     16449      1859  TIP3      H2             -2.6053204021      -13.4667440343      -26.3197952562  TIP3      1763            0.0000000000
     16450      1860  TIP3      OH2            -5.8981411982      -13.7019502255      -35.7128637411  TIP3      1764            0.0000000000
     16451      1860  TIP3      H1             -5.9193550286      -13.2042343021      -36.5508772596  TIP3      1764            0.0000000000
     16452      1860  TIP3      H2             -5.8050427056      -12.9682322697      -35.0626887888  TIP3      1764            0.0000000000
     16453      1861  TIP3      OH2             7.8494087987      -11.7268814783      -29.5587958228  TIP3      1765            0.0000000000
     16454      1861  TIP3      H1              6.9144222085      -11.7480972258      -29.2507483768  TIP3      1765            0.0000000000
     16455      1861  TIP3      H2              7.8848211310      -10.7854340643      -29.8034972466  TIP3      1765            0.0000000000
     16456      1862  TIP3      OH2             8.2809166525      -22.4453108026      -27.2213349100  TIP3      1766            0.0000000000
     16457      1862  TIP3      H1              7.5460777562      -22.2968770255      -27.8520815973  TIP3      1766            0.0000000000
     16458      1862  TIP3      H2              8.9018311545      -22.9566392527      -27.7722736920  TIP3      1766            0.0000000000
     16459      1863  TIP3      OH2             1.3998033083      -24.9163305193      -30.6471207879  TIP3      1767            0.0000000000
     16460      1863  TIP3      H1              1.6492168540      -25.6037407228      -30.0146727713  TIP3      1767            0.0000000000
     16461      1863  TIP3      H2              0.6861293468      -24.4929170433      -30.1104321846  TIP3      1767            0.0000000000
     16462      1864  TIP3      OH2             6.3983211896       -9.9624838028      -32.4071870129  TIP3      1768            0.0000000000
     16463      1864  TIP3      H1              6.5319322020      -10.7031259210      -33.0258922307  TIP3      1768            0.0000000000
     16464      1864  TIP3      H2              7.1176259949       -9.3399382413      -32.6756415692  TIP3      1768            0.0000000000
     16465      1865  TIP3      OH2             7.2249009657      -12.1935713131      -34.2148076439  TIP3      1769            0.0000000000
     16466      1865  TIP3      H1              7.1644751742      -12.9235057509      -34.8588290211  TIP3      1769            0.0000000000
     16467      1865  TIP3      H2              7.0898387955      -12.6559868832      -33.3703773609  TIP3      1769            0.0000000000
     16468      1866  TIP3      OH2             9.0523730063      -13.5166715700      -25.5320705294  TIP3      1770            0.0000000000
     16469      1866  TIP3      H1              8.9927331392      -14.2263467172      -26.2063478611  TIP3      1770            0.0000000000
     16470      1866  TIP3      H2              9.2789373955      -12.7919238572      -26.1487590212  TIP3      1770            0.0000000000
     16471      1867  TIP3      OH2             3.6065410255      -16.6210737390      -35.7957505253  TIP3      1771            0.0000000000
     16472      1867  TIP3      H1              3.1152284901      -15.8467396607      -36.1321900473  TIP3      1771            0.0000000000
     16473      1867  TIP3      H2              4.3403025453      -16.7286496915      -36.4320744136  TIP3      1771            0.0000000000
     16474      1868  TIP3      OH2             3.6894284877      -18.4271392496      -38.7712079615  TIP3      1772            0.0000000000
     16475      1868  TIP3      H1              4.4528324418      -17.8817459831      -38.5060503629  TIP3      1772            0.0000000000
     16476      1868  TIP3      H2              4.1052551430      -19.2705126997      -38.9826745380  TIP3      1772            0.0000000000
     16477      1869  TIP3      OH2            11.0989484181      -17.1689589288      -27.7194508901  TIP3      1773            0.0000000000
     16478      1869  TIP3      H1             10.4404254388      -16.4482356218      -27.7770499347  TIP3      1773            0.0000000000
     16479      1869  TIP3      H2             11.7949352978      -16.8559987497      -28.3391829932  TIP3      1773            0.0000000000
     16480      1870  TIP3      OH2             7.2835344039      -16.7804494198      -34.8449347682  TIP3      1774            0.0000000000
     16481      1870  TIP3      H1              6.5404690542      -16.3746509115      -34.3405855340  TIP3      1774            0.0000000000
     16482      1870  TIP3      H2              7.8603183796      -17.0675921471      -34.0944765236  TIP3      1774            0.0000000000
     16483      1871  TIP3      OH2             7.1464828426      -18.0918637392      -25.3269086596  TIP3      1775            0.0000000000
     16484      1871  TIP3      H1              6.7254885199      -17.2286253930      -25.1616901770  TIP3      1775            0.0000000000
     16485      1871  TIP3      H2              6.5798389520      -18.4260735303      -26.0386708871  TIP3      1775            0.0000000000
     16486      1872  TIP3      OH2            -1.5385824959      -15.9583538970      -33.0270381805  TIP3      1776            0.0000000000
     16487      1872  TIP3      H1             -1.5495970598      -16.4022536189      -33.8985622990  TIP3      1776            0.0000000000
     16488      1872  TIP3      H2             -0.9670928024      -16.5511957719      -32.4950690770  TIP3      1776            0.0000000000
     16489      1873  TIP3      OH2             0.0172727402      -12.6393928121      -30.1024229141  TIP3      1777            0.0000000000
     16490      1873  TIP3      H1             -0.0316695506      -12.8559560095      -31.0431003574  TIP3      1777            0.0000000000
     16491      1873  TIP3      H2              0.7162697711      -13.2387126126      -29.7927704983  TIP3      1777            0.0000000000
     16492      1874  TIP3      OH2            -1.4861853077      -17.1675480315      -29.1123103134  TIP3      1778            0.0000000000
     16493      1874  TIP3      H1             -1.0344506015      -17.1867710619      -29.9896942233  TIP3      1778            0.0000000000
     16494      1874  TIP3      H2             -1.0005496919      -16.4538508021      -28.6175422386  TIP3      1778            0.0000000000
     16495      1875  TIP3      OH2             5.4700202735      -11.6398430701      -28.5056287755  TIP3      1779            0.0000000000
     16496      1875  TIP3      H1              5.1625157348      -10.9707978057      -27.8676499804  TIP3      1779            0.0000000000
     16497      1875  TIP3      H2              5.3527748431      -12.4728463833      -28.0058360069  TIP3      1779            0.0000000000
     16498      1876  TIP3      OH2            -0.2769285718      -12.5857848045      -24.6228635726  TIP3      1780            0.0000000000
     16499      1876  TIP3      H1             -0.9952470917      -12.0249848892      -24.2445366520  TIP3      1780            0.0000000000
     16500      1876  TIP3      H2             -0.7811553165      -13.2698892588      -25.1020595724  TIP3      1780            0.0000000000
     16501      1877  TIP3      OH2             5.8563398663      -17.3442147080      -37.0251928041  TIP3      1781            0.0000000000
     16502      1877  TIP3      H1              6.3992354851      -17.1366569784      -36.2254892561  TIP3      1781            0.0000000000
     16503      1877  TIP3      H2              6.2562223306      -16.7024036186      -37.6647335069  TIP3      1781            0.0000000000
     16504      1878  TIP3      OH2            -3.2883455076      -16.0100222256      -25.2997083380  TIP3      1782            0.0000000000
     16505      1878  TIP3      H1             -3.6072877428      -15.1011161919      -25.1799551860  TIP3      1782            0.0000000000
     16506      1878  TIP3      H2             -4.0832019352      -16.5493896823      -25.1739411500  TIP3      1782            0.0000000000
     16507      1879  TIP3      OH2             3.8283836619      -10.5405927058      -33.8548512511  TIP3      1783            0.0000000000
     16508      1879  TIP3      H1              3.6148046827      -10.2908201577      -32.9474696246  TIP3      1783            0.0000000000
     16509      1879  TIP3      H2              3.0794979716      -10.1698722390      -34.3583633371  TIP3      1783            0.0000000000
     16510      1880  TIP3      OH2            -2.1544017027      -10.5982263101      -24.3956342779  TIP3      1784            0.0000000000
     16511      1880  TIP3      H1             -2.2472574688      -10.4784976295      -25.3592365753  TIP3      1784            0.0000000000
     16512      1880  TIP3      H2             -3.0488017379      -10.7857286355      -24.0780216211  TIP3      1784            0.0000000000
     16513      1881  TIP3      OH2            10.0017569318      -25.5285107907      -37.0894396669  TIP3      1785            0.0000000000
     16514      1881  TIP3      H1              9.0406910833      -25.3766404340      -37.0913063848  TIP3      1785            0.0000000000
     16515      1881  TIP3      H2             10.3717247940      -24.6748853951      -37.3877320015  TIP3      1785            0.0000000000
     16516      1882  TIP3      OH2            -2.2928358104      -17.1758393622      -35.4212871084  TIP3      1786            0.0000000000
     16517      1882  TIP3      H1             -2.8189314648      -16.3625601581      -35.4719247538  TIP3      1786            0.0000000000
     16518      1882  TIP3      H2             -2.9406824006      -17.8261792253      -35.7343459990  TIP3      1786            0.0000000000
     16519      1883  TIP3      OH2            10.7397063686      -11.2936584715      -38.8027475733  TIP3      1787            0.0000000000
     16520      1883  TIP3      H1             10.9789244714      -10.3543224623      -38.6410921992  TIP3      1787            0.0000000000
     16521      1883  TIP3      H2             11.6210687391      -11.7169271997      -38.7174970676  TIP3      1787            0.0000000000
     16522      1884  TIP3      OH2            -6.1188161328      -14.5238056215      -26.6936280137  TIP3      1788            0.0000000000
     16523      1884  TIP3      H1             -6.3821934469      -14.6167557994      -27.6263177777  TIP3      1788            0.0000000000
     16524      1884  TIP3      H2             -5.7683138023      -15.4261179142      -26.5865016714  TIP3      1788            0.0000000000
     16525      1885  TIP3      OH2            -6.7465302058      -11.7896774193      -29.8893522484  TIP3      1789            0.0000000000
     16526      1885  TIP3      H1             -5.8488329573      -12.1368767340      -29.7632250353  TIP3      1789            0.0000000000
     16527      1885  TIP3      H2             -6.7575625634      -11.0577220767      -29.2481723924  TIP3      1789            0.0000000000
     16528      1886  TIP3      OH2            11.4363266282      -10.9250175094      -24.1708242676  TIP3      1790            0.0000000000
     16529      1886  TIP3      H1             11.2192738342      -11.8692520689      -24.2150619797  TIP3      1790            0.0000000000
     16530      1886  TIP3      H2             10.6354946120      -10.5618763078      -23.7355567716  TIP3      1790            0.0000000000
     16531      1887  TIP3      OH2             2.0078254821      -11.0867197696      -24.6610327687  TIP3      1791            0.0000000000
     16532      1887  TIP3      H1              1.8126498839      -10.2673563492      -24.1858440129  TIP3      1791            0.0000000000
     16533      1887  TIP3      H2              1.1172215707      -11.5021712258      -24.7535642109  TIP3      1791            0.0000000000
     16534      1888  TIP3      OH2             2.5459791839       -7.6024857322      -35.2474105330  TIP3      1792            0.0000000000
     16535      1888  TIP3      H1              2.6543236468       -7.6212388450      -36.2192827960  TIP3      1792            0.0000000000
     16536      1888  TIP3      H2              2.9829311468       -6.7618871689      -34.9958930015  TIP3      1792            0.0000000000
     16537      1889  TIP3      OH2            -3.4316048865       -9.3291151621      -33.0704037992  TIP3      1793            0.0000000000
     16538      1889  TIP3      H1             -3.1517490947       -9.7099369414      -32.2115375517  TIP3      1793            0.0000000000
     16539      1889  TIP3      H2             -4.3899817873       -9.4707667263      -33.0289978107  TIP3      1793            0.0000000000
     16540      1890  TIP3      OH2             6.0784488417       -7.6202667614      -37.9262522970  TIP3      1794            0.0000000000
     16541      1890  TIP3      H1              6.0079523539       -8.4796159659      -38.3982900776  TIP3      1794            0.0000000000
     16542      1890  TIP3      H2              6.1014668372       -7.9265964055      -36.9992465238  TIP3      1794            0.0000000000
     16543      1891  TIP3      OH2             5.8703459137       -8.4507819596      -35.2863035447  TIP3      1795            0.0000000000
     16544      1891  TIP3      H1              4.9051314962       -8.4493007057      -35.3630989162  TIP3      1795            0.0000000000
     16545      1891  TIP3      H2              6.0216032744       -9.3185219046      -34.8699420997  TIP3      1795            0.0000000000
     16546      1892  TIP3      OH2            -4.0928675410      -13.3526531371      -25.3231635189  TIP3      1796            0.0000000000
     16547      1892  TIP3      H1             -4.5182087595      -12.9660120923      -24.5419173787  TIP3      1796            0.0000000000
     16548      1892  TIP3      H2             -4.8899313848      -13.6644786126      -25.8044756492  TIP3      1796            0.0000000000
     16549      1893  TIP3      OH2            -1.0165070597      -24.2079525746      -29.4603445159  TIP3      1797            0.0000000000
     16550      1893  TIP3      H1             -1.7366008061      -24.5441389354      -30.0247348530  TIP3      1797            0.0000000000
     16551      1893  TIP3      H2             -1.4537598623      -23.4146065640      -29.1039772158  TIP3      1797            0.0000000000
     16552      1894  TIP3      OH2             3.9558883276      -24.6355082434      -26.2663023421  TIP3      1798            0.0000000000
     16553      1894  TIP3      H1              3.2777556985      -24.8849689726      -25.5997154668  TIP3      1798            0.0000000000
     16554      1894  TIP3      H2              3.4863397207      -24.9076765865      -27.0645731250  TIP3      1798            0.0000000000
     16555      1895  TIP3      OH2             5.7894485386      -20.9330899102      -24.8134738120  TIP3      1799            0.0000000000
     16556      1895  TIP3      H1              5.4414420130      -21.2019065989      -23.9197526603  TIP3      1799            0.0000000000
     16557      1895  TIP3      H2              6.2708523744      -20.1328044636      -24.5566136374  TIP3      1799            0.0000000000
     16558      1896  TIP3      OH2             6.7908682244      -15.8416057460      -39.0094999420  TIP3      1800            0.0000000000
     16559      1896  TIP3      H1              7.0614950196      -16.4905269072      -39.6757527986  TIP3      1800            0.0000000000
     16560      1896  TIP3      H2              7.6553917304      -15.4134728105      -38.8415408703  TIP3      1800            0.0000000000
     16561      1897  TIP3      OH2             3.1465867314      -22.6562226736      -38.4755177303  TIP3      1801            0.0000000000
     16562      1897  TIP3      H1              2.4099786466      -22.6148899453      -37.8530026980  TIP3      1801            0.0000000000
     16563      1897  TIP3      H2              2.6749079618      -22.7411215392      -39.3211328265  TIP3      1801            0.0000000000
     16564      1898  TIP3      OH2            -1.2822941829      -19.6157722493      -28.0505368693  TIP3      1802            0.0000000000
     16565      1898  TIP3      H1             -1.4780581697      -19.4043487460      -27.1150689617  TIP3      1802            0.0000000000
     16566      1898  TIP3      H2             -1.3851633693      -18.7088639246      -28.4177195271  TIP3      1802            0.0000000000
     16567      1899  TIP3      OH2            -1.3285758975      -19.6424894742      -33.3400568084  TIP3      1803            0.0000000000
     16568      1899  TIP3      H1             -2.2610510601      -19.6748978994      -33.6002603601  TIP3      1803            0.0000000000
     16569      1899  TIP3      H2             -0.8873656576      -19.7293079875      -34.2236117780  TIP3      1803            0.0000000000
     16570      1900  TIP3      OH2             4.4899611585      -18.7676758939      -34.3152281149  TIP3      1804            0.0000000000
     16571      1900  TIP3      H1              4.1204290677      -17.9586170703      -34.7376777018  TIP3      1804            0.0000000000
     16572      1900  TIP3      H2              5.0429712473      -19.1049173180      -35.0397104379  TIP3      1804            0.0000000000
     16573      1901  TIP3      OH2             5.3498273391      -19.2274652699      -31.3494424497  TIP3      1805            0.0000000000
     16574      1901  TIP3      H1              5.2044268993      -18.3804471465      -31.8123092923  TIP3      1805            0.0000000000
     16575      1901  TIP3      H2              5.1770683838      -19.8353419852      -32.0811571533  TIP3      1805            0.0000000000
     16576      1902  TIP3      OH2            -4.0559083297      -19.7255354272      -26.7865784524  TIP3      1806            0.0000000000
     16577      1902  TIP3      H1             -3.4786668485      -19.3958262465      -26.0739552503  TIP3      1806            0.0000000000
     16578      1902  TIP3      H2             -4.2676816827      -20.6232746272      -26.4770011940  TIP3      1806            0.0000000000
     16579      1903  TIP3      OH2            -0.2673824754      -21.4185722703      -38.8332658190  TIP3      1807            0.0000000000
     16580      1903  TIP3      H1             -0.9351067788      -21.9612844358      -38.3889512291  TIP3      1807            0.0000000000
     16581      1903  TIP3      H2             -0.7151212250      -20.5608457962      -38.9262384291  TIP3      1807            0.0000000000
     16582      1904  TIP3      OH2            -7.1488379832      -22.4760080504      -32.3977493624  TIP3      1808            0.0000000000
     16583      1904  TIP3      H1             -6.7405070887      -22.2384447250      -31.5514303566  TIP3      1808            0.0000000000
     16584      1904  TIP3      H2             -6.5315951023      -22.0714598235      -33.0289014062  TIP3      1808            0.0000000000
     16585      1905  TIP3      OH2            -5.7906281706      -21.8850622559      -36.5869644607  TIP3      1809            0.0000000000
     16586      1905  TIP3      H1             -5.2573386852      -21.4584360065      -37.2906284953  TIP3      1809            0.0000000000
     16587      1905  TIP3      H2             -6.4044570546      -21.1374097953      -36.3936587574  TIP3      1809            0.0000000000
     16588      1906  TIP3      OH2             4.1393875366      -17.9444381024      -27.4005700824  TIP3      1810            0.0000000000
     16589      1906  TIP3      H1              4.8242576786      -18.6253407003      -27.5838182691  TIP3      1810            0.0000000000
     16590      1906  TIP3      H2              3.5758152208      -18.4314172420      -26.7514422102  TIP3      1810            0.0000000000
     16591      1907  TIP3      OH2             1.7600938634      -22.1048849089      -32.5802493984  TIP3      1811            0.0000000000
     16592      1907  TIP3      H1              0.8474050539      -22.3854895101      -32.3625457159  TIP3      1811            0.0000000000
     16593      1907  TIP3      H2              2.2170998131      -22.1620270479      -31.7196296843  TIP3      1811            0.0000000000
     16594      1908  TIP3      OH2            -4.1706557583      -20.6256527970      -33.0348831959  TIP3      1812            0.0000000000
     16595      1908  TIP3      H1             -4.7682965613      -20.2993334731      -33.7415952862  TIP3      1812            0.0000000000
     16596      1908  TIP3      H2             -3.7745105152      -21.4349570784      -33.4189182000  TIP3      1812            0.0000000000
     16597      1909  TIP3      OH2            -0.0395458504      -20.0624248561      -35.6208696063  TIP3      1813            0.0000000000
     16598      1909  TIP3      H1              0.9345440425      -19.9899882539      -35.6354016736  TIP3      1813            0.0000000000
     16599      1909  TIP3      H2             -0.3240819138      -19.6154784687      -36.4298508946  TIP3      1813            0.0000000000
     16600      1910  TIP3      OH2             6.0609711203      -22.5872570176      -28.9314175656  TIP3      1814            0.0000000000
     16601      1910  TIP3      H1              5.2684522227      -22.5739192680      -28.3522772166  TIP3      1814            0.0000000000
     16602      1910  TIP3      H2              5.7477438624      -23.1415595374      -29.6611010010  TIP3      1814            0.0000000000
     16603      1911  TIP3      OH2            -1.9606303029      -18.8552376018      -38.2741554693  TIP3      1815            0.0000000000
     16604      1911  TIP3      H1             -2.0884157840      -18.6435116222      -39.2126004955  TIP3      1815            0.0000000000
     16605      1911  TIP3      H2             -1.0279259976      -18.6004995584      -38.1493884336  TIP3      1815            0.0000000000
     16606      1912  TIP3      OH2             1.8396941034      -19.0601098168      -30.6141489519  TIP3      1816            0.0000000000
     16607      1912  TIP3      H1              2.6823849848      -19.4355627483      -30.9071579522  TIP3      1816            0.0000000000
     16608      1912  TIP3      H2              1.3185825106      -19.8683797767      -30.4859585738  TIP3      1816            0.0000000000
     16609      1913  TIP3      OH2            -2.8010690803      -23.0764063774      -33.6506026730  TIP3      1817            0.0000000000
     16610      1913  TIP3      H1             -3.2741210054      -23.7815215141      -33.1707211759  TIP3      1817            0.0000000000
     16611      1913  TIP3      H2             -2.1725958459      -23.5981026397      -34.1738489123  TIP3      1817            0.0000000000
     16612      1914  TIP3      OH2             0.8724224544      -21.0736826546      -28.2355394125  TIP3      1818            0.0000000000
     16613      1914  TIP3      H1              0.0235333581      -20.5804564027      -28.1369853586  TIP3      1818            0.0000000000
     16614      1914  TIP3      H2              1.5321339041      -20.3852678241      -28.0634390427  TIP3      1818            0.0000000000
     16615      1915  TIP3      OH2             1.8684923561      -14.3252865750      -35.9752731880  TIP3      1819            0.0000000000
     16616      1915  TIP3      H1              1.1319053713      -14.8476577668      -36.3516231058  TIP3      1819            0.0000000000
     16617      1915  TIP3      H2              1.4690527282      -14.1082653613      -35.0922009002  TIP3      1819            0.0000000000
     16618      1916  TIP3      OH2             9.0808494557      -15.1561830579      -27.7146156622  TIP3      1820            0.0000000000
     16619      1916  TIP3      H1              9.6430653968      -14.5769314413      -28.2821530867  TIP3      1820            0.0000000000
     16620      1916  TIP3      H2              8.4063241789      -15.4455830313      -28.3598949494  TIP3      1820            0.0000000000
     16621      1917  TIP3      OH2             5.7193321075      -21.6132956703      -38.5786965088  TIP3      1821            0.0000000000
     16622      1917  TIP3      H1              4.9165635144      -22.1698734674      -38.5139225645  TIP3      1821            0.0000000000
     16623      1917  TIP3      H2              5.6841175159      -21.0492731151      -37.7883323662  TIP3      1821            0.0000000000
     16624      1918  TIP3      OH2             2.4889339063      -14.3295590554      -24.9123465270  TIP3      1822            0.0000000000
     16625      1918  TIP3      H1              2.0150706514      -14.5798147934      -24.1011694728  TIP3      1822            0.0000000000
     16626      1918  TIP3      H2              2.3118260554      -13.3760692104      -24.9561014315  TIP3      1822            0.0000000000
     16627      1919  TIP3      OH2             6.1234661318      -19.9589938374      -36.2618216010  TIP3      1823            0.0000000000
     16628      1919  TIP3      H1              7.0055335879      -19.8091859312      -35.8731165819  TIP3      1823            0.0000000000
     16629      1919  TIP3      H2              6.0644344954      -19.1323129817      -36.7955787008  TIP3      1823            0.0000000000
     16630      1920  TIP3      OH2            -2.9652188576      -15.2492918456      -30.6524115720  TIP3      1824            0.0000000000
     16631      1920  TIP3      H1             -2.5897213693      -15.4662869253      -31.5292183862  TIP3      1824            0.0000000000
     16632      1920  TIP3      H2             -2.6938556071      -16.0038094059      -30.1023719787  TIP3      1824            0.0000000000
     16633      1921  TIP3      OH2             4.1430726325      -13.1155476834      -36.9890116519  TIP3      1825            0.0000000000
     16634      1921  TIP3      H1              3.6867297503      -12.2416274235      -36.9893375170  TIP3      1825            0.0000000000
     16635      1921  TIP3      H2              3.3882348531      -13.7176538318      -36.8381847971  TIP3      1825            0.0000000000
     16636      1922  TIP3      OH2            -6.0369134546      -17.3681708562      -25.2263146637  TIP3      1826            0.0000000000
     16637      1922  TIP3      H1             -6.5480053109      -17.8330454356      -24.5507771298  TIP3      1826            0.0000000000
     16638      1922  TIP3      H2             -6.3655064403      -17.7732202642      -26.0528533615  TIP3      1826            0.0000000000
     16639      1923  TIP3      OH2             0.4015472112      -17.4914582637      -23.4401194089  TIP3      1827            0.0000000000
     16640      1923  TIP3      H1              0.7912345448      -17.3062965647      -24.3097001539  TIP3      1827            0.0000000000
     16641      1923  TIP3      H2              1.1232180364      -17.3181179578      -22.8159785837  TIP3      1827            0.0000000000
     16642      1924  TIP3      OH2             5.7374496764      -12.1651024241      -25.2567889365  TIP3      1828            0.0000000000
     16643      1924  TIP3      H1              4.8883770667      -11.7035716719      -25.3081503386  TIP3      1828            0.0000000000
     16644      1924  TIP3      H2              6.0115942009      -11.9191212683      -24.3435789975  TIP3      1828            0.0000000000
     16645      1925  TIP3      OH2            10.6473391569      -19.6143263848      -36.1824521210  TIP3      1829            0.0000000000
     16646      1925  TIP3      H1             10.2193774506      -19.7434478142      -37.0666207325  TIP3      1829            0.0000000000
     16647      1925  TIP3      H2             10.9958980947      -18.7040299551      -36.2840846126  TIP3      1829            0.0000000000
     16648      1926  TIP3      OH2            11.2146502338      -14.2379273327      -24.0482752639  TIP3      1830            0.0000000000
     16649      1926  TIP3      H1             10.3057087612      -14.0682360865      -24.3805853787  TIP3      1830            0.0000000000
     16650      1926  TIP3      H2             11.7608473565      -14.1776797146      -24.8620132539  TIP3      1830            0.0000000000
     16651      1927  TIP3      OH2             9.8266615666      -11.3344768118      -36.2798439950  TIP3      1831            0.0000000000
     16652      1927  TIP3      H1              8.9405639953      -11.6429556579      -36.0386820316  TIP3      1831            0.0000000000
     16653      1927  TIP3      H2              9.8669962938      -11.5057622251      -37.2452431639  TIP3      1831            0.0000000000
     16654      1928  TIP3      OH2             7.0003775904      -16.0722209263      -29.6208762744  TIP3      1832            0.0000000000
     16655      1928  TIP3      H1              6.1145228523      -16.4638802078      -29.7251140816  TIP3      1832            0.0000000000
     16656      1928  TIP3      H2              7.5406888171      -16.7267135277      -30.1219906163  TIP3      1832            0.0000000000
     16657      1929  TIP3      OH2            -1.0136812020      -11.7955979204      -32.8464340081  TIP3      1833            0.0000000000
     16658      1929  TIP3      H1             -0.8215751890      -10.8673473030      -33.1102970869  TIP3      1833            0.0000000000
     16659      1929  TIP3      H2             -1.7918703104      -11.9657455860      -33.3936117263  TIP3      1833            0.0000000000
     16660      1930  TIP3      OH2            -4.6603815224      -17.0155076212      -37.9413369604  TIP3      1834            0.0000000000
     16661      1930  TIP3      H1             -4.3430227124      -16.0866584594      -37.8443554348  TIP3      1834            0.0000000000
     16662      1930  TIP3      H2             -5.6213002194      -16.8682739779      -37.9849082711  TIP3      1834            0.0000000000
     16663      1931  TIP3      OH2             0.3837373539      -13.9398306906      -33.7135864773  TIP3      1835            0.0000000000
     16664      1931  TIP3      H1             -0.0294897164      -13.0825714481      -33.4920682971  TIP3      1835            0.0000000000
     16665      1931  TIP3      H2             -0.0181868763      -14.5284385883      -33.0567771266  TIP3      1835            0.0000000000
     16666      1932  TIP3      OH2             1.0605361037       -9.7374330523      -27.2459285314  TIP3      1836            0.0000000000
     16667      1932  TIP3      H1              1.6735319605       -8.9951007745      -27.3424258843  TIP3      1836            0.0000000000
     16668      1932  TIP3      H2              1.5988655116      -10.2571231463      -26.6142104823  TIP3      1836            0.0000000000
     16669      1933  TIP3      OH2            -0.7405855765       -9.1379795651      -33.8539660498  TIP3      1837            0.0000000000
     16670      1933  TIP3      H1             -1.7084681971       -9.0604842808      -33.7564859019  TIP3      1837            0.0000000000
     16671      1933  TIP3      H2             -0.4501466065       -8.2523596661      -33.5565197562  TIP3      1837            0.0000000000
     16672      1934  TIP3      OH2             4.2053306031      -14.0814793630      -27.4946252053  TIP3      1838            0.0000000000
     16673      1934  TIP3      H1              3.8687061809      -14.2239524555      -26.5831879672  TIP3      1838            0.0000000000
     16674      1934  TIP3      H2              4.6103210984      -14.9394691650      -27.6932931062  TIP3      1838            0.0000000000
     16675      1935  TIP3      OH2             6.9969315359      -12.4622850586      -38.4773988600  TIP3      1839            0.0000000000
     16676      1935  TIP3      H1              6.7644021462      -12.9482427302      -37.6656220486  TIP3      1839            0.0000000000
     16677      1935  TIP3      H2              6.2302171648      -11.8591329048      -38.5544875772  TIP3      1839            0.0000000000
     16678      1936  TIP3      OH2             7.9119652057       -9.5469231625      -25.8675355782  TIP3      1840            0.0000000000
     16679      1936  TIP3      H1              6.9763908990       -9.7651992635      -25.7129157424  TIP3      1840            0.0000000000
     16680      1936  TIP3      H2              7.8130374934       -8.6421242169      -26.2634069322  TIP3      1840            0.0000000000
     16681      1937  TIP3      OH2            11.5730054427       -8.5929845347      -38.1925850046  TIP3      1841            0.0000000000
     16682      1937  TIP3      H1             12.1633424501       -7.9567419225      -38.6252356855  TIP3      1841            0.0000000000
     16683      1937  TIP3      H2             10.8458390884       -8.0075795883      -37.8983328800  TIP3      1841            0.0000000000
     16684      1938  TIP3      OH2            -4.1994998378      -22.5583314742      -25.4607102088  TIP3      1842            0.0000000000
     16685      1938  TIP3      H1             -4.9921692629      -22.1533054496      -25.0793800193  TIP3      1842            0.0000000000
     16686      1938  TIP3      H2             -4.4656947906      -23.4983613132      -25.4241511305  TIP3      1842            0.0000000000
     16687      1939  TIP3      OH2             7.8687981782      -14.3037073498      -36.1870843706  TIP3      1843            0.0000000000
     16688      1939  TIP3      H1              7.7083528211      -15.2396219293      -35.9530126735  TIP3      1843            0.0000000000
     16689      1939  TIP3      H2              8.8511121283      -14.2673087230      -36.2195570032  TIP3      1843            0.0000000000
     16690      1940  TIP3      OH2            -4.8902384108      -10.4720530359      -27.4165630994  TIP3      1844            0.0000000000
     16691      1940  TIP3      H1             -4.0628897447      -10.9643802543      -27.5008244237  TIP3      1844            0.0000000000
     16692      1940  TIP3      H2             -4.7164431151       -9.8760414795      -26.6632945106  TIP3      1844            0.0000000000
     16693      1941  TIP3      OH2            -0.4860638732      -12.2377500381      -37.5148463002  TIP3      1845            0.0000000000
     16694      1941  TIP3      H1              0.3626104485      -12.5727852548      -37.1850097655  TIP3      1845            0.0000000000
     16695      1941  TIP3      H2             -0.4042511823      -11.3012686255      -37.1928395455  TIP3      1845            0.0000000000
     16696      1942  TIP3      OH2            -3.8946160105      -14.6138487603      -37.2005109393  TIP3      1846            0.0000000000
     16697      1942  TIP3      H1             -4.5796028423      -14.4765712787      -36.5022042217  TIP3      1846            0.0000000000
     16698      1942  TIP3      H2             -3.4786037032      -13.7378597404      -37.2207612160  TIP3      1846            0.0000000000
     16699      1943  TIP3      OH2             4.1525783947      -21.9600352385      -26.9589634894  TIP3      1847            0.0000000000
     16700      1943  TIP3      H1              4.7941994172      -21.5475337598      -26.3369670652  TIP3      1847            0.0000000000
     16701      1943  TIP3      H2              4.0438397943      -22.8340350724      -26.5330662225  TIP3      1847            0.0000000000
     16702      1944  TIP3      OH2             5.2101497384      -23.0825122857      -35.3036347826  TIP3      1848            0.0000000000
     16703      1944  TIP3      H1              4.9460433352      -22.2278885513      -35.6751474728  TIP3      1848            0.0000000000
     16704      1944  TIP3      H2              5.5749051913      -22.7922179938      -34.4332467661  TIP3      1848            0.0000000000
     16705      1945  TIP3      OH2             2.8402510950      -10.6546036563      -36.9034828067  TIP3      1849            0.0000000000
     16706      1945  TIP3      H1              2.1571895555       -9.9873853669      -37.0873114334  TIP3      1849            0.0000000000
     16707      1945  TIP3      H2              3.5602635514      -10.3820098778      -37.5099695192  TIP3      1849            0.0000000000
     16708      1946  TIP3      OH2             2.6364873347      -20.8980038144      -34.9290311334  TIP3      1850            0.0000000000
     16709      1946  TIP3      H1              3.3049881572      -20.3278250834      -34.4913663456  TIP3      1850            0.0000000000
     16710      1946  TIP3      H2              2.1877025181      -21.2887062733      -34.1526048552  TIP3      1850            0.0000000000
     16711      1947  TIP3      OH2             3.1165271668      -19.7114934405      -25.7390084636  TIP3      1851            0.0000000000
     16712      1947  TIP3      H1              2.8948076507      -19.9279721640      -24.8270488795  TIP3      1851            0.0000000000
     16713      1947  TIP3      H2              3.2861649782      -20.5823817357      -26.1340937445  TIP3      1851            0.0000000000
     16714      1948  TIP3      OH2             3.0546985838      -24.1676356694      -33.8618999910  TIP3      1852            0.0000000000
     16715      1948  TIP3      H1              2.7402272359      -23.3762698839      -33.3648818554  TIP3      1852            0.0000000000
     16716      1948  TIP3      H2              3.8544670086      -23.8037052233      -34.2963899967  TIP3      1852            0.0000000000
     16717      1949  TIP3      OH2            -0.1945474793       -9.8591234352      -36.4194742460  TIP3      1853            0.0000000000
     16718      1949  TIP3      H1              0.1887516217       -9.0743091079      -36.8735129531  TIP3      1853            0.0000000000
     16719      1949  TIP3      H2             -0.4766101645       -9.4283547950      -35.5837855842  TIP3      1853            0.0000000000
     16720      1950  TIP3      OH2            -2.0530769980      -23.0184128012      -36.7804945725  TIP3      1854            0.0000000000
     16721      1950  TIP3      H1             -1.9128122018      -22.2786390034      -36.1688087980  TIP3      1854            0.0000000000
     16722      1950  TIP3      H2             -1.2238300413      -23.5071100026      -36.6415904045  TIP3      1854            0.0000000000
     16723      1951  TIP3      OH2             8.8329481506      -21.7380536671      -24.5375815741  TIP3      1855            0.0000000000
     16724      1951  TIP3      H1              7.9068446940      -21.5714050207      -24.3054369927  TIP3      1855            0.0000000000
     16725      1951  TIP3      H2              8.7153288459      -22.0658588253      -25.4599346762  TIP3      1855            0.0000000000
     16726      1952  TIP3      OH2             7.8315440729      -18.3457546810      -30.7407054483  TIP3      1856            0.0000000000
     16727      1952  TIP3      H1              7.0832764413      -18.9725410735      -30.7134031218  TIP3      1856            0.0000000000
     16728      1952  TIP3      H2              8.4957210628      -18.7891181949      -30.1594778842  TIP3      1856            0.0000000000
     16729      1953  TIP3      OH2            -3.1186329676      -12.1750522484      -38.3439696093  TIP3      1857            0.0000000000
     16730      1953  TIP3      H1             -2.2613337837      -11.9810201056      -37.9038287515  TIP3      1857            0.0000000000
     16731      1953  TIP3      H2             -2.8093771770      -12.7964662756      -39.0197810822  TIP3      1857            0.0000000000
     16732      1954  TIP3      OH2            -5.1524553266      -19.6419834204      -38.0864098973  TIP3      1858            0.0000000000
     16733      1954  TIP3      H1             -4.5054713061      -18.9286583739      -37.8934749220  TIP3      1858            0.0000000000
     16734      1954  TIP3      H2             -5.9534991478      -19.0987629851      -38.0599538247  TIP3      1858            0.0000000000
     16735      1955  TIP3      OH2             8.4337434566       -8.9205863833      -29.3349314187  TIP3      1859            0.0000000000
     16736      1955  TIP3      H1              8.5395517173       -8.3492868055      -30.1146619776  TIP3      1859            0.0000000000
     16737      1955  TIP3      H2              9.3627556717       -9.1582395232      -29.1407863048  TIP3      1859            0.0000000000
     16738      1956  TIP3      OH2            -3.5255980177      -24.8985987584      -30.8537771245  TIP3      1860            0.0000000000
     16739      1956  TIP3      H1             -3.9659912975      -25.2525592655      -31.6597139888  TIP3      1860            0.0000000000
     16740      1956  TIP3      H2             -3.5604233017      -25.6740682051      -30.2714590738  TIP3      1860            0.0000000000
     16741      1957  TIP3      OH2            -5.5155300613      -11.3083248108      -34.3358118233  TIP3      1861            0.0000000000
     16742      1957  TIP3      H1             -6.1887692540      -10.6380857614      -34.1601303219  TIP3      1861            0.0000000000
     16743      1957  TIP3      H2             -4.8988618345      -10.7526020050      -34.8425757655  TIP3      1861            0.0000000000
     16744      1958  TIP3      OH2            -5.8386936611       -8.5143774421      -23.0917702387  TIP3      1862            0.0000000000
     16745      1958  TIP3      H1             -5.3533359445       -9.1988229369      -22.5875736908  TIP3      1862            0.0000000000
     16746      1958  TIP3      H2             -6.7339876699       -8.7687549142      -22.8097056097  TIP3      1862            0.0000000000
     16747      1959  TIP3      OH2             1.6641346105       -9.8398649877      -39.3081706423  TIP3      1863            0.0000000000
     16748      1959  TIP3      H1              1.1723755988      -10.4736389323      -39.8471660284  TIP3      1863            0.0000000000
     16749      1959  TIP3      H2              2.6025156359      -10.0615438348      -39.4877292461  TIP3      1863            0.0000000000
     16750      1960  TIP3      OH2             5.6240853877      -11.4066608336      -22.6887116901  TIP3      1864            0.0000000000
     16751      1960  TIP3      H1              4.8816440260      -11.9835084722      -22.4582001404  TIP3      1864            0.0000000000
     16752      1960  TIP3      H2              5.7504889332      -10.8972365320      -21.8836240246  TIP3      1864            0.0000000000
     16753      1961  TIP3      OH2             8.1434762973       -9.4732254412      -38.8781997153  TIP3      1865            0.0000000000
     16754      1961  TIP3      H1              8.2279531581      -10.3687055774      -38.5240133467  TIP3      1865            0.0000000000
     16755      1961  TIP3      H2              7.3929675256       -9.6085573425      -39.4868310067  TIP3      1865            0.0000000000
     16756      1962  TIP3      OH2            -1.2333450998      -15.0347830201      -39.3858862718  TIP3      1866            0.0000000000
     16757      1962  TIP3      H1             -1.3947512783      -15.7085948169      -38.7077497131  TIP3      1866            0.0000000000
     16758      1962  TIP3      H2             -0.4721487106      -14.5788649602      -38.9996870449  TIP3      1866            0.0000000000
     16759      1963  TIP3      OH2             6.6783184442      -14.7896929016      -25.1502982212  TIP3      1867            0.0000000000
     16760      1963  TIP3      H1              7.5142316587      -14.2876556162      -25.0764810396  TIP3      1867            0.0000000000
     16761      1963  TIP3      H2              6.0629662534      -14.0249952341      -25.1827525440  TIP3      1867            0.0000000000
     16762      1964  TIP3      OH2            -0.0193491715      -16.0059923974      -37.1540156977  TIP3      1868            0.0000000000
     16763      1964  TIP3      H1             -0.6915161726      -16.4204822835      -36.5820273813  TIP3      1868            0.0000000000
     16764      1964  TIP3      H2              0.3088913918      -16.7842504969      -37.6694172449  TIP3      1868            0.0000000000
     16765      1965  TIP3      OH2            -1.6085530600      -18.3583662057      -25.7037269336  TIP3      1869            0.0000000000
     16766      1965  TIP3      H1             -2.0061135257      -17.4714381397      -25.8627689422  TIP3      1869            0.0000000000
     16767      1965  TIP3      H2             -0.7358355981      -18.0617892562      -25.3942528106  TIP3      1869            0.0000000000
     16768      1966  TIP3      OH2             0.7043261115      -18.3295271971      -38.3065892578  TIP3      1870            0.0000000000
     16769      1966  TIP3      H1              0.6768240576      -18.1136252147      -39.2806742545  TIP3      1870            0.0000000000
     16770      1966  TIP3      H2              1.6256120793      -18.6429516541      -38.2511019463  TIP3      1870            0.0000000000
     16771      1967  TIP3      OH2             9.3731097974      -15.5539895938      -38.7002594094  TIP3      1871            0.0000000000
     16772      1967  TIP3      H1             10.1643006202      -15.7988145374      -39.1968723060  TIP3      1871            0.0000000000
     16773      1967  TIP3      H2              9.4560375230      -14.5933993009      -38.6939510914  TIP3      1871            0.0000000000
     16774      1968  TIP3      OH2            -0.6684070994      -20.9624181068      -24.4285978416  TIP3      1872            0.0000000000
     16775      1968  TIP3      H1             -0.3479018667      -21.7796874018      -24.8719363629  TIP3      1872            0.0000000000
     16776      1968  TIP3      H2             -1.0848881092      -20.4591206505      -25.1402294836  TIP3      1872            0.0000000000
     16777      1969  TIP3      OH2             0.2415762787      -22.8067672962      -26.2191048365  TIP3      1873            0.0000000000
     16778      1969  TIP3      H1              0.6898357304      -22.1908327509      -26.8460671474  TIP3      1873            0.0000000000
     16779      1969  TIP3      H2             -0.5718035168      -23.0041880003      -26.7220084178  TIP3      1873            0.0000000000
     16780      1970  TIP3      OH2             1.1281946650      -16.8619511607      -26.0036689015  TIP3      1874            0.0000000000
     16781      1970  TIP3      H1              1.9696578214      -16.4278611015      -25.7863413381  TIP3      1874            0.0000000000
     16782      1970  TIP3      H2              0.6845369881      -16.1986218789      -26.5757846578  TIP3      1874            0.0000000000
     16783      1971  TIP3      OH2            -1.8466155040      -20.2735466262      -22.0669029196  TIP3      1875            0.0000000000
     16784      1971  TIP3      H1             -2.6218680020      -20.7281650209      -22.4253613309  TIP3      1875            0.0000000000
     16785      1971  TIP3      H2             -1.2243595460      -20.3998341117      -22.8167406675  TIP3      1875            0.0000000000
     16786      1972  TIP3      OH2             1.0201633417      -25.1096585052      -27.3318095449  TIP3      1876            0.0000000000
     16787      1972  TIP3      H1              0.9377766109      -24.4551426969      -26.6099566351  TIP3      1876            0.0000000000
     16788      1972  TIP3      H2              0.2339467798      -24.8946835434      -27.8643935542  TIP3      1876            0.0000000000
     16789      1973  TIP3      OH2            -4.1840118724      -22.2941766688      -21.9699143972  TIP3      1877            0.0000000000
     16790      1973  TIP3      H1             -4.1916739368      -22.9810585704      -22.6633782467  TIP3      1877            0.0000000000
     16791      1973  TIP3      H2             -3.8642476083      -22.7859895926      -21.1932426952  TIP3      1877            0.0000000000
     16792      1974  TIP3      OH2             2.1557589646       26.1485915113      -24.7156342834  TIP3      1878            0.0000000000
     16793      1974  TIP3      H1              1.9241602598       26.2338223186      -23.7759895103  TIP3      1878            0.0000000000
     16794      1974  TIP3      H2              1.2727025222       26.0637118682      -25.1146089324  TIP3      1878            0.0000000000
     16795      1975  TIP3      OH2             0.8094957048      -23.8203482344      -22.2462102594  TIP3      1879            0.0000000000
     16796      1975  TIP3      H1              0.9261562791      -24.6638895051      -21.7632067605  TIP3      1879            0.0000000000
     16797      1975  TIP3      H2              0.1060446532      -23.3880144546      -21.7223367786  TIP3      1879            0.0000000000
     16798      1976  TIP3      OH2             0.5870472711       -7.5225118204      -37.5357458030  TIP3      1880            0.0000000000
     16799      1976  TIP3      H1              1.5397132889       -7.4163328200      -37.7009624958  TIP3      1880            0.0000000000
     16800      1976  TIP3      H2              0.2692280388       -7.4054766296      -38.4404984741  TIP3      1880            0.0000000000
     16801      1977  TIP3      OH2            -5.8907199438      -12.4460048646      -38.5887188461  TIP3      1881            0.0000000000
     16802      1977  TIP3      H1             -5.0111315617      -12.0187937790      -38.5215354691  TIP3      1881            0.0000000000
     16803      1977  TIP3      H2             -5.6645288867      -13.1881367413      -39.1724325438  TIP3      1881            0.0000000000
     16804      1978  TIP3      OH2            -6.9524379337       -7.5918684254      -33.6444998296  TIP3      1882            0.0000000000
     16805      1978  TIP3      H1             -7.6526087557       -8.1401677636      -34.0630573274  TIP3      1882            0.0000000000
     16806      1978  TIP3      H2             -6.7194805930       -8.1228504833      -32.8525399826  TIP3      1882            0.0000000000
     16807      1979  TIP3      OH2            -6.3021748409       -9.2172279361      -31.6604393668  TIP3      1883            0.0000000000
     16808      1979  TIP3      H1             -6.8645874725       -9.9693470588      -31.4016227684  TIP3      1883            0.0000000000
     16809      1979  TIP3      H2             -5.9927460964       -8.9094629857      -30.7784014944  TIP3      1883            0.0000000000
     16810      1980  TIP3      OH2            11.1175562364       -9.2203656136      -29.0719322373  TIP3      1884            0.0000000000
     16811      1980  TIP3      H1             11.6372668580       -8.9847708111      -28.2812903398  TIP3      1884            0.0000000000
     16812      1980  TIP3      H2             11.4137199850       -8.6024154712      -29.7583183971  TIP3      1884            0.0000000000
     16813      1981  TIP3      OH2            11.0411693546       -8.9297717560      -26.0910282565  TIP3      1885            0.0000000000
     16814      1981  TIP3      H1             10.4825779914       -9.5320094756      -26.6314620327  TIP3      1885            0.0000000000
     16815      1981  TIP3      H2             11.4226275393       -9.5852931507      -25.4634846266  TIP3      1885            0.0000000000
     16816      1982  TIP3      OH2            10.5429820344      -14.5858763772      -36.0948210452  TIP3      1886            0.0000000000
     16817      1982  TIP3      H1             11.3574113188      -14.0780794231      -35.8660827363  TIP3      1886            0.0000000000
     16818      1982  TIP3      H2             10.4124487847      -15.1453551176      -35.3133324278  TIP3      1886            0.0000000000
     16819      1983  TIP3      OH2            11.0790977872      -16.6266405963      -33.9813395397  TIP3      1887            0.0000000000
     16820      1983  TIP3      H1             10.2871523767      -17.1361990310      -33.6852804547  TIP3      1887            0.0000000000
     16821      1983  TIP3      H2             11.2553599773      -16.0923247538      -33.1907769456  TIP3      1887            0.0000000000
     16822      1984  TIP3      OH2            10.9453358054      -13.9921223297      -29.2196049996  TIP3      1888            0.0000000000
     16823      1984  TIP3      H1             11.5934031649      -14.6859020915      -29.4621092018  TIP3      1888            0.0000000000
     16824      1984  TIP3      H2             11.4346023375      -13.1832367639      -29.4758261878  TIP3      1888            0.0000000000
     16825      1985  TIP3      OH2             9.5112667360      -11.2769453193      -27.2531294100  TIP3      1889            0.0000000000
     16826      1985  TIP3      H1              8.7538141526      -10.7779875485      -26.8805932221  TIP3      1889            0.0000000000
     16827      1985  TIP3      H2              9.1299441466      -11.6172299353      -28.0853652324  TIP3      1889            0.0000000000
     16828      1986  TIP3      OH2            11.2684620147      -17.0730464303      -37.3538498596  TIP3      1890            0.0000000000
     16829      1986  TIP3      H1             10.3829395828      -16.9677798824      -37.7471861090  TIP3      1890            0.0000000000
     16830      1986  TIP3      H2             11.3162236971      -16.2260724429      -36.8672472885  TIP3      1890            0.0000000000
     16831      1987  TIP3      OH2             9.2223173031      -19.6977340715      -38.4611451887  TIP3      1891            0.0000000000
     16832      1987  TIP3      H1              9.3299883760      -19.3844803990      -39.3900753412  TIP3      1891            0.0000000000
     16833      1987  TIP3      H2              8.9709508751      -20.6267203271      -38.6135727070  TIP3      1891            0.0000000000
     16834      1988  TIP3      OH2             8.9109907972      -17.8392876046      -33.0776487110  TIP3      1892            0.0000000000
     16835      1988  TIP3      H1              8.6696744283      -18.7341632760      -33.3855768433  TIP3      1892            0.0000000000
     16836      1988  TIP3      H2              8.6242053169      -17.9125362641      -32.1395411193  TIP3      1892            0.0000000000
     16837      1989  TIP3      OH2            -6.0339875913      -16.0543991453      -29.2968258544  TIP3      1893            0.0000000000
     16838      1989  TIP3      H1             -5.9618043595      -16.3474063713      -30.2458360745  TIP3      1893            0.0000000000
     16839      1989  TIP3      H2             -5.1725488633      -16.4169387717      -28.9801388843  TIP3      1893            0.0000000000
     16840      1990  TIP3      OH2             8.8826690322      -22.4050977027      -38.7635097910  TIP3      1894            0.0000000000
     16841      1990  TIP3      H1              9.7233570287      -22.8798533500      -38.5852447842  TIP3      1894            0.0000000000
     16842      1990  TIP3      H2              8.2648298394      -22.8528357389      -38.1711108516  TIP3      1894            0.0000000000
     16843      1991  TIP3      OH2             8.5893031827      -20.3354305297      -34.4594665035  TIP3      1895            0.0000000000
     16844      1991  TIP3      H1              8.6768086962      -21.3128775546      -34.4099806666  TIP3      1895            0.0000000000
     16845      1991  TIP3      H2              9.3224097734      -20.1201391408      -35.0792490470  TIP3      1895            0.0000000000
     16846      1992  TIP3      OH2             9.5010872485      -19.8284343080      -29.3613780232  TIP3      1896            0.0000000000
     16847      1992  TIP3      H1             10.4792730225      -19.7289540566      -29.2488607109  TIP3      1896            0.0000000000
     16848      1992  TIP3      H2              9.2175706244      -19.8055680901      -28.4190376157  TIP3      1896            0.0000000000
     16849      1993  TIP3      OH2             9.3580031261      -19.2399085021      -26.7561194505  TIP3      1897            0.0000000000
     16850      1993  TIP3      H1              8.6600916212      -18.9932319443      -26.1156552775  TIP3      1897            0.0000000000
     16851      1993  TIP3      H2              9.7505699054      -18.3781820722      -27.0021910320  TIP3      1897            0.0000000000
     16852      1994  TIP3      OH2            -6.3839626710      -21.1464318231      -23.5475667386  TIP3      1898            0.0000000000
     16853      1994  TIP3      H1             -5.6774461474      -21.3787029852      -22.9139814966  TIP3      1898            0.0000000000
     16854      1994  TIP3      H2             -7.1274194772      -21.6815936944      -23.1888757645  TIP3      1898            0.0000000000
     16855      1995  TIP3      OH2             8.7660740190      -23.1817634663      -34.2866592237  TIP3      1899            0.0000000000
     16856      1995  TIP3      H1              9.3271264275      -23.5968765823      -33.6040385921  TIP3      1899            0.0000000000
     16857      1995  TIP3      H2              8.5243996888      -23.9453393860      -34.8444929885  TIP3      1899            0.0000000000
     16858      1996  TIP3      OH2            -5.4110656613      -22.5131104902      -30.2206346346  TIP3      1900            0.0000000000
     16859      1996  TIP3      H1             -5.0975332571      -23.4266787941      -30.2069758708  TIP3      1900            0.0000000000
     16860      1996  TIP3      H2             -4.5586859762      -22.0486529842      -30.1855703000  TIP3      1900            0.0000000000
     16861      1997  TIP3      OH2            -6.7639298159      -19.9899103459      -29.0806038230  TIP3      1901            0.0000000000
     16862      1997  TIP3      H1             -6.2355125481      -20.4521697168      -29.7444128151  TIP3      1901            0.0000000000
     16863      1997  TIP3      H2             -6.0974639175      -19.4544227751      -28.6220953539  TIP3      1901            0.0000000000
     16864      1998  TIP3      OH2            11.4544264555      -23.3615800928      -38.3014242296  TIP3      1902            0.0000000000
     16865      1998  TIP3      H1             12.0761431769      -23.5774477692      -39.0184424874  TIP3      1902            0.0000000000
     16866      1998  TIP3      H2             11.9956807112      -22.7410723988      -37.7615518383  TIP3      1902            0.0000000000
     16867      1999  TIP3      OH2            -6.2303387820      -23.6177614682      -34.7197270056  TIP3      1903            0.0000000000
     16868      1999  TIP3      H1             -7.1675283332      -23.8056576567      -34.8237971538  TIP3      1903            0.0000000000
     16869      1999  TIP3      H2             -6.1069277162      -22.9543658483      -35.4397137287  TIP3      1903            0.0000000000
     16870      2000  TIP3      OH2             8.1707391615       -8.2402276364      -33.2681701139  TIP3      1904            0.0000000000
     16871      2000  TIP3      H1              8.9094647993       -8.4091194790      -33.8992663796  TIP3      1904            0.0000000000
     16872      2000  TIP3      H2              8.5778348056       -7.6954079525      -32.5761128652  TIP3      1904            0.0000000000
     16873      2001  TIP3      OH2            -6.4657499146      -24.7161723647      -26.9445179920  TIP3      1905            0.0000000000
     16874      2001  TIP3      H1             -7.0893843667      -24.9195743127      -26.2332727530  TIP3      1905            0.0000000000
     16875      2001  TIP3      H2             -6.9633980943      -24.1046757739      -27.5121925964  TIP3      1905            0.0000000000
     16876      2002  TIP3      OH2            -1.7003009026      -10.3079646181      -27.0470563740  TIP3      1906            0.0000000000
     16877      2002  TIP3      H1             -1.7413436850       -9.3199097596      -27.1198946636  TIP3      1906            0.0000000000
     16878      2002  TIP3      H2             -0.7283410252      -10.4048878588      -27.1438708759  TIP3      1906            0.0000000000
     16879      2003  TIP3      OH2            10.4563565759      -25.3518158909      -25.3955484972  TIP3      1907            0.0000000000
     16880      2003  TIP3      H1              9.6461058798      -24.8360598147      -25.4789714976  TIP3      1907            0.0000000000
     16881      2003  TIP3      H2             10.0972853846      -26.2532807799      -25.2833902211  TIP3      1907            0.0000000000
     16882      2004  TIP3      OH2            -4.2971506591       -7.5844965549      -26.3876753881  TIP3      1908            0.0000000000
     16883      2004  TIP3      H1             -5.0554899178       -7.0630005021      -26.7391786745  TIP3      1908            0.0000000000
     16884      2004  TIP3      H2             -4.2178926145       -7.1697728051      -25.4964473214  TIP3      1908            0.0000000000
     16885      2005  TIP3      OH2            -1.8987505015       -7.5825743523      -27.5203261660  TIP3      1909            0.0000000000
     16886      2005  TIP3      H1             -2.8673326268       -7.5385601942      -27.3101227215  TIP3      1909            0.0000000000
     16887      2005  TIP3      H2             -1.7868587713       -6.9456507813      -28.2543210883  TIP3      1909            0.0000000000
     16888      2006  TIP3      OH2             3.3027908007       -7.8390370838      -28.6377357495  TIP3      1910            0.0000000000
     16889      2006  TIP3      H1              2.5502580434       -7.5568431991      -29.1786986278  TIP3      1910            0.0000000000
     16890      2006  TIP3      H2              3.2042529179       -7.2695596026      -27.8476692756  TIP3      1910            0.0000000000
     16891      2007  TIP3      OH2             5.0843617892       -9.3296114926      -27.0692346338  TIP3      1911            0.0000000000
     16892      2007  TIP3      H1              4.4391167391       -8.7968043901      -27.5763461779  TIP3      1911            0.0000000000
     16893      2007  TIP3      H2              5.8505324247       -8.7530020408      -27.1667616888  TIP3      1911            0.0000000000
     16894      2008  TIP3      OH2             7.5893992489       -7.2545963232      -27.2491014314  TIP3      1912            0.0000000000
     16895      2008  TIP3      H1              7.6314859747       -6.2945491415      -27.4444344669  TIP3      1912            0.0000000000
     16896      2008  TIP3      H2              7.8031771990       -7.6391954563      -28.1249300269  TIP3      1912            0.0000000000
     16897      2009  TIP3      OH2            -4.6487122112       -8.6652624039      -29.5023295565  TIP3      1913            0.0000000000
     16898      2009  TIP3      H1             -4.8520421957       -9.1135723069      -28.6489922160  TIP3      1913            0.0000000000
     16899      2009  TIP3      H2             -3.8169766008       -9.1329551517      -29.7840982960  TIP3      1913            0.0000000000
     16900      2010  TIP3      OH2            -2.5153536348       -9.8700256289      -30.5077024808  TIP3      1914            0.0000000000
     16901      2010  TIP3      H1             -2.5964243434      -10.8484742124      -30.4555170530  TIP3      1914            0.0000000000
     16902      2010  TIP3      H2             -1.5532730183       -9.7432075787      -30.3646657970  TIP3      1914            0.0000000000
     16903      2011  TIP3      OH2             0.0421389151       -9.7531824612      -29.9176078291  TIP3      1915            0.0000000000
     16904      2011  TIP3      H1              0.2536526734      -10.7149036817      -29.9473966753  TIP3      1915            0.0000000000
     16905      2011  TIP3      H2              0.1913320091       -9.5792420340      -28.9692592585  TIP3      1915            0.0000000000
     16906      2012  TIP3      OH2             3.4559763113      -23.0576403211      -30.7041258853  TIP3      1916            0.0000000000
     16907      2012  TIP3      H1              2.8265258375      -23.8014657191      -30.6981513768  TIP3      1916            0.0000000000
     16908      2012  TIP3      H2              4.2112556185      -23.4821824651      -31.1398602554  TIP3      1916            0.0000000000
     16909      2013  TIP3      OH2             8.2022485162      -25.2021999161      -30.9546706454  TIP3      1917            0.0000000000
     16910      2013  TIP3      H1              8.9205612975      -24.8681898859      -31.5339374573  TIP3      1917            0.0000000000
     16911      2013  TIP3      H2              7.4290294037      -25.1010503808      -31.5326676926  TIP3      1917            0.0000000000
     16912      2014  TIP3      OH2            10.3932429908      -24.5907982463      -32.5239101121  TIP3      1918            0.0000000000
     16913      2014  TIP3      H1             10.9223785457      -25.3050690150      -32.9109616630  TIP3      1918            0.0000000000
     16914      2014  TIP3      H2             11.0213660514      -23.8306284245      -32.4675660183  TIP3      1918            0.0000000000
     16915      2015  TIP3      OH2            -4.6201623479      -25.1124322635      -33.2403885928  TIP3      1919            0.0000000000
     16916      2015  TIP3      H1             -5.1918629423      -24.4782310832      -33.7364398188  TIP3      1919            0.0000000000
     16917      2015  TIP3      H2             -4.6747332865      -25.9036527930      -33.7918755053  TIP3      1919            0.0000000000
     16918      2016  TIP3      OH2            -4.9561590777      -25.3624434476      -36.7075099110  TIP3      1920            0.0000000000
     16919      2016  TIP3      H1             -4.8435803394      -24.8979326232      -37.5681982307  TIP3      1920            0.0000000000
     16920      2016  TIP3      H2             -5.3012972205      -24.6581271663      -36.1336924820  TIP3      1920            0.0000000000
     16921      2017  TIP3      OH2             0.3654480548      -24.5391483310      -33.2781263770  TIP3      1921            0.0000000000
     16922      2017  TIP3      H1              1.2251260604      -24.5453326791      -33.7404291361  TIP3      1921            0.0000000000
     16923      2017  TIP3      H2              0.6627214764      -24.5438956303      -32.3468862068  TIP3      1921            0.0000000000
     16924      2018  TIP3      OH2             5.5460352527      -24.8346472034      -31.9079907751  TIP3      1922            0.0000000000
     16925      2018  TIP3      H1              5.3681442354      -24.7170083506      -32.8530695173  TIP3      1922            0.0000000000
     16926      2018  TIP3      H2              5.5708743042      -25.8062640819      -31.8491046670  TIP3      1922            0.0000000000
     16927      2019  TIP3      OH2             7.4150476389      -24.6584674028      -36.3222365241  TIP3      1923            0.0000000000
     16928      2019  TIP3      H1              6.7526288399      -23.9651136555      -36.1221918470  TIP3      1923            0.0000000000
     16929      2019  TIP3      H2              7.2735812443      -25.2556695734      -35.5564909198  TIP3      1923            0.0000000000
     16930      2020  TIP3      OH2            -5.3613917644       -9.0292689563      -35.9112496481  TIP3      1924            0.0000000000
     16931      2020  TIP3      H1             -6.1802894108       -9.1837864063      -36.4395157703  TIP3      1924            0.0000000000
     16932      2020  TIP3      H2             -5.1487448908       -8.1398350603      -36.2467095704  TIP3      1924            0.0000000000
     16933      2021  TIP3      OH2            -3.9477081476      -23.3930157385      -38.7016789097  TIP3      1925            0.0000000000
     16934      2021  TIP3      H1             -3.4145834751      -24.0581589600      -39.1608821019  TIP3      1925            0.0000000000
     16935      2021  TIP3      H2             -3.3177173455      -23.1595816771      -37.9913632175  TIP3      1925            0.0000000000
     16936      2022  TIP3      OH2             1.5017073955      -23.3026738982      -36.2138204813  TIP3      1926            0.0000000000
     16937      2022  TIP3      H1              2.2130720101      -23.6184451485      -35.6288294244  TIP3      1926            0.0000000000
     16938      2022  TIP3      H2              1.5506056616      -22.3466267224      -36.0305300060  TIP3      1926            0.0000000000
     16939      2023  TIP3      OH2             3.3848251358       -7.6792730591      -37.9550840371  TIP3      1927            0.0000000000
     16940      2023  TIP3      H1              4.3454216261       -7.5026617490      -38.0399405390  TIP3      1927            0.0000000000
     16941      2023  TIP3      H2              3.2752465883       -8.2596177820      -38.7287761901  TIP3      1927            0.0000000000
     16942      2024  TIP3      OH2             9.9336838351       -8.7562360365      -35.1736337223  TIP3      1928            0.0000000000
     16943      2024  TIP3      H1              9.9298393120       -9.6194400842      -35.6380421614  TIP3      1928            0.0000000000
     16944      2024  TIP3      H2              9.8982443557       -8.1152344160      -35.9218631601  TIP3      1928            0.0000000000
     16945      2025  TIP3      OH2            -4.8734693083      -24.9164246557      -23.8154564965  TIP3      1929            0.0000000000
     16946      2025  TIP3      H1             -5.1190649985      -25.8226641440      -24.0331570136  TIP3      1929            0.0000000000
     16947      2025  TIP3      H2             -4.0765012438      -25.1058945503      -23.2583154250  TIP3      1929            0.0000000000
     16948      2026  TIP3      OH2            -2.6026621192      -25.6671777264      -22.4685545767  TIP3      1930            0.0000000000
     16949      2026  TIP3      H1             -1.8588241937      -25.4635006956      -21.8777474776  TIP3      1930            0.0000000000
     16950      2026  TIP3      H2             -2.7533479109      -26.6052477642      -22.2288652945  TIP3      1930            0.0000000000
     16951      2027  TIP3      OH2            -4.1892605679       -8.7263501447      -38.7530619322  TIP3      1931            0.0000000000
     16952      2027  TIP3      H1             -4.4310044460       -8.1051061225      -38.0325596585  TIP3      1931            0.0000000000
     16953      2027  TIP3      H2             -3.4192554603       -9.1749999915      -38.3848368303  TIP3      1931            0.0000000000
     16954      2028  TIP3      OH2             5.9879001707      -25.2945715615      -22.5602318636  TIP3      1932            0.0000000000
     16955      2028  TIP3      H1              5.7087353759      -25.5356604126      -21.6462734860  TIP3      1932            0.0000000000
     16956      2028  TIP3      H2              6.8862617889      -25.6457192812      -22.5481415053  TIP3      1932            0.0000000000
     16957      2029  TIP3      OH2             9.1778313583       -9.6587461587      -23.4359691155  TIP3      1933            0.0000000000
     16958      2029  TIP3      H1              8.7411579674       -9.8605249038      -24.2945037995  TIP3      1933            0.0000000000
     16959      2029  TIP3      H2              9.3909494740       -8.7384580636      -23.6093052475  TIP3      1933            0.0000000000
     16960      2030  TIP3      OH2            23.6769568775      -15.7229534949      -33.6929466982  TIP3      1934            0.0000000000
     16961      2030  TIP3      H1             23.9836818987      -14.7933920563      -33.6455306059  TIP3      1934            0.0000000000
     16962      2030  TIP3      H2             22.9534323570      -15.6091902005      -34.3383155726  TIP3      1934            0.0000000000
     16963      2031  TIP3      OH2            22.8490827430      -17.1140592113      -29.9989108722  TIP3      1935            0.0000000000
     16964      2031  TIP3      H1             23.0765956927      -16.9817255845      -29.0506690968  TIP3      1935            0.0000000000
     16965      2031  TIP3      H2             22.0169496324      -17.6304516806      -29.9370069816  TIP3      1935            0.0000000000
     16966      2032  TIP3      OH2            14.8295750208      -17.3009938008      -28.2657891840  TIP3      1936            0.0000000000
     16967      2032  TIP3      H1             14.7518336345      -17.8843008028      -27.4909722803  TIP3      1936            0.0000000000
     16968      2032  TIP3      H2             15.7917512804      -17.1358044143      -28.3290861092  TIP3      1936            0.0000000000
     16969      2033  TIP3      OH2            16.0158230485      -12.4268517227      -30.3081972212  TIP3      1937            0.0000000000
     16970      2033  TIP3      H1             15.6964250131      -13.3373222515      -30.4565513973  TIP3      1937            0.0000000000
     16971      2033  TIP3      H2             16.9545499616      -12.5251489702      -30.5326200861  TIP3      1937            0.0000000000
     16972      2034  TIP3      OH2            12.6738025659      -19.3571442501      -34.3253326459  TIP3      1938            0.0000000000
     16973      2034  TIP3      H1             12.5762186383      -18.4358671030      -34.0478065933  TIP3      1938            0.0000000000
     16974      2034  TIP3      H2             11.7449481475      -19.5717707131      -34.5224286738  TIP3      1938            0.0000000000
     16975      2035  TIP3      OH2            12.9016244022      -16.7477815752      -31.6168063116  TIP3      1939            0.0000000000
     16976      2035  TIP3      H1             13.3190408063      -17.6177869756      -31.4252630043  TIP3      1939            0.0000000000
     16977      2035  TIP3      H2             13.4653183928      -16.3944401525      -32.3223443445  TIP3      1939            0.0000000000
     16978      2036  TIP3      OH2            23.9082981882       -8.9158746611      -31.1900611266  TIP3      1940            0.0000000000
     16979      2036  TIP3      H1             23.2034216169       -9.4630200293      -31.5659043991  TIP3      1940            0.0000000000
     16980      2036  TIP3      H2             23.7649931395       -9.0759531169      -30.2441711464  TIP3      1940            0.0000000000
     16981      2037  TIP3      OH2            21.2656173718      -14.8963330030      -28.8182895603  TIP3      1941            0.0000000000
     16982      2037  TIP3      H1             21.3134923938      -14.5961224168      -29.7342407563  TIP3      1941            0.0000000000
     16983      2037  TIP3      H2             22.1214708197      -14.5654522121      -28.4760224420  TIP3      1941            0.0000000000
     16984      2038  TIP3      OH2            23.7906880872      -20.2160760128      -29.2215830028  TIP3      1942            0.0000000000
     16985      2038  TIP3      H1             24.7523668126      -20.3278640528      -29.0937254027  TIP3      1942            0.0000000000
     16986      2038  TIP3      H2             23.8427839702      -19.3259249049      -29.6237191648  TIP3      1942            0.0000000000
     16987      2039  TIP3      OH2            17.5339538551      -22.1013873031      -31.9255073309  TIP3      1943            0.0000000000
     16988      2039  TIP3      H1             17.6465942890      -21.2364702731      -32.3817915594  TIP3      1943            0.0000000000
     16989      2039  TIP3      H2             16.9050618443      -22.5154005805      -32.5517184107  TIP3      1943            0.0000000000
     16990      2040  TIP3      OH2            24.2972661801      -21.6831555988      -33.4394575672  TIP3      1944            0.0000000000
     16991      2040  TIP3      H1             24.7867090416      -22.2268278678      -32.7878205061  TIP3      1944            0.0000000000
     16992      2040  TIP3      H2             25.0061500063      -21.0343866039      -33.6571151593  TIP3      1944            0.0000000000
     16993      2041  TIP3      OH2            13.8252894188      -19.2123726818      -31.1510568544  TIP3      1945            0.0000000000
     16994      2041  TIP3      H1             14.5077092621      -19.4700354719      -30.5051887534  TIP3      1945            0.0000000000
     16995      2041  TIP3      H2             14.1417043616      -19.7377057654      -31.9176938376  TIP3      1945            0.0000000000
     16996      2042  TIP3      OH2            18.6663209491      -17.9881698642      -31.4144447789  TIP3      1946            0.0000000000
     16997      2042  TIP3      H1             19.4125409571      -18.5431621129      -31.1415354099  TIP3      1946            0.0000000000
     16998      2042  TIP3      H2             18.0982973308      -18.6679557366      -31.8269387169  TIP3      1946            0.0000000000
     16999      2043  TIP3      OH2            16.3571524559      -22.9336860367      -27.8597785971  TIP3      1947            0.0000000000
     17000      2043  TIP3      H1             15.8721122680      -22.5897279030      -28.6356118513  TIP3      1947            0.0000000000
     17001      2043  TIP3      H2             15.6706401995      -22.8741696638      -27.1588670865  TIP3      1947            0.0000000000
     17002      2044  TIP3      OH2            23.4335939590      -12.9195297089      -34.2183911377  TIP3      1948            0.0000000000
     17003      2044  TIP3      H1             23.2686131345      -12.9743364248      -35.1767751118  TIP3      1948            0.0000000000
     17004      2044  TIP3      H2             22.9865214233      -12.0668309390      -34.0111770525  TIP3      1948            0.0000000000
     17005      2045  TIP3      OH2            18.6285217093      -15.1078864366      -27.8491951890  TIP3      1949            0.0000000000
     17006      2045  TIP3      H1             18.1739637722      -14.2883256463      -27.4978422653  TIP3      1949            0.0000000000
     17007      2045  TIP3      H2             19.4568141784      -14.7277616576      -28.2112401092  TIP3      1949            0.0000000000
     17008      2046  TIP3      OH2            15.8062572071      -20.9066376618      -29.9871361512  TIP3      1950            0.0000000000
     17009      2046  TIP3      H1             16.4736862204      -20.4489812742      -29.4304690920  TIP3      1950            0.0000000000
     17010      2046  TIP3      H2             16.3879208081      -21.2989329727      -30.6689640614  TIP3      1950            0.0000000000
     17011      2047  TIP3      OH2            17.6444847663      -12.8406333948      -26.9495795159  TIP3      1951            0.0000000000
     17012      2047  TIP3      H1             17.5841305654      -11.8817286076      -27.1283254598  TIP3      1951            0.0000000000
     17013      2047  TIP3      H2             16.7632264629      -12.9895808338      -26.5404939770  TIP3      1951            0.0000000000
     17014      2048  TIP3      OH2            13.0231769574      -13.6555748677      -35.7607506221  TIP3      1952            0.0000000000
     17015      2048  TIP3      H1             12.9598468977      -13.1918602430      -36.6214066574  TIP3      1952            0.0000000000
     17016      2048  TIP3      H2             13.1578297406      -12.8933598085      -35.1401286314  TIP3      1952            0.0000000000
     17017      2049  TIP3      OH2            19.9929069149      -25.1688591756      -31.1332786399  TIP3      1953            0.0000000000
     17018      2049  TIP3      H1             20.3545838531      -25.6306748448      -30.3523961622  TIP3      1953            0.0000000000
     17019      2049  TIP3      H2             19.3281332817      -24.5984796757      -30.6731078766  TIP3      1953            0.0000000000
     17020      2050  TIP3      OH2            25.2827333285       -9.9538341250      -33.4005057212  TIP3      1954            0.0000000000
     17021      2050  TIP3      H1             25.0128775641      -10.8784351682      -33.2579368526  TIP3      1954            0.0000000000
     17022      2050  TIP3      H2             25.1608395722       -9.5654667163      -32.5088798707  TIP3      1954            0.0000000000
     17023      2051  TIP3      OH2            22.2414310103      -17.1474920979      -36.1445596067  TIP3      1955            0.0000000000
     17024      2051  TIP3      H1             21.6411843223      -16.3709268838      -36.2673004732  TIP3      1955            0.0000000000
     17025      2051  TIP3      H2             23.0754725024      -16.8410108672      -36.5510689980  TIP3      1955            0.0000000000
     17026      2052  TIP3      OH2            22.3299560976      -18.3702515867      -38.9828576469  TIP3      1956            0.0000000000
     17027      2052  TIP3      H1             22.7111251577      -18.3853762026      -38.0896607399  TIP3      1956            0.0000000000
     17028      2052  TIP3      H2             22.4855562467      -19.2773451899      -39.2819503914  TIP3      1956            0.0000000000
     17029      2053  TIP3      OH2           -25.5360642887      -17.3463328323      -34.6694114405  TIP3      1957            0.0000000000
     17030      2053  TIP3      H1            -26.4485115936      -17.0783142666      -34.8406706288  TIP3      1957            0.0000000000
     17031      2053  TIP3      H2            -25.4015165758      -16.9826324163      -33.7747716905  TIP3      1957            0.0000000000
     17032      2054  TIP3      OH2            25.1632856969      -18.7961201672      -25.6405237518  TIP3      1958            0.0000000000
     17033      2054  TIP3      H1             24.6531576973      -18.4529334544      -24.9061133710  TIP3      1958            0.0000000000
     17034      2054  TIP3      H2             24.6356051891      -18.4567093417      -26.3943403760  TIP3      1958            0.0000000000
     17035      2055  TIP3      OH2            17.7189295363      -16.2444992993      -33.2387793098  TIP3      1959            0.0000000000
     17036      2055  TIP3      H1             17.3416028299      -16.7111914341      -34.0141682404  TIP3      1959            0.0000000000
     17037      2055  TIP3      H2             18.2406981357      -16.9343020082      -32.7793455238  TIP3      1959            0.0000000000
     17038      2056  TIP3      OH2            19.0860100042      -12.3395127344      -30.1767656781  TIP3      1960            0.0000000000
     17039      2056  TIP3      H1             19.1226356975      -12.6345851285      -31.0980434275  TIP3      1960            0.0000000000
     17040      2056  TIP3      H2             19.4249327795      -13.1041924707      -29.7059591484  TIP3      1960            0.0000000000
     17041      2057  TIP3      OH2            17.3880097043      -17.1085676900      -29.1968581027  TIP3      1961            0.0000000000
     17042      2057  TIP3      H1             17.7434923050      -17.0910219990      -30.1129087636  TIP3      1961            0.0000000000
     17043      2057  TIP3      H2             17.9155823048      -16.4052437661      -28.7577458052  TIP3      1961            0.0000000000
     17044      2058  TIP3      OH2            24.1489897241      -11.3797453444      -28.4690452932  TIP3      1962            0.0000000000
     17045      2058  TIP3      H1             24.0962361564      -10.7889820714      -27.6941729475  TIP3      1962            0.0000000000
     17046      2058  TIP3      H2             23.9994644150      -12.2701246640      -28.0858068850  TIP3      1962            0.0000000000
     17047      2059  TIP3      OH2            24.6802827330      -16.6862175820      -37.5196756671  TIP3      1963            0.0000000000
     17048      2059  TIP3      H1             25.6204171837      -16.4847946699      -37.3410939337  TIP3      1963            0.0000000000
     17049      2059  TIP3      H2             24.4381601634      -15.8974478828      -38.0368531795  TIP3      1963            0.0000000000
     17050      2060  TIP3      OH2            15.8367502816      -16.5768969815      -25.5909994321  TIP3      1964            0.0000000000
     17051      2060  TIP3      H1             15.9384097795      -15.8120103757      -24.9981073635  TIP3      1964            0.0000000000
     17052      2060  TIP3      H2             14.8661715824      -16.6696456649      -25.5384679051  TIP3      1964            0.0000000000
     17053      2061  TIP3      OH2            21.9098550119      -10.6021178175      -33.8292559498  TIP3      1965            0.0000000000
     17054      2061  TIP3      H1             21.3130852378       -9.8999867334      -33.5479342649  TIP3      1965            0.0000000000
     17055      2061  TIP3      H2             21.6352299952      -10.6750469274      -34.7678073807  TIP3      1965            0.0000000000
     17056      2062  TIP3      OH2            16.2991251697      -17.1318643822      -35.3992915820  TIP3      1966            0.0000000000
     17057      2062  TIP3      H1             15.8926857190      -16.2572926541      -35.5964245897  TIP3      1966            0.0000000000
     17058      2062  TIP3      H2             15.7391603251      -17.7459551244      -35.8856195064  TIP3      1966            0.0000000000
     17059      2063  TIP3      OH2            12.5447476563      -14.3285184724      -26.5289597373  TIP3      1967            0.0000000000
     17060      2063  TIP3      H1             12.1253248066      -14.2704519225      -27.4112554465  TIP3      1967            0.0000000000
     17061      2063  TIP3      H2             13.1685290360      -15.0632162914      -26.6650947268  TIP3      1967            0.0000000000
     17062      2064  TIP3      OH2            12.6309153043      -11.8069491227      -29.9827216710  TIP3      1968            0.0000000000
     17063      2064  TIP3      H1             13.5867665155      -11.7806389022      -29.8301002707  TIP3      1968            0.0000000000
     17064      2064  TIP3      H2             12.3121386350      -11.0253743307      -29.4965684037  TIP3      1968            0.0000000000
     17065      2065  TIP3      OH2            21.7739415107      -10.9730301141      -25.1878433931  TIP3      1969            0.0000000000
     17066      2065  TIP3      H1             22.0047402454      -10.2282990727      -24.5854030487  TIP3      1969            0.0000000000
     17067      2065  TIP3      H2             21.0316869361      -11.3605932023      -24.7096459515  TIP3      1969            0.0000000000
     17068      2066  TIP3      OH2            22.0129982676       -7.5912484221      -35.2870963194  TIP3      1970            0.0000000000
     17069      2066  TIP3      H1             21.8938091582       -7.2790878774      -36.1958620097  TIP3      1970            0.0000000000
     17070      2066  TIP3      H2             21.9428408299       -6.7456392706      -34.8012544993  TIP3      1970            0.0000000000
     17071      2067  TIP3      OH2            15.6172950500       -8.7212923433      -33.2289769497  TIP3      1971            0.0000000000
     17072      2067  TIP3      H1             15.7700162414       -9.2023942582      -32.3853732651  TIP3      1971            0.0000000000
     17073      2067  TIP3      H2             15.4028474287       -9.4360662053      -33.8719589724  TIP3      1971            0.0000000000
     17074      2068  TIP3      OH2            25.0414378525       -9.0579196294      -38.0839879832  TIP3      1972            0.0000000000
     17075      2068  TIP3      H1             25.3258319262       -9.9813118718      -38.1829132025  TIP3      1972            0.0000000000
     17076      2068  TIP3      H2             24.6367778111       -9.0655026035      -37.1909931290  TIP3      1972            0.0000000000
     17077      2069  TIP3      OH2            24.3809039300       -8.6425629958      -35.5644018953  TIP3      1973            0.0000000000
     17078      2069  TIP3      H1             23.4797887957       -8.3320987677      -35.3084470531  TIP3      1973            0.0000000000
     17079      2069  TIP3      H2             24.6716638521       -9.0588605382      -34.7285169449  TIP3      1973            0.0000000000
     17080      2070  TIP3      OH2            15.0490555829      -13.0712164807      -25.8103326169  TIP3      1974            0.0000000000
     17081      2070  TIP3      H1             15.1666376620      -13.2570871292      -24.8567595301  TIP3      1974            0.0000000000
     17082      2070  TIP3      H2             14.1621319762      -13.4346202860      -25.9564175244  TIP3      1974            0.0000000000
     17083      2071  TIP3      OH2            18.0446189083      -24.3872581375      -29.3673628136  TIP3      1975            0.0000000000
     17084      2071  TIP3      H1             17.3646508314      -24.4440133045      -30.0627077151  TIP3      1975            0.0000000000
     17085      2071  TIP3      H2             17.4715388921      -24.1379221795      -28.6117565235  TIP3      1975            0.0000000000
     17086      2072  TIP3      OH2            22.0999637908      -25.4768233517      -25.5224829884  TIP3      1976            0.0000000000
     17087      2072  TIP3      H1             21.5039110718      -25.0562478889      -24.8409778651  TIP3      1976            0.0000000000
     17088      2072  TIP3      H2             21.5242953261      -25.3569183072      -26.3143791795  TIP3      1976            0.0000000000
     17089      2073  TIP3      OH2            25.5744029621      -21.5501512984      -25.3959431240  TIP3      1977            0.0000000000
     17090      2073  TIP3      H1             25.6226574495      -21.3952071335      -24.4386004708  TIP3      1977            0.0000000000
     17091      2073  TIP3      H2             25.2863883080      -20.6657953618      -25.6960469291  TIP3      1977            0.0000000000
     17092      2074  TIP3      OH2            22.0374636261      -22.5375697431      -38.4756942262  TIP3      1978            0.0000000000
     17093      2074  TIP3      H1             21.2439944428      -22.4320772131      -37.9192965086  TIP3      1978            0.0000000000
     17094      2074  TIP3      H2             21.6063741430      -22.7376160911      -39.3232270657  TIP3      1978            0.0000000000
     17095      2075  TIP3      OH2            17.6926692535      -19.7379051470      -28.4225092373  TIP3      1979            0.0000000000
     17096      2075  TIP3      H1             17.0320842441      -19.7455444538      -27.6968593243  TIP3      1979            0.0000000000
     17097      2075  TIP3      H2             17.6018082553      -18.8017587706      -28.7108834318  TIP3      1979            0.0000000000
     17098      2076  TIP3      OH2            17.5116631734      -19.7625968388      -33.1531370016  TIP3      1980            0.0000000000
     17099      2076  TIP3      H1             16.6527598084      -19.7191910303      -33.6132289470  TIP3      1980            0.0000000000
     17100      2076  TIP3      H2             18.0948383265      -19.9501762677      -33.9198040668  TIP3      1980            0.0000000000
     17101      2077  TIP3      OH2            23.3617982627      -18.6332194028      -34.2089865435  TIP3      1981            0.0000000000
     17102      2077  TIP3      H1             22.8591688670      -18.1709258843      -34.9272424673  TIP3      1981            0.0000000000
     17103      2077  TIP3      H2             23.9842818730      -19.1463664649      -34.7575181779  TIP3      1981            0.0000000000
     17104      2078  TIP3      OH2            21.9951232311      -18.5967009066      -23.4693258139  TIP3      1982            0.0000000000
     17105      2078  TIP3      H1             21.5113507321      -19.2699633186      -22.9433639502  TIP3      1982            0.0000000000
     17106      2078  TIP3      H2             22.4884016150      -18.0979781006      -22.8006051037  TIP3      1982            0.0000000000
     17107      2079  TIP3      OH2            24.6719873905      -19.0591056845      -31.6149687337  TIP3      1983            0.0000000000
     17108      2079  TIP3      H1             25.4537208542      -18.9190417669      -32.1594676746  TIP3      1983            0.0000000000
     17109      2079  TIP3      H2             24.3959626974      -19.9297588091      -31.9213808611  TIP3      1983            0.0000000000
     17110      2080  TIP3      OH2            15.0995407005      -19.7593456659      -26.9232773382  TIP3      1984            0.0000000000
     17111      2080  TIP3      H1             15.4188909759      -19.3268652392      -26.1111644111  TIP3      1984            0.0000000000
     17112      2080  TIP3      H2             14.8647679581      -20.6531446932      -26.6225350963  TIP3      1984            0.0000000000
     17113      2081  TIP3      OH2            18.8318442617      -21.4041545491      -38.7636064731  TIP3      1985            0.0000000000
     17114      2081  TIP3      H1             18.2771015313      -22.1017011006      -38.3566272442  TIP3      1985            0.0000000000
     17115      2081  TIP3      H2             18.2862092260      -20.6084721528      -38.6016674198  TIP3      1985            0.0000000000
     17116      2082  TIP3      OH2            11.9306576994      -22.3462413633      -32.3839218628  TIP3      1986            0.0000000000
     17117      2082  TIP3      H1             12.3799378786      -22.1866815274      -31.5313419577  TIP3      1986            0.0000000000
     17118      2082  TIP3      H2             12.4241663255      -21.7749562266      -32.9834438365  TIP3      1986            0.0000000000
     17119      2083  TIP3      OH2            12.8073434510      -21.6288287202      -36.6525458006  TIP3      1987            0.0000000000
     17120      2083  TIP3      H1             13.3720562953      -21.1722068359      -37.3054155292  TIP3      1987            0.0000000000
     17121      2083  TIP3      H2             12.3211727059      -20.8695799367      -36.2923772138  TIP3      1987            0.0000000000
     17122      2084  TIP3      OH2            23.1151671210      -18.3184393699      -27.4517532451  TIP3      1988            0.0000000000
     17123      2084  TIP3      H1             23.6573675518      -19.0138814004      -27.8635162905  TIP3      1988            0.0000000000
     17124      2084  TIP3      H2             22.5059189808      -18.8497265311      -26.8941755013  TIP3      1988            0.0000000000
     17125      2085  TIP3      OH2            20.4441321428      -22.1306625866      -32.2500512138  TIP3      1989            0.0000000000
     17126      2085  TIP3      H1             19.4996742854      -22.3371729691      -32.1048016993  TIP3      1989            0.0000000000
     17127      2085  TIP3      H2             20.7675305654      -22.1299445223      -31.3242965418  TIP3      1989            0.0000000000
     17128      2086  TIP3      OH2            14.7212036815      -20.6376077152      -33.2578903975  TIP3      1990            0.0000000000
     17129      2086  TIP3      H1             14.0952036663      -20.3271469389      -33.9518947230  TIP3      1990            0.0000000000
     17130      2086  TIP3      H2             15.0821468646      -21.4611741957      -33.6346626148  TIP3      1990            0.0000000000
     17131      2087  TIP3      OH2            18.5320967791      -20.4346521402      -35.6466186605  TIP3      1991            0.0000000000
     17132      2087  TIP3      H1             19.4899437501      -20.2850265957      -35.7068648995  TIP3      1991            0.0000000000
     17133      2087  TIP3      H2             18.1948694697      -19.7898606326      -36.2885845367  TIP3      1991            0.0000000000
     17134      2088  TIP3      OH2            25.3620031521      -23.4086479502      -29.1215022210  TIP3      1992            0.0000000000
     17135      2088  TIP3      H1             24.4298338737      -23.5201311188      -28.9089466444  TIP3      1992            0.0000000000
     17136      2088  TIP3      H2             25.3482244012      -22.4786027373      -29.3948260727  TIP3      1992            0.0000000000
     17137      2089  TIP3      OH2            17.0998279209      -19.1306640197      -38.4618868073  TIP3      1993            0.0000000000
     17138      2089  TIP3      H1             16.8900174485      -19.0358908468      -39.4123796265  TIP3      1993            0.0000000000
     17139      2089  TIP3      H2             17.9998025176      -18.7550373797      -38.3951932439  TIP3      1993            0.0000000000
     17140      2090  TIP3      OH2            15.1288545440      -14.4410251064      -23.4715359903  TIP3      1994            0.0000000000
     17141      2090  TIP3      H1             15.9477013104      -13.9976586819      -23.1385958704  TIP3      1994            0.0000000000
     17142      2090  TIP3      H2             14.5583513320      -14.2968839702      -22.7002885555  TIP3      1994            0.0000000000
     17143      2091  TIP3      OH2            21.4781263712      -19.3888857856      -30.6406788875  TIP3      1995            0.0000000000
     17144      2091  TIP3      H1             22.2235734399      -20.0007147524      -30.4718435787  TIP3      1995            0.0000000000
     17145      2091  TIP3      H2             20.8854601104      -19.7804843060      -29.9638804846  TIP3      1995            0.0000000000
     17146      2092  TIP3      OH2            16.0175878640      -22.9880033301      -33.8890805127  TIP3      1996            0.0000000000
     17147      2092  TIP3      H1             15.4689084078      -23.7272571416      -33.5340062452  TIP3      1996            0.0000000000
     17148      2092  TIP3      H2             16.6253325470      -23.4697752027      -34.4766700019  TIP3      1996            0.0000000000
     17149      2093  TIP3      OH2            20.2945014088      -20.6920653992      -28.6104510728  TIP3      1997            0.0000000000
     17150      2093  TIP3      H1             19.4059680220      -20.3360956420      -28.3808339139  TIP3      1997            0.0000000000
     17151      2093  TIP3      H2             20.7621344246      -20.5556448449      -27.7626189113  TIP3      1997            0.0000000000
     17152      2094  TIP3      OH2            20.7796411164      -14.8778853804      -35.9194599951  TIP3      1998            0.0000000000
     17153      2094  TIP3      H1             19.9321672826      -15.1721216436      -36.3262400042  TIP3      1998            0.0000000000
     17154      2094  TIP3      H2             20.3985465801      -14.3772713394      -35.1503298232  TIP3      1998            0.0000000000
     17155      2095  TIP3      OH2            24.9511147739      -21.8294809196      -37.8289779872  TIP3      1999            0.0000000000
     17156      2095  TIP3      H1             24.0820671773      -21.8109044339      -38.2559450400  TIP3      1999            0.0000000000
     17157      2095  TIP3      H2             24.9544757423      -20.9655842407      -37.3770515786  TIP3      1999            0.0000000000
     17158      2096  TIP3      OH2            21.8400865545      -14.4511347373      -25.4672994032  TIP3      2000            0.0000000000
     17159      2096  TIP3      H1             21.0860577157      -15.0566995341      -25.6088940681  TIP3      2000            0.0000000000
     17160      2096  TIP3      H2             21.4410086502      -13.5690515550      -25.5465094430  TIP3      2000            0.0000000000
     17161      2097  TIP3      OH2            25.0956855976      -19.3296103630      -36.6693386153  TIP3      2001            0.0000000000
     17162      2097  TIP3      H1             26.0354191075      -19.4259556523      -36.9465618609  TIP3      2001            0.0000000000
     17163      2097  TIP3      H2             24.9353333408      -18.3800204114      -36.8671902895  TIP3      2001            0.0000000000
     17164      2098  TIP3      OH2            15.9017100549      -15.1844232291      -30.7223449060  TIP3      2002            0.0000000000
     17165      2098  TIP3      H1             16.4120598206      -15.4074900933      -31.5200636315  TIP3      2002            0.0000000000
     17166      2098  TIP3      H2             16.0231955558      -15.9433587419      -30.1328280336  TIP3      2002            0.0000000000
     17167      2099  TIP3      OH2            22.6142285345      -13.2671504595      -36.8932546567  TIP3      2003            0.0000000000
     17168      2099  TIP3      H1             22.1975896113      -12.4058055345      -36.6880555564  TIP3      2003            0.0000000000
     17169      2099  TIP3      H2             21.8741652605      -13.8888974738      -36.7063606206  TIP3      2003            0.0000000000
     17170      2100  TIP3      OH2            13.1397261608      -17.0545503373      -25.5961742763  TIP3      2004            0.0000000000
     17171      2100  TIP3      H1             12.7106436781      -17.3043597361      -24.7651803317  TIP3      2004            0.0000000000
     17172      2100  TIP3      H2             12.4627521580      -17.3463493193      -26.2339203520  TIP3      2004            0.0000000000
     17173      2101  TIP3      OH2            19.5700166163      -17.4448333017      -23.6195745084  TIP3      2005            0.0000000000
     17174      2101  TIP3      H1             19.6571913119      -16.9151742012      -24.4416170881  TIP3      2005            0.0000000000
     17175      2101  TIP3      H2             20.3571432224      -18.0243732311      -23.6942178208  TIP3      2005            0.0000000000
     17176      2102  TIP3      OH2            24.3030635473      -11.9130812048      -24.9091125445  TIP3      2006            0.0000000000
     17177      2102  TIP3      H1             23.4154298238      -11.9598736609      -25.3192150983  TIP3      2006            0.0000000000
     17178      2102  TIP3      H2             24.5912681177      -11.0448489284      -25.2556512794  TIP3      2006            0.0000000000
     17179      2103  TIP3      OH2            24.8979471824      -15.7725920932      -28.9979621954  TIP3      2007            0.0000000000
     17180      2103  TIP3      H1             24.6090588462      -16.1372695253      -29.8453398192  TIP3      2007            0.0000000000
     17181      2103  TIP3      H2             25.8238183630      -15.5525715587      -29.2233901896  TIP3      2007            0.0000000000
     17182      2104  TIP3      OH2            17.9798973708      -11.9546577347      -32.8734684058  TIP3      2008            0.0000000000
     17183      2104  TIP3      H1             18.3327168808      -11.0584343397      -33.0286357344  TIP3      2008            0.0000000000
     17184      2104  TIP3      H2             17.2070101601      -11.9418084740      -33.4882565947  TIP3      2008            0.0000000000
     17185      2105  TIP3      OH2            14.5063323944      -16.8982441454      -38.2827705949  TIP3      2009            0.0000000000
     17186      2105  TIP3      H1             14.8314768455      -16.0483341237      -37.9053230398  TIP3      2009            0.0000000000
     17187      2105  TIP3      H2             13.6405860082      -16.6592414526      -38.6335753916  TIP3      2009            0.0000000000
     17188      2106  TIP3      OH2            19.4882148951      -14.1147315363      -33.6347112955  TIP3      2010            0.0000000000
     17189      2106  TIP3      H1             18.9676490610      -13.3278144973      -33.3652391891  TIP3      2010            0.0000000000
     17190      2106  TIP3      H2             18.9162527178      -14.8437625791      -33.3310173971  TIP3      2010            0.0000000000
     17191      2107  TIP3      OH2            20.2981894434       -9.6391492056      -27.1578715967  TIP3      2011            0.0000000000
     17192      2107  TIP3      H1             20.8185035269       -8.8634044062      -27.3811836979  TIP3      2011            0.0000000000
     17193      2107  TIP3      H2             20.9063765581      -10.0991161067      -26.5359801706  TIP3      2011            0.0000000000
     17194      2108  TIP3      OH2            18.6446588155       -9.0071859942      -33.8026492552  TIP3      2012            0.0000000000
     17195      2108  TIP3      H1             17.6734191888       -9.0442422594      -33.7602372742  TIP3      2012            0.0000000000
     17196      2108  TIP3      H2             18.8208387235       -8.0396297803      -33.7918701942  TIP3      2012            0.0000000000
     17197      2109  TIP3      OH2            23.5156850337      -13.8912331681      -27.7600155289  TIP3      2013            0.0000000000
     17198      2109  TIP3      H1             23.1002283929      -14.2260766493      -26.9384338791  TIP3      2013            0.0000000000
     17199      2109  TIP3      H2             23.9450845032      -14.6812393131      -28.1729343195  TIP3      2013            0.0000000000
     17200      2110  TIP3      OH2            24.8071489466      -13.5587161265      -38.3761481567  TIP3      2014            0.0000000000
     17201      2110  TIP3      H1             25.3591713810      -13.2814905203      -37.6287442069  TIP3      2014            0.0000000000
     17202      2110  TIP3      H2             23.9182995716      -13.3867793140      -37.9929632569  TIP3      2014            0.0000000000
     17203      2111  TIP3      OH2            14.1979668263      -22.5204694275      -26.2143337258  TIP3      2015            0.0000000000
     17204      2111  TIP3      H1             13.3893026925      -21.9862684967      -26.1074413340  TIP3      2015            0.0000000000
     17205      2111  TIP3      H2             13.7938012958      -23.4179257712      -26.2748776139  TIP3      2015            0.0000000000
     17206      2112  TIP3      OH2            14.0815536352      -10.2311413655      -27.6160035115  TIP3      2016            0.0000000000
     17207      2112  TIP3      H1             14.9011165248      -10.7513901733      -27.5498322664  TIP3      2016            0.0000000000
     17208      2112  TIP3      H2             13.8755592717      -10.0897132314      -26.6852236202  TIP3      2016            0.0000000000
     17209      2113  TIP3      OH2            18.4835484633      -12.0941413707      -37.5059009329  TIP3      2017            0.0000000000
     17210      2113  TIP3      H1             18.0915620876      -12.3147093935      -36.6441152191  TIP3      2017            0.0000000000
     17211      2113  TIP3      H2             18.5133962078      -11.1134678845      -37.4031721469  TIP3      2017            0.0000000000
     17212      2114  TIP3      OH2            15.1924279632      -14.8083009092      -36.7788809554  TIP3      2018            0.0000000000
     17213      2114  TIP3      H1             14.4617219881      -14.4801764829      -36.2101904551  TIP3      2018            0.0000000000
     17214      2114  TIP3      H2             15.5754815769      -13.9571426092      -37.0550017205  TIP3      2018            0.0000000000
     17215      2115  TIP3      OH2            22.5846339545      -22.4796389530      -25.6476728456  TIP3      2019            0.0000000000
     17216      2115  TIP3      H1             23.5265015744      -22.7133455008      -25.7232506354  TIP3      2019            0.0000000000
     17217      2115  TIP3      H2             22.1565448878      -23.3482721108      -25.6062162405  TIP3      2019            0.0000000000
     17218      2116  TIP3      OH2            23.7447652007      -23.1900651107      -35.7067245737  TIP3      2020            0.0000000000
     17219      2116  TIP3      H1             23.4399021457      -22.8888068458      -36.5829053287  TIP3      2020            0.0000000000
     17220      2116  TIP3      H2             23.9182560693      -22.3312200854      -35.2722130902  TIP3      2020            0.0000000000
     17221      2117  TIP3      OH2            21.5351622691      -10.8137450973      -36.4947980079  TIP3      2021            0.0000000000
     17222      2117  TIP3      H1             20.6631652310      -10.3728188958      -36.5742923397  TIP3      2021            0.0000000000
     17223      2117  TIP3      H2             22.0103641480      -10.4529956885      -37.2781863059  TIP3      2021            0.0000000000
     17224      2118  TIP3      OH2            21.4169824311      -20.7194543676      -34.6063506327  TIP3      2022            0.0000000000
     17225      2118  TIP3      H1             22.2308719870      -20.2448440821      -34.3592823775  TIP3      2022            0.0000000000
     17226      2118  TIP3      H2             21.0962338185      -21.0193212986      -33.7298407599  TIP3      2022            0.0000000000
     17227      2119  TIP3      OH2            21.4260058536      -20.1036845264      -26.0304383223  TIP3      2023            0.0000000000
     17228      2119  TIP3      H1             21.3352854468      -19.8766845500      -25.0964910176  TIP3      2023            0.0000000000
     17229      2119  TIP3      H2             21.8407789652      -21.0000841451      -25.9584955063  TIP3      2023            0.0000000000
     17230      2120  TIP3      OH2            21.9654142476      -23.8559143546      -33.7094934579  TIP3      2024            0.0000000000
     17231      2120  TIP3      H1             21.4467704059      -23.3787350044      -33.0258890903  TIP3      2024            0.0000000000
     17232      2120  TIP3      H2             22.5941716663      -23.1381905820      -33.9154050800  TIP3      2024            0.0000000000
     17233      2121  TIP3      OH2            18.8249068771       -9.6068323854      -36.7525237987  TIP3      2025            0.0000000000
     17234      2121  TIP3      H1             18.7759983699       -8.7082844496      -37.1217092583  TIP3      2025            0.0000000000
     17235      2121  TIP3      H2             18.6192104536       -9.4336708636      -35.8133283689  TIP3      2025            0.0000000000
     17236      2122  TIP3      OH2            17.2967544079      -22.9748148542      -36.9969033507  TIP3      2026            0.0000000000
     17237      2122  TIP3      H1             17.2423336467      -22.2295263581      -36.3784235938  TIP3      2026            0.0000000000
     17238      2122  TIP3      H2             18.2049746875      -23.2776580756      -36.8205718672  TIP3      2026            0.0000000000
     17239      2123  TIP3      OH2            15.8305274692      -12.2673721086      -38.0616578765  TIP3      2027            0.0000000000
     17240      2123  TIP3      H1             16.0209412610      -11.8023159574      -37.2129272935  TIP3      2027            0.0000000000
     17241      2123  TIP3      H2             16.7250291301      -12.3985028719      -38.4269243626  TIP3      2027            0.0000000000
     17242      2124  TIP3      OH2            13.8002298306      -19.4434346275      -38.1937552525  TIP3      2028            0.0000000000
     17243      2124  TIP3      H1             14.3388938876      -18.6204076231      -38.1763531306  TIP3      2028            0.0000000000
     17244      2124  TIP3      H2             12.9226442419      -19.0145419939      -38.1554827240  TIP3      2028            0.0000000000
     17245      2125  TIP3      OH2            15.1632122484      -24.7474916049      -30.2847443643  TIP3      2029            0.0000000000
     17246      2125  TIP3      H1             14.8831972650      -24.9353577730      -31.1938216700  TIP3      2029            0.0000000000
     17247      2125  TIP3      H2             15.1447466928      -25.6552645644      -29.9025414961  TIP3      2029            0.0000000000
     17248      2126  TIP3      OH2            13.1642177690      -11.3859257914      -34.2909046880  TIP3      2030            0.0000000000
     17249      2126  TIP3      H1             12.8177503268      -10.5622847659      -34.6554424334  TIP3      2030            0.0000000000
     17250      2126  TIP3      H2             14.1193072214      -11.2461151779      -34.4886273113  TIP3      2030            0.0000000000
     17251      2127  TIP3      OH2            13.3215710900       -8.7669214679      -23.3802937168  TIP3      2031            0.0000000000
     17252      2127  TIP3      H1             13.4491595982       -8.8544742130      -22.4321637127  TIP3      2031            0.0000000000
     17253      2127  TIP3      H2             13.0181614444       -9.6637355205      -23.6305348476  TIP3      2031            0.0000000000
     17254      2128  TIP3      OH2            21.8617010355       -9.9897881697      -39.2148154047  TIP3      2032            0.0000000000
     17255      2128  TIP3      H1             20.9597793317      -10.3255229738      -39.1896495587  TIP3      2032            0.0000000000
     17256      2128  TIP3      H2             22.0021884990       -9.9513328987      -40.1851205108  TIP3      2032            0.0000000000
     17257      2129  TIP3      OH2            24.2011754865      -11.2491281632      -22.3565215602  TIP3      2033            0.0000000000
     17258      2129  TIP3      H1             24.0955745475      -11.5654260899      -23.2756792642  TIP3      2033            0.0000000000
     17259      2129  TIP3      H2             25.1376165018      -11.4429838068      -22.2261830808  TIP3      2033            0.0000000000
     17260      2130  TIP3      OH2            13.2452866879      -14.4260322990      -21.3863285151  TIP3      2034            0.0000000000
     17261      2130  TIP3      H1             13.0781160613      -15.2250120690      -21.9086519298  TIP3      2034            0.0000000000
     17262      2130  TIP3      H2             12.5021550492      -13.8554453421      -21.6448986827  TIP3      2034            0.0000000000
     17263      2131  TIP3      OH2            17.7386950734      -14.6999921156      -39.3450068773  TIP3      2035            0.0000000000
     17264      2131  TIP3      H1             17.6819318797      -15.1152101822      -38.4695951472  TIP3      2035            0.0000000000
     17265      2131  TIP3      H2             18.6304083941      -14.3309986056      -39.2815811158  TIP3      2035            0.0000000000
     17266      2132  TIP3      OH2            25.3664930456      -14.4862608692      -24.3850098611  TIP3      2036            0.0000000000
     17267      2132  TIP3      H1             25.9136961091      -14.2741487216      -25.1617547684  TIP3      2036            0.0000000000
     17268      2132  TIP3      H2             24.6897121186      -13.7936005270      -24.5038958013  TIP3      2036            0.0000000000
     17269      2133  TIP3      OH2            13.5341694498      -17.6877986504      -22.2571978112  TIP3      2037            0.0000000000
     17270      2133  TIP3      H1             14.1374449085      -17.9620419470      -22.9615774814  TIP3      2037            0.0000000000
     17271      2133  TIP3      H2             14.1520731881      -17.7012850263      -21.5124454507  TIP3      2037            0.0000000000
     17272      2134  TIP3      OH2            18.7220872901      -16.0836178291      -37.1367341142  TIP3      2038            0.0000000000
     17273      2134  TIP3      H1             17.9960002429      -16.4240476896      -36.5888179569  TIP3      2038            0.0000000000
     17274      2134  TIP3      H2             19.0453619682      -16.8939379293      -37.5903615367  TIP3      2038            0.0000000000
     17275      2135  TIP3      OH2            17.4444645277      -18.5710345796      -25.9488748674  TIP3      2039            0.0000000000
     17276      2135  TIP3      H1             16.8372870176      -17.8066311327      -25.8085620068  TIP3      2039            0.0000000000
     17277      2135  TIP3      H2             18.2822057964      -18.1039858888      -25.8221667924  TIP3      2039            0.0000000000
     17278      2136  TIP3      OH2            19.6910593951      -18.3141054246      -38.3985918841  TIP3      2040            0.0000000000
     17279      2136  TIP3      H1             19.4733719285      -18.2288569177      -39.3598238454  TIP3      2040            0.0000000000
     17280      2136  TIP3      H2             20.6670085719      -18.3610741745      -38.5215218159  TIP3      2040            0.0000000000
     17281      2137  TIP3      OH2            18.1636068215      -20.7601828161      -24.4987181203  TIP3      2041            0.0000000000
     17282      2137  TIP3      H1             18.3717180496      -21.5237078108      -25.0760663400  TIP3      2041            0.0000000000
     17283      2137  TIP3      H2             17.9225388557      -20.0707149747      -25.1576755834  TIP3      2041            0.0000000000
     17284      2138  TIP3      OH2            18.7299046232      -22.6032919785      -26.5174404610  TIP3      2042            0.0000000000
     17285      2138  TIP3      H1             19.2605004495      -22.7198094210      -27.3223003354  TIP3      2042            0.0000000000
     17286      2138  TIP3      H2             17.8322227584      -22.8308606074      -26.8356335798  TIP3      2042            0.0000000000
     17287      2139  TIP3      OH2            20.0402282131      -16.6066663638      -26.0710740118  TIP3      2043            0.0000000000
     17288      2139  TIP3      H1             20.6671015546      -17.1471667062      -26.5825767546  TIP3      2043            0.0000000000
     17289      2139  TIP3      H2             19.5135893318      -16.1346106108      -26.7596524735  TIP3      2043            0.0000000000
     17290      2140  TIP3      OH2            15.7337027908      -19.7177618516      -22.8352628950  TIP3      2044            0.0000000000
     17291      2140  TIP3      H1             15.6610413463      -20.6007872078      -23.2203348242  TIP3      2044            0.0000000000
     17292      2140  TIP3      H2             16.6585415876      -19.5235156192      -23.0494802008  TIP3      2044            0.0000000000
     17293      2141  TIP3      OH2            19.9294882243      -25.1335285831      -27.0441237678  TIP3      2045            0.0000000000
     17294      2141  TIP3      H1             19.5116010422      -24.4633487380      -26.4779267864  TIP3      2045            0.0000000000
     17295      2141  TIP3      H2             19.3718968469      -25.8975697016      -26.8441170300  TIP3      2045            0.0000000000
     17296      2142  TIP3      OH2            20.2814777483      -20.5688854870      -22.6646422301  TIP3      2046            0.0000000000
     17297      2142  TIP3      H1             19.6843393073      -20.0777177959      -22.0695552294  TIP3      2046            0.0000000000
     17298      2142  TIP3      H2             19.6003985123      -20.9875834606      -23.2486466844  TIP3      2046            0.0000000000
     17299      2143  TIP3      OH2            15.6188924553      -22.4774740230      -21.7687662636  TIP3      2047            0.0000000000
     17300      2143  TIP3      H1             16.4517520473      -22.8889169131      -22.0804436672  TIP3      2047            0.0000000000
     17301      2143  TIP3      H2             15.9693080946      -21.7716349360      -21.2059880681  TIP3      2047            0.0000000000
     17302      2144  TIP3      OH2            19.3332825647       -6.9490049086      -37.7622340461  TIP3      2048            0.0000000000
     17303      2144  TIP3      H1             20.2750428271       -6.9566146129      -37.9739428903  TIP3      2048            0.0000000000
     17304      2144  TIP3      H2             18.9607411597       -6.7961828883      -38.6375629300  TIP3      2048            0.0000000000
     17305      2145  TIP3      OH2            13.1810836097      -12.6612915207      -38.4803482071  TIP3      2049            0.0000000000
     17306      2145  TIP3      H1             14.1489028914      -12.5270260767      -38.3444588761  TIP3      2049            0.0000000000
     17307      2145  TIP3      H2             13.2341102665      -13.2616800905      -39.2413611560  TIP3      2049            0.0000000000
     17308      2146  TIP3      OH2            11.7071254731       -7.4640826376      -33.6816818418  TIP3      2050            0.0000000000
     17309      2146  TIP3      H1             11.1366653939       -8.0926050918      -34.1779918274  TIP3      2050            0.0000000000
     17310      2146  TIP3      H2             12.1444449399       -8.0775542011      -33.0467761439  TIP3      2050            0.0000000000
     17311      2147  TIP3      OH2            12.7498312371       -9.1113294916      -31.8199611267  TIP3      2051            0.0000000000
     17312      2147  TIP3      H1             12.5928810988      -10.0680508042      -31.7315119645  TIP3      2051            0.0000000000
     17313      2147  TIP3      H2             13.3856690579       -8.9192943062      -31.0988382735  TIP3      2051            0.0000000000
     17314      2148  TIP3      OH2            12.9445982408      -15.8056549022      -29.1769811201  TIP3      2052            0.0000000000
     17315      2148  TIP3      H1             12.9106297842      -16.1539365600      -30.1000888793  TIP3      2052            0.0000000000
     17316      2148  TIP3      H2             13.7857051964      -16.2207949246      -28.8720282117  TIP3      2052            0.0000000000
     17317      2149  TIP3      OH2            12.3261720762      -20.4519804503      -23.2396565502  TIP3      2053            0.0000000000
     17318      2149  TIP3      H1             13.0377602592      -20.7379772816      -22.6473280710  TIP3      2053            0.0000000000
     17319      2149  TIP3      H2             11.5623188521      -20.9475148081      -22.9330936871  TIP3      2053            0.0000000000
     17320      2150  TIP3      OH2            13.4689711817      -22.5870896294      -30.0208656491  TIP3      2054            0.0000000000
     17321      2150  TIP3      H1             13.9961454350      -23.3953402621      -29.8673479019  TIP3      2054            0.0000000000
     17322      2150  TIP3      H2             14.1827288497      -21.9319664351      -30.0522061039  TIP3      2054            0.0000000000
     17323      2151  TIP3      OH2            12.1251652216      -19.7107332114      -29.1282441693  TIP3      2055            0.0000000000
     17324      2151  TIP3      H1             12.6006544380      -19.7872990953      -29.9810071562  TIP3      2055            0.0000000000
     17325      2151  TIP3      H2             12.8342090403      -19.4475537981      -28.5235790763  TIP3      2055            0.0000000000
     17326      2152  TIP3      OH2            12.3867688462      -23.6517362096      -34.9886896318  TIP3      2056            0.0000000000
     17327      2152  TIP3      H1             11.4399385717      -23.7604490412      -35.1196616170  TIP3      2056            0.0000000000
     17328      2152  TIP3      H2             12.5418050385      -22.8423807880      -35.5231793508  TIP3      2056            0.0000000000
     17329      2153  TIP3      OH2            12.6282321716      -24.6398380362      -26.9412913289  TIP3      2057            0.0000000000
     17330      2153  TIP3      H1             12.0071189734      -25.2267541671      -26.4613801960  TIP3      2057            0.0000000000
     17331      2153  TIP3      H2             12.0135893734      -24.1044486535      -27.4773868466  TIP3      2057            0.0000000000
     17332      2154  TIP3      OH2            17.6521213761      -10.0913132594      -27.2547141863  TIP3      2058            0.0000000000
     17333      2154  TIP3      H1             17.5049691674       -9.1287207409      -27.1293400302  TIP3      2058            0.0000000000
     17334      2154  TIP3      H2             18.6300779540      -10.1011446881      -27.1544151842  TIP3      2058            0.0000000000
     17335      2155  TIP3      OH2            21.8923504970       -8.7231836448      -23.6669636762  TIP3      2059            0.0000000000
     17336      2155  TIP3      H1             21.9637459080       -8.8953008960      -22.6912118766  TIP3      2059            0.0000000000
     17337      2155  TIP3      H2             22.4111754566       -7.8902049785      -23.7274525160  TIP3      2059            0.0000000000
     17338      2156  TIP3      OH2            23.6839526636       -6.7581488102      -23.9262572924  TIP3      2060            0.0000000000
     17339      2156  TIP3      H1             24.2210820368       -7.3374060883      -24.4859807786  TIP3      2060            0.0000000000
     17340      2156  TIP3      H2             24.2231787692       -6.6880843238      -23.1114143422  TIP3      2060            0.0000000000
     17341      2157  TIP3      OH2            14.8686427137       -7.1317042811      -26.6500468746  TIP3      2061            0.0000000000
     17342      2157  TIP3      H1             14.0485132514       -6.5985592856      -26.7563975891  TIP3      2061            0.0000000000
     17343      2157  TIP3      H2             14.7800539002       -7.4484625066      -25.7409635490  TIP3      2061            0.0000000000
     17344      2158  TIP3      OH2            17.3500133123       -7.3932680284      -27.6406753782  TIP3      2062            0.0000000000
     17345      2158  TIP3      H1             16.4974135151       -7.1128828480      -27.2300792907  TIP3      2062            0.0000000000
     17346      2158  TIP3      H2             17.1565004352       -7.3001189576      -28.5781247224  TIP3      2062            0.0000000000
     17347      2159  TIP3      OH2            22.4435791252       -7.6135749993      -28.6547168235  TIP3      2063            0.0000000000
     17348      2159  TIP3      H1             21.5860999360       -7.5385148049      -29.1100379552  TIP3      2063            0.0000000000
     17349      2159  TIP3      H2             22.3378368604       -6.9553190307      -27.9287176940  TIP3      2063            0.0000000000
     17350      2160  TIP3      OH2            23.9032751156       -9.2432140378      -26.8737064698  TIP3      2064            0.0000000000
     17351      2160  TIP3      H1             23.3800162090       -8.7741548379      -27.5566411630  TIP3      2064            0.0000000000
     17352      2160  TIP3      H2             24.6207930374       -8.6148089255      -26.7493359016  TIP3      2064            0.0000000000
     17353      2161  TIP3      OH2            14.2828448349       -8.6830504963      -29.6912927608  TIP3      2065            0.0000000000
     17354      2161  TIP3      H1             14.0415328701       -9.2001321488      -28.8849411748  TIP3      2065            0.0000000000
     17355      2161  TIP3      H2             15.1591274922       -9.0875598741      -29.9048583302  TIP3      2065            0.0000000000
     17356      2162  TIP3      OH2            16.4066991276       -9.7779545462      -30.7579679452  TIP3      2066            0.0000000000
     17357      2162  TIP3      H1             16.3176311757      -10.7284195914      -30.5200880748  TIP3      2066            0.0000000000
     17358      2162  TIP3      H2             17.3772581058       -9.6607964217      -30.6762163330  TIP3      2066            0.0000000000
     17359      2163  TIP3      OH2            18.9747676662       -9.5473644808      -30.2744412416  TIP3      2067            0.0000000000
     17360      2163  TIP3      H1             19.1280464537      -10.4947633033      -30.0541031128  TIP3      2067            0.0000000000
     17361      2163  TIP3      H2             19.2269250698       -9.1108851801      -29.4512252520  TIP3      2067            0.0000000000
     17362      2164  TIP3      OH2            22.4787194455      -23.6188157966      -30.7542107110  TIP3      2068            0.0000000000
     17363      2164  TIP3      H1             21.7384367207      -24.1957377398      -30.9955753477  TIP3      2068            0.0000000000
     17364      2164  TIP3      H2             23.2480317836      -24.1799202669      -30.9016169633  TIP3      2068            0.0000000000
     17365      2165  TIP3      OH2            14.3979177244      -25.0231505979      -33.3493363127  TIP3      2069            0.0000000000
     17366      2165  TIP3      H1             13.7622252124      -24.5745804384      -33.9551380050  TIP3      2069            0.0000000000
     17367      2165  TIP3      H2             14.2989794728      -25.9392170190      -33.6569371746  TIP3      2069            0.0000000000
     17368      2166  TIP3      OH2            13.7130062393      -25.2041821738      -37.0152960024  TIP3      2070            0.0000000000
     17369      2166  TIP3      H1             13.6215847471      -24.9189477371      -37.9407222769  TIP3      2070            0.0000000000
     17370      2166  TIP3      H2             13.1414689212      -24.5776818533      -36.5292132073  TIP3      2070            0.0000000000
     17371      2167  TIP3      OH2            19.0509116074      -24.6042756688      -33.6953220744  TIP3      2071            0.0000000000
     17372      2167  TIP3      H1             19.8258811428      -24.2035954303      -34.1104453259  TIP3      2071            0.0000000000
     17373      2167  TIP3      H2             19.4546585906      -24.9631480538      -32.8748554162  TIP3      2071            0.0000000000
     17374      2168  TIP3      OH2            24.5880474302      -25.0949534296      -32.0293739726  TIP3      2072            0.0000000000
     17375      2168  TIP3      H1             25.3205231184      -24.4625181354      -31.8102000798  TIP3      2072            0.0000000000
     17376      2168  TIP3      H2             24.7205667142      -25.8108687376      -31.3887396641  TIP3      2072            0.0000000000
     17377      2169  TIP3      OH2            13.4169325975       -9.1216482829      -36.0401947664  TIP3      2073            0.0000000000
     17378      2169  TIP3      H1             12.6899878537       -9.4460089418      -36.5989435196  TIP3      2073            0.0000000000
     17379      2169  TIP3      H2             13.3658144155       -8.1709540374      -36.2455091883  TIP3      2073            0.0000000000
     17380      2170  TIP3      OH2            14.8016004773      -23.2107677992      -38.9225325538  TIP3      2074            0.0000000000
     17381      2170  TIP3      H1             15.5101715077      -23.8740032177      -38.9745891923  TIP3      2074            0.0000000000
     17382      2170  TIP3      H2             15.1922488197      -22.5448217364      -38.3515418043  TIP3      2074            0.0000000000
     17383      2171  TIP3      OH2            20.3866166089      -23.1038519358      -36.2023062066  TIP3      2075            0.0000000000
     17384      2171  TIP3      H1             21.0309401132      -23.6544313831      -35.7273203932  TIP3      2075            0.0000000000
     17385      2171  TIP3      H2             20.5371673544      -22.2459676009      -35.7659473198  TIP3      2075            0.0000000000
     17386      2172  TIP3      OH2            22.4309413201       -7.4145861118      -38.1588804046  TIP3      2076            0.0000000000
     17387      2172  TIP3      H1             23.3912329456       -7.5542841335      -38.0650425579  TIP3      2076            0.0000000000
     17388      2172  TIP3      H2             22.2345865672       -8.2286926065      -38.6644692283  TIP3      2076            0.0000000000
     17389      2173  TIP3      OH2            14.9121376457       -9.0697530554      -38.4995618199  TIP3      2077            0.0000000000
     17390      2173  TIP3      H1             14.5047970673       -8.6528599606      -37.7126890697  TIP3      2077            0.0000000000
     17391      2173  TIP3      H2             15.1467285702       -9.9450630066      -38.1481783992  TIP3      2077            0.0000000000
     17392      2174  TIP3      OH2            24.6834073901       26.1354557741      -21.3752164817  TIP3      2078            0.0000000000
     17393      2174  TIP3      H1             24.3827207500       25.2313164037      -21.1746327129  TIP3      2078            0.0000000000
     17394      2174  TIP3      H2             24.7480278131       26.0858437162      -22.3537306490  TIP3      2078            0.0000000000
     17395      2175  TIP3      OH2           -13.8003057890        3.0138239868      -33.4004141937  TIP3      2079            0.0000000000
     17396      2175  TIP3      H1            -13.8814650638        3.9732034665      -33.2029539144  TIP3      2079            0.0000000000
     17397      2175  TIP3      H2            -14.5448261057        2.9042150161      -34.0101691066  TIP3      2079            0.0000000000
     17398      2176  TIP3      OH2           -15.1188814659        1.8201969784      -29.8461587340  TIP3      2080            0.0000000000
     17399      2176  TIP3      H1            -15.1135235260        1.3622141504      -28.9891359317  TIP3      2080            0.0000000000
     17400      2176  TIP3      H2            -15.7602163990        1.3042855502      -30.3702316295  TIP3      2080            0.0000000000
     17401      2177  TIP3      OH2           -23.0443061209        1.2808639125      -28.5639438627  TIP3      2081            0.0000000000
     17402      2177  TIP3      H1            -23.2930865158        0.4655555905      -28.0651078083  TIP3      2081            0.0000000000
     17403      2177  TIP3      H2            -22.2586993693        1.5750774585      -28.0784170191  TIP3      2081            0.0000000000
     17404      2178  TIP3      OH2           -12.1255006172        4.8964270358      -31.1696166783  TIP3      2082            0.0000000000
     17405      2178  TIP3      H1            -12.3187684910        4.1411933645      -30.5976722196  TIP3      2082            0.0000000000
     17406      2178  TIP3      H2            -11.8054306335        5.5623276103      -30.5310053886  TIP3      2082            0.0000000000
     17407      2179  TIP3      OH2           -22.2461404785        6.2906247616      -29.9963228840  TIP3      2083            0.0000000000
     17408      2179  TIP3      H1            -22.5109112568        5.3623719329      -30.1105903068  TIP3      2083            0.0000000000
     17409      2179  TIP3      H2            -21.2861389698        6.1288549477      -30.0231485025  TIP3      2083            0.0000000000
     17410      2180  TIP3      OH2           -25.4621327646       -0.9124055782      -34.1706324096  TIP3      2084            0.0000000000
     17411      2180  TIP3      H1            -25.3989628037        0.0573695865      -34.2979123395  TIP3      2084            0.0000000000
     17412      2180  TIP3      H2            -25.8777404751       -1.1266375303      -35.0305305851  TIP3      2084            0.0000000000
     17413      2181  TIP3      OH2           -25.1354256720        1.3730882178      -31.8443973929  TIP3      2085            0.0000000000
     17414      2181  TIP3      H1            -24.4002908603        0.7249048952      -31.9563397148  TIP3      2085            0.0000000000
     17415      2181  TIP3      H2            -24.8976749124        2.0820568758      -32.4684279450  TIP3      2085            0.0000000000
     17416      2182  TIP3      OH2           -13.9299264506       10.6226982787      -31.3735493621  TIP3      2086            0.0000000000
     17417      2182  TIP3      H1            -13.2449891910        9.9516377556      -31.6081423576  TIP3      2086            0.0000000000
     17418      2182  TIP3      H2            -14.5672719827       10.0181160312      -30.9700605820  TIP3      2086            0.0000000000
     17419      2183  TIP3      OH2           -16.8831349215        4.6580497616      -29.0958371615  TIP3      2087            0.0000000000
     17420      2183  TIP3      H1            -16.5929064672        4.1516090946      -29.8671572450  TIP3      2087            0.0000000000
     17421      2183  TIP3      H2            -16.0043017621        4.9002033019      -28.7285916866  TIP3      2087            0.0000000000
     17422      2184  TIP3      OH2            -8.2531004631       -4.0914989807      -28.9460536584  TIP3      2088            0.0000000000
     17423      2184  TIP3      H1             -7.8385303633       -3.5054959757      -28.2893762752  TIP3      2088            0.0000000000
     17424      2184  TIP3      H2             -7.5139861217       -4.1978251523      -29.5660460580  TIP3      2088            0.0000000000
     17425      2185  TIP3      OH2           -13.1205626888       -1.0602546565      -28.5603097930  TIP3      2089            0.0000000000
     17426      2185  TIP3      H1            -12.9332920324       -2.0209470341      -28.6414845740  TIP3      2089            0.0000000000
     17427      2185  TIP3      H2            -13.4421589714       -0.8650220086      -29.4636362929  TIP3      2089            0.0000000000
     17428      2186  TIP3      OH2           -20.3721820925       -3.0520097167      -31.8079729725  TIP3      2090            0.0000000000
     17429      2186  TIP3      H1            -20.2400561341       -2.2483205169      -32.3549075128  TIP3      2090            0.0000000000
     17430      2186  TIP3      H2            -20.8604223552       -3.6189981667      -32.4459860447  TIP3      2090            0.0000000000
     17431      2187  TIP3      OH2           -12.7419569681       -2.5423666382      -33.1066598657  TIP3      2091            0.0000000000
     17432      2187  TIP3      H1            -12.1748262644       -3.0025917210      -32.4410658204  TIP3      2091            0.0000000000
     17433      2187  TIP3      H2            -12.0684408299       -2.0596714498      -33.6060728971  TIP3      2091            0.0000000000
     17434      2188  TIP3      OH2           -22.9651502930       -0.5962038700      -31.7918543686  TIP3      2092            0.0000000000
     17435      2188  TIP3      H1            -23.1906240437       -1.1176992043      -31.0075092028  TIP3      2092            0.0000000000
     17436      2188  TIP3      H2            -22.8023085878       -1.2638719617      -32.4836979185  TIP3      2092            0.0000000000
     17437      2189  TIP3      OH2           -19.2026743450        1.2059256827      -31.5111345808  TIP3      2093            0.0000000000
     17438      2189  TIP3      H1            -18.3647535677        0.7602869238      -31.2690689458  TIP3      2093            0.0000000000
     17439      2189  TIP3      H2            -19.5821901269        0.4756093631      -32.0418532868  TIP3      2093            0.0000000000
     17440      2190  TIP3      OH2            -7.7915786818       -2.6439141636      -26.4016809327  TIP3      2094            0.0000000000
     17441      2190  TIP3      H1             -8.3244264641       -1.8660659162      -26.6892212903  TIP3      2094            0.0000000000
     17442      2190  TIP3      H2             -7.8468813210       -2.5193904595      -25.4354385412  TIP3      2094            0.0000000000
     17443      2191  TIP3      OH2           -21.2823070116       -4.1525106022      -27.7709470383  TIP3      2095            0.0000000000
     17444      2191  TIP3      H1            -21.6300040493       -3.5600083638      -28.4699234872  TIP3      2095            0.0000000000
     17445      2191  TIP3      H2            -22.0161948682       -4.0353078071      -27.1363444440  TIP3      2095            0.0000000000
     17446      2192  TIP3      OH2           -14.5076881985        5.5398465182      -34.0298053253  TIP3      2096            0.0000000000
     17447      2192  TIP3      H1            -14.7183406029        5.6104198160      -34.9819188698  TIP3      2096            0.0000000000
     17448      2192  TIP3      H2            -14.8698773301        6.3890298254      -33.6821470872  TIP3      2096            0.0000000000
     17449      2193  TIP3      OH2           -18.7429222705        3.6161391687      -27.5594122212  TIP3      2097            0.0000000000
     17450      2193  TIP3      H1            -19.3933418648        4.2202833944      -27.1601863259  TIP3      2097            0.0000000000
     17451      2193  TIP3      H2            -18.1883311256        4.2295961870      -28.0830084194  TIP3      2097            0.0000000000
     17452      2194  TIP3      OH2           -10.7500939343       -3.2652329096      -31.5867007765  TIP3      2098            0.0000000000
     17453      2194  TIP3      H1            -10.6700498127       -3.6372822929      -30.6997645206  TIP3      2098            0.0000000000
     17454      2194  TIP3      H2             -9.8529344707       -2.9667621163      -31.7780773538  TIP3      2098            0.0000000000
     17455      2195  TIP3      OH2           -21.9512018077       -2.3305147850      -29.7651875373  TIP3      2099            0.0000000000
     17456      2195  TIP3      H1            -21.4155344229       -1.6036689350      -29.3752867188  TIP3      2099            0.0000000000
     17457      2195  TIP3      H2            -21.3480268377       -2.6006352514      -30.4996940829  TIP3      2099            0.0000000000
     17458      2196  TIP3      OH2           -20.9734742193        5.0349849955      -27.0633271470  TIP3      2100            0.0000000000
     17459      2196  TIP3      H1            -21.0480191100        5.0692016543      -28.0321607637  TIP3      2100            0.0000000000
     17460      2196  TIP3      H2            -21.3456185053        4.1433065998      -26.8611153761  TIP3      2100            0.0000000000
     17461      2197  TIP3      OH2           -24.8691508796        4.9155268983      -35.4580999440  TIP3      2101            0.0000000000
     17462      2197  TIP3      H1            -25.2906044843        5.2065875367      -36.2994015169  TIP3      2101            0.0000000000
     17463      2197  TIP3      H2            -24.5731920359        5.7480202533      -35.0259239173  TIP3      2101            0.0000000000
     17464      2198  TIP3      OH2           -10.9983223309        6.8327823357      -29.3383786276  TIP3      2102            0.0000000000
     17465      2198  TIP3      H1            -11.9158433020        7.1216874498      -29.0835352529  TIP3      2102            0.0000000000
     17466      2198  TIP3      H2            -10.7158287346        7.6271669147      -29.8131765016  TIP3      2102            0.0000000000
     17467      2199  TIP3      OH2           -10.6991075455       -3.7557197128      -27.6010558650  TIP3      2103            0.0000000000
     17468      2199  TIP3      H1            -11.3492054321       -3.5243854065      -28.2920806518  TIP3      2103            0.0000000000
     17469      2199  TIP3      H2             -9.8609106763       -3.7114182496      -28.1112228134  TIP3      2103            0.0000000000
     17470      2200  TIP3      OH2           -17.9791392782       -6.7925246609      -30.5095180870  TIP3      2104            0.0000000000
     17471      2200  TIP3      H1            -18.2126824059       -7.6834935392      -30.2101014670  TIP3      2104            0.0000000000
     17472      2200  TIP3      H2            -18.7420298662       -6.2651667735      -30.1436608446  TIP3      2104            0.0000000000
     17473      2201  TIP3      OH2           -12.4266903403        8.6419664862      -32.1974473334  TIP3      2105            0.0000000000
     17474      2201  TIP3      H1            -12.3826131952        7.9143155677      -32.8381501467  TIP3      2105            0.0000000000
     17475      2201  TIP3      H2            -11.7147644064        9.2383147150      -32.5403428528  TIP3      2105            0.0000000000
     17476      2202  TIP3      OH2           -11.5875608583        6.5419874768      -34.1355379629  TIP3      2106            0.0000000000
     17477      2202  TIP3      H1            -11.8355208169        5.9678654986      -34.8798367103  TIP3      2106            0.0000000000
     17478      2202  TIP3      H2            -11.9597675200        6.0318188081      -33.3931999718  TIP3      2106            0.0000000000
     17479      2203  TIP3      OH2           -10.2513496258        5.1075099574      -25.4721601237  TIP3      2107            0.0000000000
     17480      2203  TIP3      H1            -10.0216137510        4.5446327733      -26.2515244259  TIP3      2107            0.0000000000
     17481      2203  TIP3      H2            -10.4335802026        5.9608955919      -25.8940561823  TIP3      2107            0.0000000000
     17482      2204  TIP3      OH2           -15.3945845357        2.0934151055      -35.8331109627  TIP3      2108            0.0000000000
     17483      2204  TIP3      H1            -15.9329099746        2.5849727109      -36.4660919640  TIP3      2108            0.0000000000
     17484      2204  TIP3      H2            -14.6372408275        1.7744838152      -36.3775054068  TIP3      2108            0.0000000000
     17485      2205  TIP3      OH2           -15.1911646640        0.4510034042      -38.6479431424  TIP3      2109            0.0000000000
     17486      2205  TIP3      H1            -14.3607808563        0.8347262036      -38.3109299772  TIP3      2109            0.0000000000
     17487      2205  TIP3      H2            -14.9440340271       -0.4622202533      -38.8376112685  TIP3      2109            0.0000000000
     17488      2206  TIP3      OH2            -7.9020406876        1.7488225960      -27.5028493732  TIP3      2110            0.0000000000
     17489      2206  TIP3      H1             -8.6288684813        2.3968066098      -27.5945441517  TIP3      2110            0.0000000000
     17490      2206  TIP3      H2             -7.2941676332        2.0749670986      -28.2114314580  TIP3      2110            0.0000000000
     17491      2207  TIP3      OH2           -11.7038020887        2.0221195783      -34.8234961478  TIP3      2111            0.0000000000
     17492      2207  TIP3      H1            -12.4298388307        2.4282089149      -34.2948116328  TIP3      2111            0.0000000000
     17493      2207  TIP3      H2            -11.0684041705        1.8175265188      -34.0953315024  TIP3      2111            0.0000000000
     17494      2208  TIP3      OH2           -11.7727047794        0.4751123229      -25.4913532875  TIP3      2112            0.0000000000
     17495      2208  TIP3      H1            -11.9689956810        1.0538355224      -24.7126575714  TIP3      2112            0.0000000000
     17496      2208  TIP3      H2            -12.3830705700        0.8169197254      -26.1662464249  TIP3      2112            0.0000000000
     17497      2209  TIP3      OH2           -20.6188104048        2.8995165728      -32.9850388430  TIP3      2113            0.0000000000
     17498      2209  TIP3      H1            -20.7043909866        2.3669200507      -33.7989917060  TIP3      2113            0.0000000000
     17499      2209  TIP3      H2            -20.0483090449        2.3436986560      -32.4195436677  TIP3      2113            0.0000000000
     17500      2210  TIP3      OH2           -19.0415027181        6.1763500836      -30.1490961706  TIP3      2114            0.0000000000
     17501      2210  TIP3      H1            -18.8587225964        5.8019545967      -31.0179567387  TIP3      2114            0.0000000000
     17502      2210  TIP3      H2            -18.3124470487        5.8017726090      -29.6149496805  TIP3      2114            0.0000000000
     17503      2211  TIP3      OH2           -19.8950303594        1.5596658543      -28.9744691180  TIP3      2115            0.0000000000
     17504      2211  TIP3      H1            -19.6831826435        1.6706491919      -29.9272932033  TIP3      2115            0.0000000000
     17505      2211  TIP3      H2            -19.5123177223        2.3666295709      -28.5648106196  TIP3      2115            0.0000000000
     17506      2212  TIP3      OH2           -13.4098315413        7.4056431792      -28.4871638651  TIP3      2116            0.0000000000
     17507      2212  TIP3      H1            -13.6262999272        8.1181240007      -27.8582665182  TIP3      2116            0.0000000000
     17508      2212  TIP3      H2            -14.0070844153        6.6806144989      -28.2295279630  TIP3      2116            0.0000000000
     17509      2213  TIP3      OH2           -18.9929011199        6.1324122927      -24.6347013103  TIP3      2117            0.0000000000
     17510      2213  TIP3      H1            -18.7227729873        6.4083760782      -23.7360374085  TIP3      2117            0.0000000000
     17511      2213  TIP3      H2            -18.2128023495        5.5710321171      -24.8219293456  TIP3      2117            0.0000000000
     17512      2214  TIP3      OH2           -13.0317028279        1.5717021077      -37.0364402698  TIP3      2118            0.0000000000
     17513      2214  TIP3      H1            -12.4835091452        1.7232609469      -36.2228393444  TIP3      2118            0.0000000000
     17514      2214  TIP3      H2            -12.6834957077        2.2767180850      -37.6342842584  TIP3      2118            0.0000000000
     17515      2215  TIP3      OH2           -21.7510474568        2.5366357730      -26.2625879229  TIP3      2119            0.0000000000
     17516      2215  TIP3      H1            -21.7003024959        2.9585215210      -25.3807779919  TIP3      2119            0.0000000000
     17517      2215  TIP3      H2            -22.6954779595        2.2706200657      -26.2547566500  TIP3      2119            0.0000000000
     17518      2216  TIP3      OH2           -15.3234781079        8.0520034994      -33.2859068911  TIP3      2120            0.0000000000
     17519      2216  TIP3      H1            -14.8197688406        8.8418394676      -33.0779336915  TIP3      2120            0.0000000000
     17520      2216  TIP3      H2            -15.7795362344        8.2802109104      -34.1149058780  TIP3      2120            0.0000000000
     17521      2217  TIP3      OH2           -21.3246812818        8.2751529916      -23.8905647113  TIP3      2121            0.0000000000
     17522      2217  TIP3      H1            -20.6225774695        8.8007151923      -23.4653289946  TIP3      2121            0.0000000000
     17523      2217  TIP3      H2            -22.0434943891        8.9171406975      -24.0374559265  TIP3      2121            0.0000000000
     17524      2218  TIP3      OH2            -8.9198740160       -6.8212705499      -37.2882570170  TIP3      2122            0.0000000000
     17525      2218  TIP3      H1             -9.8306259355       -6.4980967735      -37.0915168330  TIP3      2122            0.0000000000
     17526      2218  TIP3      H2             -8.4958268614       -6.0384567614      -37.6910929552  TIP3      2122            0.0000000000
     17527      2219  TIP3      OH2           -21.3866081068        1.6599914179      -35.4322312964  TIP3      2123            0.0000000000
     17528      2219  TIP3      H1            -21.7521677804        2.5782204275      -35.4877638832  TIP3      2123            0.0000000000
     17529      2219  TIP3      H2            -22.0409479634        1.1722907136      -35.9499739115  TIP3      2123            0.0000000000
     17530      2220  TIP3      OH2            -8.3892980116        7.6586441430      -38.5593696362  TIP3      2124            0.0000000000
     17531      2220  TIP3      H1             -8.0789652999        8.5849963907      -38.5191004377  TIP3      2124            0.0000000000
     17532      2220  TIP3      H2             -7.5547163855        7.1789233007      -38.7648546055  TIP3      2124            0.0000000000
     17533      2221  TIP3      OH2           -24.6007736668        4.8799640932      -27.2860299991  TIP3      2125            0.0000000000
     17534      2221  TIP3      H1            -25.3263234911        4.6673941985      -27.9034809029  TIP3      2125            0.0000000000
     17535      2221  TIP3      H2            -24.4179246616        3.9667586837      -26.9625781647  TIP3      2125            0.0000000000
     17536      2222  TIP3      OH2           -24.9662120183        7.1335720017      -30.2049685594  TIP3      2126            0.0000000000
     17537      2222  TIP3      H1            -24.3954763360        6.3754243289      -30.4183737877  TIP3      2126            0.0000000000
     17538      2222  TIP3      H2            -24.8547228302        7.2180806004      -29.2415188627  TIP3      2126            0.0000000000
     17539      2223  TIP3      OH2            -8.2471576327        8.0192427437      -23.7701545366  TIP3      2127            0.0000000000
     17540      2223  TIP3      H1             -7.9858383003        7.0947509957      -23.6755486819  TIP3      2127            0.0000000000
     17541      2223  TIP3      H2             -9.1747473743        7.9822798968      -23.4337889808  TIP3      2127            0.0000000000
     17542      2224  TIP3      OH2           -15.7308968586        7.9049850434      -25.0833273689  TIP3      2128            0.0000000000
     17543      2224  TIP3      H1            -15.6020643228        8.7920425268      -24.6760639211  TIP3      2128            0.0000000000
     17544      2224  TIP3      H2            -16.4119122681        7.5451069807      -24.4951573945  TIP3      2128            0.0000000000
     17545      2225  TIP3      OH2           -15.7247639606       10.9674786088      -35.5854761575  TIP3      2129            0.0000000000
     17546      2225  TIP3      H1            -15.7683268601       11.2722395061      -36.5213046720  TIP3      2129            0.0000000000
     17547      2225  TIP3      H2            -15.8956994044       11.7898566556      -35.0996093122  TIP3      2129            0.0000000000
     17548      2226  TIP3      OH2           -22.0292249455        9.6097810107      -32.9924442277  TIP3      2130            0.0000000000
     17549      2226  TIP3      H1            -21.7157130174        9.3280572182      -32.1036622409  TIP3      2130            0.0000000000
     17550      2226  TIP3      H2            -22.9945807325        9.4691664016      -32.8992112049  TIP3      2130            0.0000000000
     17551      2227  TIP3      OH2           -13.1314814538       10.2492846705      -37.9805071853  TIP3      2131            0.0000000000
     17552      2227  TIP3      H1            -12.3142856751        9.9457000254      -38.4452474131  TIP3      2131            0.0000000000
     17553      2227  TIP3      H2            -12.8629818120       10.1577710950      -37.0393585302  TIP3      2131            0.0000000000
     17554      2228  TIP3      OH2           -12.9961011265       10.4960989162      -35.1643482401  TIP3      2132            0.0000000000
     17555      2228  TIP3      H1            -13.9781681015       10.4894122777      -35.2149700508  TIP3      2132            0.0000000000
     17556      2228  TIP3      H2            -12.8079430183        9.7042585685      -34.6383780702  TIP3      2132            0.0000000000
     17557      2229  TIP3      OH2           -10.1942841121       -0.7214294068      -23.5733506772  TIP3      2133            0.0000000000
     17558      2229  TIP3      H1            -10.6753851482       -0.2275746269      -24.2617659849  TIP3      2133            0.0000000000
     17559      2229  TIP3      H2            -10.0497511996       -1.5912835691      -24.0050434224  TIP3      2133            0.0000000000
     17560      2230  TIP3      OH2           -23.0729197854        6.3374765857      -25.3313216448  TIP3      2134            0.0000000000
     17561      2230  TIP3      H1            -22.9049968309        5.4972512826      -24.8601076698  TIP3      2134            0.0000000000
     17562      2230  TIP3      H2            -23.7354477156        6.0317031136      -25.9952685511  TIP3      2134            0.0000000000
     17563      2231  TIP3      OH2           -19.9846967473       -5.3581248184      -29.7077210930  TIP3      2135            0.0000000000
     17564      2231  TIP3      H1            -20.8251271645       -5.6875386982      -30.1097587560  TIP3      2135            0.0000000000
     17565      2231  TIP3      H2            -20.3145985008       -4.6944645635      -29.0701579898  TIP3      2135            0.0000000000
     17566      2232  TIP3      OH2           -15.1858026832       -6.2586474970      -26.1697679389  TIP3      2136            0.0000000000
     17567      2232  TIP3      H1            -14.7843969436       -6.7059659126      -25.3986505587  TIP3      2136            0.0000000000
     17568      2232  TIP3      H2            -16.1637663972       -6.2898994300      -26.0237918731  TIP3      2136            0.0000000000
     17569      2233  TIP3      OH2           -13.0311604023       -2.0133682718      -25.0008038491  TIP3      2137            0.0000000000
     17570      2233  TIP3      H1            -12.9639912666       -1.8446810032      -24.0508352655  TIP3      2137            0.0000000000
     17571      2233  TIP3      H2            -12.8610215547       -1.1307520985      -25.3767790248  TIP3      2137            0.0000000000
     17572      2234  TIP3      OH2           -12.2557084249        3.1356510954      -39.0536959263  TIP3      2138            0.0000000000
     17573      2234  TIP3      H1            -12.0837138264        2.4494242479      -39.7063713759  TIP3      2138            0.0000000000
     17574      2234  TIP3      H2            -11.3390818990        3.4586557008      -38.9236823911  TIP3      2138            0.0000000000
     17575      2235  TIP3      OH2           -15.8743036677       -3.4215043006      -38.1484428427  TIP3      2139            0.0000000000
     17576      2235  TIP3      H1            -16.4624610323       -3.8068756837      -37.4778590076  TIP3      2139            0.0000000000
     17577      2235  TIP3      H2            -16.3058044742       -3.6962660664      -38.9641318978  TIP3      2139            0.0000000000
     17578      2236  TIP3      OH2           -20.1624761334       -0.9599554741      -28.3131951493  TIP3      2140            0.0000000000
     17579      2236  TIP3      H1            -20.7777813475       -0.8404378221      -27.5647452458  TIP3      2140            0.0000000000
     17580      2236  TIP3      H2            -20.0295655011       -0.0099715122      -28.5602344074  TIP3      2140            0.0000000000
     17581      2237  TIP3      OH2           -20.1113533973       -0.8572818570      -33.3179141802  TIP3      2141            0.0000000000
     17582      2237  TIP3      H1            -20.9775693644       -0.4774548691      -33.5577090547  TIP3      2141            0.0000000000
     17583      2237  TIP3      H2            -19.8735599582       -1.1808676210      -34.2069824555  TIP3      2141            0.0000000000
     17584      2238  TIP3      OH2           -14.3213809328        0.2022146663      -34.2087317107  TIP3      2142            0.0000000000
     17585      2238  TIP3      H1            -14.8155131392        0.9147888071      -34.6774131433  TIP3      2142            0.0000000000
     17586      2238  TIP3      H2            -13.8317876561       -0.2164070169      -34.9324906243  TIP3      2142            0.0000000000
     17587      2239  TIP3      OH2           -13.8134426867       -0.2515672045      -31.3471633272  TIP3      2143            0.0000000000
     17588      2239  TIP3      H1            -13.8987441527        0.4643419694      -32.0230232407  TIP3      2143            0.0000000000
     17589      2239  TIP3      H2            -13.7767196251       -1.0281344989      -31.9361763441  TIP3      2143            0.0000000000
     17590      2240  TIP3      OH2           -22.6860168988       -0.6957689171      -26.7268228309  TIP3      2144            0.0000000000
     17591      2240  TIP3      H1            -22.6270458672       -0.4283537268      -25.7875436993  TIP3      2144            0.0000000000
     17592      2240  TIP3      H2            -22.8260785485       -1.6670249107      -26.6917645910  TIP3      2144            0.0000000000
     17593      2241  TIP3      OH2           -19.0618613835       -2.6767503616      -38.9283669080  TIP3      2145            0.0000000000
     17594      2241  TIP3      H1            -19.4171816084       -3.3071878717      -38.2639355948  TIP3      2145            0.0000000000
     17595      2241  TIP3      H2            -19.3865279359       -1.8302851824      -38.5859420329  TIP3      2145            0.0000000000
     17596      2242  TIP3      OH2           -25.2282238241       -3.9734234282      -32.6741386892  TIP3      2146            0.0000000000
     17597      2242  TIP3      H1            -24.7033574339       -4.0150452759      -31.8381034114  TIP3      2146            0.0000000000
     17598      2242  TIP3      H2            -25.2830976844       -4.9143017120      -32.8858632090  TIP3      2146            0.0000000000
     17599      2243  TIP3      OH2           -24.4713140559       -3.0322581702      -37.0468643092  TIP3      2147            0.0000000000
     17600      2243  TIP3      H1            -23.8682148929       -2.2901769065      -37.2676773913  TIP3      2147            0.0000000000
     17601      2243  TIP3      H2            -25.1429505118       -2.9404968704      -37.7402012493  TIP3      2147            0.0000000000
     17602      2244  TIP3      OH2           -14.7029590751        0.6824489089      -27.2755278741  TIP3      2148            0.0000000000
     17603      2244  TIP3      H1            -14.0089421428        0.1067879686      -27.6760406262  TIP3      2148            0.0000000000
     17604      2244  TIP3      H2            -15.1090675663        0.0589259197      -26.6224051227  TIP3      2148            0.0000000000
     17605      2245  TIP3      OH2           -17.3639558677       -3.2142941529      -32.2140091131  TIP3      2149            0.0000000000
     17606      2245  TIP3      H1            -18.3236761583       -3.1996126265      -32.0165555135  TIP3      2149            0.0000000000
     17607      2245  TIP3      H2            -17.0025828510       -3.5703970237      -31.3750544965  TIP3      2149            0.0000000000
     17608      2246  TIP3      OH2           -22.7358756463       -1.6094980118      -34.3237448497  TIP3      2150            0.0000000000
     17609      2246  TIP3      H1            -23.7091676117       -1.6227025588      -34.4244995520  TIP3      2150            0.0000000000
     17610      2246  TIP3      H2            -22.5104982102       -2.5610176828      -34.2201408316  TIP3      2150            0.0000000000
     17611      2247  TIP3      OH2           -19.7720643448       -1.2235263106      -36.0440437907  TIP3      2151            0.0000000000
     17612      2247  TIP3      H1            -19.0327684642       -0.6127111527      -35.8980147310  TIP3      2151            0.0000000000
     17613      2247  TIP3      H2            -20.3371869880       -0.6998409298      -36.6501284330  TIP3      2151            0.0000000000
     17614      2248  TIP3      OH2           -12.9828354065       -3.7587465516      -29.1937398710  TIP3      2152            0.0000000000
     17615      2248  TIP3      H1            -13.7411004088       -3.7820828025      -28.5710961949  TIP3      2152            0.0000000000
     17616      2248  TIP3      H2            -13.2938413721       -4.3186310268      -29.9231829351  TIP3      2152            0.0000000000
     17617      2249  TIP3      OH2           -20.7704290942        0.0642792084      -38.3661252979  TIP3      2153            0.0000000000
     17618      2249  TIP3      H1            -21.0410197822       -0.0097344075      -39.2929331304  TIP3      2153            0.0000000000
     17619      2249  TIP3      H2            -19.8071934588        0.2070936715      -38.4587380290  TIP3      2153            0.0000000000
     17620      2250  TIP3      OH2           -10.1443917741       11.8658194714      -23.0244674154  TIP3      2154            0.0000000000
     17621      2250  TIP3      H1             -9.5671321352       11.9364351457      -23.8112666659  TIP3      2154            0.0000000000
     17622      2250  TIP3      H2             -9.4817271181       11.8374148775      -22.3214516467  TIP3      2154            0.0000000000
     17623      2251  TIP3      OH2           -22.1908188691        3.9105923967      -23.9556749878  TIP3      2155            0.0000000000
     17624      2251  TIP3      H1            -21.6621179406        3.5144500743      -23.2580862259  TIP3      2155            0.0000000000
     17625      2251  TIP3      H2            -23.1002544605        3.5950910423      -23.7021615317  TIP3      2155            0.0000000000
     17626      2252  TIP3      OH2           -16.9753302575       -0.2811582714      -30.7864634200  TIP3      2156            0.0000000000
     17627      2252  TIP3      H1            -16.0584434156       -0.5901850515      -30.9523826422  TIP3      2156            0.0000000000
     17628      2252  TIP3      H2            -17.3315888932       -1.0142193714      -30.2498342018  TIP3      2156            0.0000000000
     17629      2253  TIP3      OH2           -21.8362364953       -4.1742992601      -33.7639651562  TIP3      2157            0.0000000000
     17630      2253  TIP3      H1            -22.2667693255       -4.9349118436      -33.3059628644  TIP3      2157            0.0000000000
     17631      2253  TIP3      H2            -21.2981021958       -4.6547196679      -34.4108616959  TIP3      2157            0.0000000000
     17632      2254  TIP3      OH2           -17.7568280060       -2.2565912133      -28.2758412219  TIP3      2158            0.0000000000
     17633      2254  TIP3      H1            -18.5642172270       -1.6915983658      -28.2652101123  TIP3      2158            0.0000000000
     17634      2254  TIP3      H2            -17.1430305522       -1.7443641093      -27.7321005218  TIP3      2158            0.0000000000
     17635      2255  TIP3      OH2           -17.2670386881        4.6221435148      -36.2197868409  TIP3      2159            0.0000000000
     17636      2255  TIP3      H1            -17.8839910729        3.8950731999      -36.4403948699  TIP3      2159            0.0000000000
     17637      2255  TIP3      H2            -17.5429070429        4.7914661239      -35.2896618657  TIP3      2159            0.0000000000
     17638      2256  TIP3      OH2            -9.7989744804        3.8021211583      -27.7519887354  TIP3      2160            0.0000000000
     17639      2256  TIP3      H1             -9.2741985874        4.2081600327      -28.4819501386  TIP3      2160            0.0000000000
     17640      2256  TIP3      H2            -10.5645834066        3.4779691687      -28.2657858614  TIP3      2160            0.0000000000
     17641      2257  TIP3      OH2           -13.1055880230       -2.7622271466      -38.5284954698  TIP3      2161            0.0000000000
     17642      2257  TIP3      H1            -14.0338072581       -3.0165935017      -38.3563054619  TIP3      2161            0.0000000000
     17643      2257  TIP3      H2            -12.9536999319       -2.0672999316      -37.8517017214  TIP3      2161            0.0000000000
     17644      2258  TIP3      OH2           -16.4162550308        4.9239506053      -24.8997345731  TIP3      2162            0.0000000000
     17645      2258  TIP3      H1            -15.9170045114        4.1382302685      -25.1702090600  TIP3      2162            0.0000000000
     17646      2258  TIP3      H2            -15.6896909129        5.5090734124      -24.6360043136  TIP3      2162            0.0000000000
     17647      2259  TIP3      OH2           -12.7066071391       -1.0509784512      -36.3620177457  TIP3      2163            0.0000000000
     17648      2259  TIP3      H1            -11.8267315306       -1.0638058081      -35.9282848245  TIP3      2163            0.0000000000
     17649      2259  TIP3      H2            -12.6911578092       -0.1313964839      -36.7062439291  TIP3      2163            0.0000000000
     17650      2260  TIP3      OH2           -21.2788479345        3.8759275043      -30.3500521034  TIP3      2164            0.0000000000
     17651      2260  TIP3      H1            -21.0411408875        3.8039488485      -31.2962595463  TIP3      2164            0.0000000000
     17652      2260  TIP3      H2            -21.7701013687        3.0507050731      -30.2303462797  TIP3      2164            0.0000000000
     17653      2261  TIP3      OH2           -14.9058983063        5.8247881557      -36.8698659707  TIP3      2165            0.0000000000
     17654      2261  TIP3      H1            -15.4207368580        6.6455388027      -36.6810034864  TIP3      2165            0.0000000000
     17655      2261  TIP3      H2            -15.6294351068        5.1679737731      -36.8068692227  TIP3      2165            0.0000000000
     17656      2262  TIP3      OH2           -24.4576196066        2.4362270852      -25.9904657741  TIP3      2166            0.0000000000
     17657      2262  TIP3      H1            -24.3999679805        2.1004715803      -25.0771070010  TIP3      2166            0.0000000000
     17658      2262  TIP3      H2            -25.3082085501        2.0450307210      -26.2544970900  TIP3      2166            0.0000000000
     17659      2263  TIP3      OH2           -18.2318500945        1.1181684967      -23.3345563185  TIP3      2167            0.0000000000
     17660      2263  TIP3      H1            -18.3472882342        1.1643614894      -24.3066829481  TIP3      2167            0.0000000000
     17661      2263  TIP3      H2            -17.5594470037        1.7961072206      -23.2032927270  TIP3      2167            0.0000000000
     17662      2264  TIP3      OH2           -13.0426429051        6.7856033842      -25.0607371512  TIP3      2168            0.0000000000
     17663      2264  TIP3      H1            -13.8312498404        7.3592534922      -25.0869055474  TIP3      2168            0.0000000000
     17664      2264  TIP3      H2            -12.4769963599        7.1911814699      -24.3765660281  TIP3      2168            0.0000000000
     17665      2265  TIP3      OH2            -7.6932897069       -1.1961859702      -36.4642945579  TIP3      2169            0.0000000000
     17666      2265  TIP3      H1             -8.3687621012       -1.1686324712      -37.1755522365  TIP3      2169            0.0000000000
     17667      2265  TIP3      H2             -7.3884853778       -0.2671583623      -36.5053276584  TIP3      2169            0.0000000000
     17668      2266  TIP3      OH2            -7.7406192139        4.7487014675      -24.2363096386  TIP3      2170            0.0000000000
     17669      2266  TIP3      H1             -8.5050593120        5.1568555476      -24.6956801755  TIP3      2170            0.0000000000
     17670      2266  TIP3      H2             -7.1439776660        4.5579965955      -24.9939593704  TIP3      2170            0.0000000000
     17671      2267  TIP3      OH2            -8.5057844346        7.5458231506      -35.8242722477  TIP3      2171            0.0000000000
     17672      2267  TIP3      H1             -9.2245346283        6.9006730974      -35.7153461628  TIP3      2171            0.0000000000
     17673      2267  TIP3      H2             -8.2708496262        7.4427662188      -36.7689047130  TIP3      2171            0.0000000000
     17674      2268  TIP3      OH2           -12.1743987022        2.6374512158      -29.3113409913  TIP3      2172            0.0000000000
     17675      2268  TIP3      H1            -13.0737814537        2.4009185275      -29.6071269614  TIP3      2172            0.0000000000
     17676      2268  TIP3      H2            -11.6944725343        1.9151390226      -29.7652813792  TIP3      2172            0.0000000000
     17677      2269  TIP3      OH2           -19.8016331012        7.0830225604      -33.2578159501  TIP3      2173            0.0000000000
     17678      2269  TIP3      H1            -19.5006154527        8.0047057323      -33.4050074773  TIP3      2173            0.0000000000
     17679      2269  TIP3      H2            -20.7413526801        7.1550511934      -33.4595822639  TIP3      2173            0.0000000000
     17680      2270  TIP3      OH2           -24.2359920610        2.4022171541      -37.7616519892  TIP3      2174            0.0000000000
     17681      2270  TIP3      H1            -23.6108279834        2.8182611876      -37.1420004154  TIP3      2174            0.0000000000
     17682      2270  TIP3      H2            -24.6066517063        3.1787829487      -38.2081094823  TIP3      2174            0.0000000000
     17683      2271  TIP3      OH2           -18.2979683250        4.8474581579      -33.7291391398  TIP3      2175            0.0000000000
     17684      2271  TIP3      H1            -18.8029202505        5.6831702442      -33.6046560346  TIP3      2175            0.0000000000
     17685      2271  TIP3      H2            -18.4461436316        4.3802061896      -32.9041586844  TIP3      2175            0.0000000000
     17686      2272  TIP3      OH2           -17.7584145065        8.9647061205      -27.0656802099  TIP3      2176            0.0000000000
     17687      2272  TIP3      H1            -17.1875038647        9.7464824485      -27.2305542202  TIP3      2176            0.0000000000
     17688      2272  TIP3      H2            -17.1738660292        8.4548262458      -26.4724931734  TIP3      2176            0.0000000000
     17689      2273  TIP3      OH2           -19.2440598452        9.7533974128      -33.8064587939  TIP3      2177            0.0000000000
     17690      2273  TIP3      H1            -20.2073993505        9.7201242963      -33.5953843359  TIP3      2177            0.0000000000
     17691      2273  TIP3      H2            -19.0802261679       10.7134875822      -33.6995750414  TIP3      2177            0.0000000000
     17692      2274  TIP3      OH2           -14.3695639327        4.7506164378      -28.0778365039  TIP3      2178            0.0000000000
     17693      2274  TIP3      H1            -14.5763016890        4.0325499123      -27.4630975438  TIP3      2178            0.0000000000
     17694      2274  TIP3      H2            -13.4654052083        4.5160260789      -28.3484179694  TIP3      2178            0.0000000000
     17695      2275  TIP3      OH2           -11.9823635089        6.1669604580      -38.6535531288  TIP3      2179            0.0000000000
     17696      2275  TIP3      H1            -11.8016673806        5.6981733963      -37.8131646250  TIP3      2179            0.0000000000
     17697      2275  TIP3      H2            -12.8960729727        6.4125098596      -38.4980548933  TIP3      2179            0.0000000000
     17698      2276  TIP3      OH2           -11.2562597376        9.3040669055      -25.6930275366  TIP3      2180            0.0000000000
     17699      2276  TIP3      H1            -12.2234676985        9.2723266874      -25.6890712661  TIP3      2180            0.0000000000
     17700      2276  TIP3      H2            -11.1667327015       10.1558872419      -26.1591405873  TIP3      2180            0.0000000000
     17701      2277  TIP3      OH2            -7.1325664066       10.1544873051      -37.9352655888  TIP3      2181            0.0000000000
     17702      2277  TIP3      H1             -6.6935072063       10.6914513856      -38.6183593544  TIP3      2181            0.0000000000
     17703      2277  TIP3      H2             -7.7573468419       10.8219940584      -37.5566511495  TIP3      2181            0.0000000000
     17704      2278  TIP3      OH2           -23.3263531719       -3.2484657895      -26.1742102534  TIP3      2182            0.0000000000
     17705      2278  TIP3      H1            -24.1197086375       -2.7305162375      -25.9314546059  TIP3      2182            0.0000000000
     17706      2278  TIP3      H2            -23.3218547459       -3.9072025137      -25.4704806388  TIP3      2182            0.0000000000
     17707      2279  TIP3      OH2           -11.3189559927        4.7743283695      -36.3559426411  TIP3      2183            0.0000000000
     17708      2279  TIP3      H1            -11.5624030199        3.8706828309      -36.1054485362  TIP3      2183            0.0000000000
     17709      2279  TIP3      H2            -10.3458886363        4.7603403093      -36.2079855632  TIP3      2183            0.0000000000
     17710      2280  TIP3      OH2           -23.7801828480        8.5633606406      -27.3520868105  TIP3      2184            0.0000000000
     17711      2280  TIP3      H1            -23.5201519035        7.6384589220      -27.2435302974  TIP3      2184            0.0000000000
     17712      2280  TIP3      H2            -23.2206592388        8.9971223421      -26.6912935447  TIP3      2184            0.0000000000
     17713      2281  TIP3      OH2           -19.2934591928        6.5459682351      -37.5010268151  TIP3      2185            0.0000000000
     17714      2281  TIP3      H1            -18.6449953785        6.0238581211      -37.0086198534  TIP3      2185            0.0000000000
     17715      2281  TIP3      H2            -19.0897436370        7.4483353098      -37.1596133842  TIP3      2185            0.0000000000
     17716      2282  TIP3      OH2           -22.5947488146        3.9412655244      -36.2548521656  TIP3      2186            0.0000000000
     17717      2282  TIP3      H1            -23.4799033305        4.2990516283      -35.9874186367  TIP3      2186            0.0000000000
     17718      2282  TIP3      H2            -22.2493047442        4.7361869245      -36.7237578746  TIP3      2186            0.0000000000
     17719      2283  TIP3      OH2           -14.5515932189       -3.3590225007      -26.8698875562  TIP3      2187            0.0000000000
     17720      2283  TIP3      H1            -13.8605239213       -3.1036088107      -26.2262053453  TIP3      2187            0.0000000000
     17721      2283  TIP3      H2            -14.8033509804       -4.2474980252      -26.5486458785  TIP3      2187            0.0000000000
     17722      2284  TIP3      OH2           -14.0443190122       -3.5796749481      -35.1944352385  TIP3      2188            0.0000000000
     17723      2284  TIP3      H1            -13.8085044048       -3.0966779072      -36.0002265490  TIP3      2188            0.0000000000
     17724      2284  TIP3      H2            -13.6615276952       -2.9863815031      -34.5160509102  TIP3      2188            0.0000000000
     17725      2285  TIP3      OH2           -16.4550609384        7.9592088663      -36.1336593479  TIP3      2189            0.0000000000
     17726      2285  TIP3      H1            -17.3386507108        8.3873718172      -36.0661056689  TIP3      2189            0.0000000000
     17727      2285  TIP3      H2            -16.2421226606        8.2354581716      -37.0491046186  TIP3      2189            0.0000000000
     17728      2286  TIP3      OH2           -16.7134715179       -2.1337192394      -34.6278503993  TIP3      2190            0.0000000000
     17729      2286  TIP3      H1            -16.0167510837       -1.5165711013      -34.3557446856  TIP3      2190            0.0000000000
     17730      2286  TIP3      H2            -17.0557348386       -2.4768229557      -33.7718509144  TIP3      2190            0.0000000000
     17731      2287  TIP3      OH2           -15.7415673517       -1.1860863671      -25.6779921866  TIP3      2191            0.0000000000
     17732      2287  TIP3      H1            -15.8873995579       -1.5553560852      -24.7883720203  TIP3      2191            0.0000000000
     17733      2287  TIP3      H2            -15.2997188430       -1.9354551972      -26.1234027026  TIP3      2191            0.0000000000
     17734      2288  TIP3      OH2           -15.9261267530       -5.1773776253      -34.0152307634  TIP3      2192            0.0000000000
     17735      2288  TIP3      H1            -16.2985798002       -4.4449840641      -33.4816320924  TIP3      2192            0.0000000000
     17736      2288  TIP3      H2            -15.1101141776       -4.7337069862      -34.3719367392  TIP3      2192            0.0000000000
     17737      2289  TIP3      OH2           -18.8703128930        8.9880648630      -36.3866020818  TIP3      2193            0.0000000000
     17738      2289  TIP3      H1            -18.5743503098        9.8186849190      -36.8290608814  TIP3      2193            0.0000000000
     17739      2289  TIP3      H2            -19.1174980798        9.3607984884      -35.5119253258  TIP3      2193            0.0000000000
     17740      2290  TIP3      OH2           -20.2402914823       -4.1194478602      -36.9181669760  TIP3      2194            0.0000000000
     17741      2290  TIP3      H1            -20.3201569789       -3.3662342944      -36.3148983154  TIP3      2194            0.0000000000
     17742      2290  TIP3      H2            -19.4088443244       -4.5330956687      -36.5876697533  TIP3      2194            0.0000000000
     17743      2291  TIP3      OH2           -10.0894733731       -3.1873049892      -24.9119461419  TIP3      2195            0.0000000000
     17744      2291  TIP3      H1            -11.0344853865       -3.2008750527      -25.1494264116  TIP3      2195            0.0000000000
     17745      2291  TIP3      H2             -9.6856482879       -3.3559001093      -25.7890064190  TIP3      2195            0.0000000000
     17746      2292  TIP3      OH2           -11.1383008388        0.2800279646      -30.7198581191  TIP3      2196            0.0000000000
     17747      2292  TIP3      H1            -11.8649701255       -0.3661427626      -30.6943426326  TIP3      2196            0.0000000000
     17748      2292  TIP3      H2            -10.3932456213       -0.2195966918      -30.3166249072  TIP3      2196            0.0000000000
     17749      2293  TIP3      OH2           -22.0956296102        6.2308606485      -37.7404370399  TIP3      2197            0.0000000000
     17750      2293  TIP3      H1            -21.2384871344        6.5857469219      -37.4204336998  TIP3      2197            0.0000000000
     17751      2293  TIP3      H2            -21.8109621003        5.9305646906      -38.6115547451  TIP3      2197            0.0000000000
     17752      2294  TIP3      OH2           -23.9506411726       -0.4769494762      -37.9096323421  TIP3      2198            0.0000000000
     17753      2294  TIP3      H1            -23.5500500437        0.4078256792      -37.8745707901  TIP3      2198            0.0000000000
     17754      2294  TIP3      H2            -24.2774517301       -0.4204887617      -38.8307528556  TIP3      2198            0.0000000000
     17755      2295  TIP3      OH2           -10.3616646945        9.9797027868      -29.3752509020  TIP3      2199            0.0000000000
     17756      2295  TIP3      H1            -10.2201468128       10.6625273169      -30.0690342931  TIP3      2199            0.0000000000
     17757      2295  TIP3      H2             -9.4382385439        9.6919360010      -29.2538781924  TIP3      2199            0.0000000000
     17758      2296  TIP3      OH2           -22.1604668005       -6.4328714109      -30.6720833558  TIP3      2200            0.0000000000
     17759      2296  TIP3      H1            -22.3949654629       -6.7905421111      -31.5602741259  TIP3      2200            0.0000000000
     17760      2296  TIP3      H2            -22.6926504380       -7.0499848320      -30.1177344862  TIP3      2200            0.0000000000
     17761      2297  TIP3      OH2           -24.0839954143        7.3705877638      -34.3854799597  TIP3      2201            0.0000000000
     17762      2297  TIP3      H1            -24.4730932571        8.2413920467      -34.6003215129  TIP3      2201            0.0000000000
     17763      2297  TIP3      H2            -23.2056176929        7.5337982550      -34.7444153907  TIP3      2201            0.0000000000
     17764      2298  TIP3      OH2           -23.8615778760       10.9541715688      -22.6999642093  TIP3      2202            0.0000000000
     17765      2298  TIP3      H1            -23.3519153128       10.5750294882      -21.9696839036  TIP3      2202            0.0000000000
     17766      2298  TIP3      H2            -24.7552144829       10.6764624215      -22.4308870843  TIP3      2202            0.0000000000
     17767      2299  TIP3      OH2           -16.5455777121        8.1743993009      -38.9303954032  TIP3      2203            0.0000000000
     17768      2299  TIP3      H1            -17.1459413277        7.6438869801      -39.4832312161  TIP3      2203            0.0000000000
     17769      2299  TIP3      H2            -16.0794097951        8.6844631784      -39.6136095309  TIP3      2203            0.0000000000
     17770      2300  TIP3      OH2           -10.8616557706        9.3448134335      -38.9902264027  TIP3      2204            0.0000000000
     17771      2300  TIP3      H1            -10.8048607743        8.4389833146      -38.6461543974  TIP3      2204            0.0000000000
     17772      2300  TIP3      H2            -11.0180033589        9.1397605415      -39.9375452255  TIP3      2204            0.0000000000
     17773      2301  TIP3      OH2           -23.0824969103        5.1333535156      -21.4501316332  TIP3      2205            0.0000000000
     17774      2301  TIP3      H1            -23.6501870460        4.4576935509      -21.0456216238  TIP3      2205            0.0000000000
     17775      2301  TIP3      H2            -23.1748333389        4.8459009724      -22.3727739438  TIP3      2205            0.0000000000
     17776      2302  TIP3      OH2           -20.0322978408        3.8581130025      -39.2866491729  TIP3      2206            0.0000000000
     17777      2302  TIP3      H1            -19.9727603668        3.3193334610      -38.4732009180  TIP3      2206            0.0000000000
     17778      2302  TIP3      H2            -19.1614946740        4.2756517690      -39.2432369785  TIP3      2206            0.0000000000
     17779      2303  TIP3      OH2           -12.6649659496        4.1045436963      -24.8701100531  TIP3      2207            0.0000000000
     17780      2303  TIP3      H1            -11.6887612847        4.2733884438      -24.9034495987  TIP3      2207            0.0000000000
     17781      2303  TIP3      H2            -12.9412474103        5.0467896945      -24.8822568136  TIP3      2207            0.0000000000
     17782      2304  TIP3      OH2           -23.6557821137        0.6183670218      -23.4581340519  TIP3      2208            0.0000000000
     17783      2304  TIP3      H1            -24.2497284345       -0.1237248674      -23.2402862346  TIP3      2208            0.0000000000
     17784      2304  TIP3      H2            -23.8330877987        1.2427311405      -22.7203645286  TIP3      2208            0.0000000000
     17785      2305  TIP3      OH2           -18.9181335422        2.7203630481      -37.2225090135  TIP3      2209            0.0000000000
     17786      2305  TIP3      H1            -19.5977138294        2.3424339088      -36.6387509166  TIP3      2209            0.0000000000
     17787      2305  TIP3      H2            -18.6111978794        1.9322027516      -37.7290656351  TIP3      2209            0.0000000000
     17788      2306  TIP3      OH2           -20.2749599638        0.3979897394      -25.6431432155  TIP3      2210            0.0000000000
     17789      2306  TIP3      H1            -20.9615374830        1.0137939070      -25.9819562871  TIP3      2210            0.0000000000
     17790      2306  TIP3      H2            -19.4692141617        0.7779500768      -26.0407232619  TIP3      2210            0.0000000000
     17791      2307  TIP3      OH2           -18.1129893690        0.4983278884      -38.4030643808  TIP3      2211            0.0000000000
     17792      2307  TIP3      H1            -18.0807576845        0.7156839294      -39.3726632090  TIP3      2211            0.0000000000
     17793      2307  TIP3      H2            -17.1785815163        0.2388811695      -38.2659573945  TIP3      2211            0.0000000000
     17794      2308  TIP3      OH2           -14.7183298864        2.8777993468      -21.9619583643  TIP3      2212            0.0000000000
     17795      2308  TIP3      H1            -13.9794804182        3.4873265106      -22.0536728579  TIP3      2212            0.0000000000
     17796      2308  TIP3      H2            -14.3864862197        2.1346841135      -22.4869253887  TIP3      2212            0.0000000000
     17797      2309  TIP3      OH2            -9.5472210655        3.2717527964      -38.8831136737  TIP3      2213            0.0000000000
     17798      2309  TIP3      H1             -8.8830246928        2.8640334975      -39.4712980728  TIP3      2213            0.0000000000
     17799      2309  TIP3      H2             -9.2266036788        4.1828589377      -38.8077863719  TIP3      2213            0.0000000000
     17800      2310  TIP3      OH2           -18.5878968620       -4.0898896803      -26.4268834168  TIP3      2214            0.0000000000
     17801      2310  TIP3      H1            -18.1458481255       -3.4525538196      -27.0291972472  TIP3      2214            0.0000000000
     17802      2310  TIP3      H2            -19.4837157159       -4.0877875377      -26.8011011408  TIP3      2214            0.0000000000
     17803      2311  TIP3      OH2           -17.5909877072        1.7608224411      -25.9175748156  TIP3      2215            0.0000000000
     17804      2311  TIP3      H1            -16.7670572059        1.4314393367      -26.3153575412  TIP3      2215            0.0000000000
     17805      2311  TIP3      H2            -17.9400351557        2.4031361541      -26.5776155317  TIP3      2215            0.0000000000
     17806      2312  TIP3      OH2           -12.1916211998        1.9770653364      -23.3159194950  TIP3      2216            0.0000000000
     17807      2312  TIP3      H1            -12.3723589646        2.7927734171      -23.8362396683  TIP3      2216            0.0000000000
     17808      2312  TIP3      H2            -11.2127966578        2.0181706916      -23.2446885992  TIP3      2216            0.0000000000
     17809      2313  TIP3      OH2           -17.9192677505       -6.7449837745      -26.1458349840  TIP3      2217            0.0000000000
     17810      2313  TIP3      H1            -18.2766927542       -5.8284896687      -26.1693623285  TIP3      2217            0.0000000000
     17811      2313  TIP3      H2            -18.6787165747       -7.2547748212      -26.4771032558  TIP3      2217            0.0000000000
     17812      2314  TIP3      OH2           -18.3377934641       11.4979517987      -37.3231529718  TIP3      2218            0.0000000000
     17813      2314  TIP3      H1            -17.4831880788       11.9113000612      -37.4863111050  TIP3      2218            0.0000000000
     17814      2314  TIP3      H2            -18.7148942991       11.5939121241      -38.2038616603  TIP3      2218            0.0000000000
     17815      2315  TIP3      OH2           -24.8449140678        6.8926179709      -39.5546306992  TIP3      2219            0.0000000000
     17816      2315  TIP3      H1            -24.2082007640        7.3675919055      -39.0009504248  TIP3      2219            0.0000000000
     17817      2315  TIP3      H2            -24.6151857227        5.9738399093      -39.3703680359  TIP3      2219            0.0000000000
     17818      2316  TIP3      OH2           -25.2935192852       12.0457957023      -33.3999337779  TIP3      2220            0.0000000000
     17819      2316  TIP3      H1            -25.5594308222       12.4666055843      -34.2521582870  TIP3      2220            0.0000000000
     17820      2316  TIP3      H2            -25.4198632084       11.1078635991      -33.5682723205  TIP3      2220            0.0000000000
     17821      2317  TIP3      OH2           -24.3978670968        9.3999384865      -31.5023022340  TIP3      2221            0.0000000000
     17822      2317  TIP3      H1            -24.5996460304        8.4874899260      -31.1815476616  TIP3      2221            0.0000000000
     17823      2317  TIP3      H2            -24.0828433280        9.8182102601      -30.6768533282  TIP3      2221            0.0000000000
     17824      2318  TIP3      OH2            -7.6126296944       10.4876590242      -29.1807078287  TIP3      2222            0.0000000000
     17825      2318  TIP3      H1             -7.5024537265       10.2718831986      -28.2400441163  TIP3      2222            0.0000000000
     17826      2318  TIP3      H2             -7.1563157931       11.3389008403      -29.2366532734  TIP3      2222            0.0000000000
     17827      2319  TIP3      OH2            -7.8299086094        9.6338090327      -26.3587146886  TIP3      2223            0.0000000000
     17828      2319  TIP3      H1             -8.3013833519        8.8930575859      -26.8032576063  TIP3      2223            0.0000000000
     17829      2319  TIP3      H2             -7.8360770136        9.2704097988      -25.4573857494  TIP3      2223            0.0000000000
     17830      2320  TIP3      OH2            -8.6752450386        4.4557388306      -36.0162173299  TIP3      2224            0.0000000000
     17831      2320  TIP3      H1             -7.7562028431        4.7895898223      -35.9126191926  TIP3      2224            0.0000000000
     17832      2320  TIP3      H2             -8.6929056381        3.7244928295      -35.3729710374  TIP3      2224            0.0000000000
     17833      2321  TIP3      OH2            -7.9308265626        1.8067462021      -34.1463458166  TIP3      2225            0.0000000000
     17834      2321  TIP3      H1             -8.7443394347        1.4355403280      -33.7104894501  TIP3      2225            0.0000000000
     17835      2321  TIP3      H2             -7.6156025850        2.4358788152      -33.4819106829  TIP3      2225            0.0000000000
     17836      2322  TIP3      OH2            -8.1406442065        4.6393698447      -29.5894073842  TIP3      2226            0.0000000000
     17837      2322  TIP3      H1             -7.4098446362        3.9925825058      -29.6475130062  TIP3      2226            0.0000000000
     17838      2322  TIP3      H2             -7.6488582154        5.4936882309      -29.6508347493  TIP3      2226            0.0000000000
     17839      2323  TIP3      OH2            -9.3702427592        7.5899434849      -27.1627310665  TIP3      2227            0.0000000000
     17840      2323  TIP3      H1            -10.1316380622        8.1007058786      -26.7904411150  TIP3      2227            0.0000000000
     17841      2323  TIP3      H2             -9.8106736373        7.1383142700      -27.9086338030  TIP3      2227            0.0000000000
     17842      2324  TIP3      OH2            -7.6060098183        1.9332712919      -37.3928356450  TIP3      2228            0.0000000000
     17843      2324  TIP3      H1             -8.5475814917        1.9867373017      -37.6350450058  TIP3      2228            0.0000000000
     17844      2324  TIP3      H2             -7.4562329640        2.7965318983      -36.9730837601  TIP3      2228            0.0000000000
     17845      2325  TIP3      OH2            -9.8101727475       -0.8874232755      -38.4918765569  TIP3      2229            0.0000000000
     17846      2325  TIP3      H1             -9.5252247288       -0.5316308187      -39.3655958689  TIP3      2229            0.0000000000
     17847      2325  TIP3      H2             -9.8142698301       -1.8491107175      -38.6869701348  TIP3      2229            0.0000000000
     17848      2326  TIP3      OH2           -10.1176066897        0.9715358248      -33.0236163382  TIP3      2230            0.0000000000
     17849      2326  TIP3      H1            -10.5296137766        0.1681785129      -33.3764958366  TIP3      2230            0.0000000000
     17850      2326  TIP3      H2            -10.3285127055        0.8763153816      -32.0661657654  TIP3      2230            0.0000000000
     17851      2327  TIP3      OH2           -24.2161137783        3.1859722758      -29.9789152556  TIP3      2231            0.0000000000
     17852      2327  TIP3      H1            -24.5798702688        2.5163436552      -30.5852681028  TIP3      2231            0.0000000000
     17853      2327  TIP3      H2            -23.8573363956        2.5859293530      -29.2868489288  TIP3      2231            0.0000000000
     17854      2328  TIP3      OH2            -9.4405816346        2.5542500273      -23.8872240435  TIP3      2232            0.0000000000
     17855      2328  TIP3      H1             -8.6576288416        2.1180198281      -23.5125918748  TIP3      2232            0.0000000000
     17856      2328  TIP3      H2             -9.0933609929        3.4623399901      -23.9802664267  TIP3      2232            0.0000000000
     17857      2329  TIP3      OH2            -7.6985520795        0.3417699957      -23.4812681548  TIP3      2233            0.0000000000
     17858      2329  TIP3      H1             -8.6710448641        0.2046447479      -23.4622777882  TIP3      2233            0.0000000000
     17859      2329  TIP3      H2             -7.3931035781       -0.4756502614      -23.0549675471  TIP3      2233            0.0000000000
     17860      2330  TIP3      OH2            -9.8815222502       -3.5432239885      -38.7781114139  TIP3      2234            0.0000000000
     17861      2330  TIP3      H1             -9.0681426823       -4.0791661351      -38.6256162948  TIP3      2234            0.0000000000
     17862      2330  TIP3      H2            -10.5520107792       -4.0198177042      -38.2653503108  TIP3      2234            0.0000000000
     17863      2331  TIP3      OH2           -10.3865184649       -1.4576419477      -35.0068326576  TIP3      2235            0.0000000000
     17864      2331  TIP3      H1            -10.2585725297       -2.4106814819      -34.7980267371  TIP3      2235            0.0000000000
     17865      2331  TIP3      H2             -9.5628167945       -1.2990702084      -35.5062879833  TIP3      2235            0.0000000000
     17866      2332  TIP3      OH2            -9.4067016951       -1.2231528980      -29.3379276219  TIP3      2236            0.0000000000
     17867      2332  TIP3      H1             -8.4214316284       -1.1188806711      -29.3993116855  TIP3      2236            0.0000000000
     17868      2332  TIP3      H2             -9.5303486799       -0.9535721305      -28.4033852612  TIP3      2236            0.0000000000
     17869      2333  TIP3      OH2            -9.4634781445       -0.4477112320      -26.6960050403  TIP3      2237            0.0000000000
     17870      2333  TIP3      H1            -10.3498795650       -0.2095921700      -26.3399663405  TIP3      2237            0.0000000000
     17871      2333  TIP3      H2             -9.0421678990        0.4394981418      -26.7273669324  TIP3      2237            0.0000000000
     17872      2334  TIP3      OH2           -24.9935668623       -1.9169109138      -22.9713405762  TIP3      2238            0.0000000000
     17873      2334  TIP3      H1            -24.5475910490       -1.6518406764      -22.1375172201  TIP3      2238            0.0000000000
     17874      2334  TIP3      H2            -25.6785013679       -2.5189388287      -22.6297317516  TIP3      2238            0.0000000000
     17875      2335  TIP3      OH2            -9.8329646808       -4.0672294554      -34.6330971573  TIP3      2239            0.0000000000
     17876      2335  TIP3      H1             -9.2841154338       -4.4874591972      -33.9453100101  TIP3      2239            0.0000000000
     17877      2335  TIP3      H2            -10.2351043292       -4.8567849277      -35.0299851555  TIP3      2239            0.0000000000
     17878      2336  TIP3      OH2           -23.8815321614       -4.3361678321      -30.4971299291  TIP3      2240            0.0000000000
     17879      2336  TIP3      H1            -23.0833674234       -4.8982744169      -30.5487849751  TIP3      2240            0.0000000000
     17880      2336  TIP3      H2            -23.5722579611       -3.5028658701      -30.1034228155  TIP3      2240            0.0000000000
     17881      2337  TIP3      OH2           -25.5025110864       -0.5531091533      -29.3910969381  TIP3      2241            0.0000000000
     17882      2337  TIP3      H1            -25.9314152528       -0.8759323410      -30.1995737049  TIP3      2241            0.0000000000
     17883      2337  TIP3      H2            -25.2598439184        0.3406599640      -29.6531537737  TIP3      2241            0.0000000000
     17884      2338  TIP3      OH2            -8.3015440688       -4.7016494224      -22.9804710909  TIP3      2242            0.0000000000
     17885      2338  TIP3      H1             -8.7214959891       -3.8728105229      -23.2723139884  TIP3      2242            0.0000000000
     17886      2338  TIP3      H2             -8.4058482167       -5.2659710666      -23.7742217527  TIP3      2242            0.0000000000
     17887      2339  TIP3      OH2            -7.4075713619       -4.8349660766      -38.4171520665  TIP3      2243            0.0000000000
     17888      2339  TIP3      H1             -6.8577297969       -5.1707996802      -39.1586734112  TIP3      2243            0.0000000000
     17889      2339  TIP3      H2             -6.7926594407       -4.1889685914      -38.0059689292  TIP3      2243            0.0000000000
     17890      2340  TIP3      OH2           -25.6888792719       -4.7631392504      -35.3606209356  TIP3      2244            0.0000000000
     17891      2340  TIP3      H1            -26.6279497676       -4.4742127218      -35.3228853898  TIP3      2244            0.0000000000
     17892      2340  TIP3      H2            -25.3015941006       -4.0076366544      -35.8524953955  TIP3      2244            0.0000000000
     17893      2341  TIP3      OH2           -10.7931176672       10.3876841038      -33.1854125514  TIP3      2245            0.0000000000
     17894      2341  TIP3      H1            -10.1850659424       10.2448831045      -33.9456850386  TIP3      2245            0.0000000000
     17895      2341  TIP3      H2            -10.2966252970       10.9666903030      -32.5808352338  TIP3      2245            0.0000000000
     17896      2342  TIP3      OH2           -25.1777921538       -6.0376315253      -26.9281202012  TIP3      2246            0.0000000000
     17897      2342  TIP3      H1            -25.4538212603       -5.1522721785      -26.6255379886  TIP3      2246            0.0000000000
     17898      2342  TIP3      H2            -25.2044476704       -5.9140630476      -27.8913239671  TIP3      2246            0.0000000000
     17899      2343  TIP3      OH2           -23.7286705727        7.8911852024      -21.8992797865  TIP3      2247            0.0000000000
     17900      2343  TIP3      H1            -23.4473143550        7.5829769027      -22.7649592156  TIP3      2247            0.0000000000
     17901      2343  TIP3      H2            -23.4995681376        7.1178654531      -21.3546918687  TIP3      2247            0.0000000000
     17902      2344  TIP3      OH2           -20.5108485929        8.8225459798      -26.9721517312  TIP3      2248            0.0000000000
     17903      2344  TIP3      H1            -20.6516248588        9.7494729205      -27.2806615867  TIP3      2248            0.0000000000
     17904      2344  TIP3      H2            -19.5206576458        8.8261750505      -26.9753515811  TIP3      2248            0.0000000000
     17905      2345  TIP3      OH2           -15.6764348143       10.2896455687      -23.7357608474  TIP3      2249            0.0000000000
     17906      2345  TIP3      H1            -15.4151211749       10.0460988219      -22.8350532907  TIP3      2249            0.0000000000
     17907      2345  TIP3      H2            -14.8736372296       10.7922287482      -24.0069311402  TIP3      2249            0.0000000000
     17908      2346  TIP3      OH2           -13.1076109567       11.4629544694      -24.2673228174  TIP3      2250            0.0000000000
     17909      2346  TIP3      H1            -12.1473636245       11.3835575959      -24.1983241195  TIP3      2250            0.0000000000
     17910      2346  TIP3      H2            -13.3092041550       11.9153232741      -23.4343093948  TIP3      2250            0.0000000000
     17911      2347  TIP3      OH2            -8.6425370431       -6.3676969778      -25.1862304507  TIP3      2251            0.0000000000
     17912      2347  TIP3      H1             -9.4482205046       -6.6398568517      -25.6316019577  TIP3      2251            0.0000000000
     17913      2347  TIP3      H2             -8.3252535033       -7.2151286368      -24.8299384374  TIP3      2251            0.0000000000
     17914      2348  TIP3      OH2           -22.6393495221       11.8221890578      -26.2976142828  TIP3      2252            0.0000000000
     17915      2348  TIP3      H1            -23.4303457527       11.9140118073      -26.8621862845  TIP3      2252            0.0000000000
     17916      2348  TIP3      H2            -22.9947303949       12.2685418047      -25.5043131742  TIP3      2252            0.0000000000
     17917      2349  TIP3      OH2           -20.3263296610       11.4108578616      -27.5274206504  TIP3      2253            0.0000000000
     17918      2349  TIP3      H1            -21.1833551509       11.5938803656      -27.0675793541  TIP3      2253            0.0000000000
     17919      2349  TIP3      H2            -20.3973395658       12.0016249325      -28.2951733695  TIP3      2253            0.0000000000
     17920      2350  TIP3      OH2           -16.1439032381       10.9852659690      -28.1108549351  TIP3      2254            0.0000000000
     17921      2350  TIP3      H1            -15.9255242330       11.5800721800      -28.8347800406  TIP3      2254            0.0000000000
     17922      2350  TIP3      H2            -15.9918419542       11.5831935512      -27.3319534688  TIP3      2254            0.0000000000
     17923      2351  TIP3      OH2           -13.7421964334        9.7089076666      -27.1394874285  TIP3      2255            0.0000000000
     17924      2351  TIP3      H1            -14.5644516107       10.1837581314      -27.3580368975  TIP3      2255            0.0000000000
     17925      2351  TIP3      H2            -13.0816080921       10.3847863348      -27.3697599759  TIP3      2255            0.0000000000
     17926      2352  TIP3      OH2           -11.2938276553       11.6100428127      -27.3093075341  TIP3      2256            0.0000000000
     17927      2352  TIP3      H1            -11.4357035544       12.5473340351      -27.5496780928  TIP3      2256            0.0000000000
     17928      2352  TIP3      H2            -10.9744865542       11.2115278852      -28.1500851823  TIP3      2256            0.0000000000
     17929      2353  TIP3      OH2           -22.9698610709       10.2524258816      -29.2621270503  TIP3      2257            0.0000000000
     17930      2353  TIP3      H1            -23.3477585251        9.7481373662      -28.5044622382  TIP3      2257            0.0000000000
     17931      2353  TIP3      H2            -22.2375259558        9.6511961637      -29.5336237605  TIP3      2257            0.0000000000
     17932      2354  TIP3      OH2           -21.1860414389        8.7421383750      -30.5321084722  TIP3      2258            0.0000000000
     17933      2354  TIP3      H1            -21.3594758712        7.8163411425      -30.2737405761  TIP3      2258            0.0000000000
     17934      2354  TIP3      H2            -20.2331214763        8.8591542886      -30.3296821748  TIP3      2258            0.0000000000
     17935      2355  TIP3      OH2           -18.5712859549        9.1987935211      -29.7736792415  TIP3      2259            0.0000000000
     17936      2355  TIP3      H1            -18.1712620427        8.3156936741      -29.7645946700  TIP3      2259            0.0000000000
     17937      2355  TIP3      H2            -18.3981386893        9.4894058106      -28.8578370592  TIP3      2259            0.0000000000
     17938      2356  TIP3      OH2           -15.9873094214       -5.0799503820      -30.4492908419  TIP3      2260            0.0000000000
     17939      2356  TIP3      H1            -16.7634444127       -5.6910264769      -30.4383783833  TIP3      2260            0.0000000000
     17940      2356  TIP3      H2            -15.4388913966       -5.4823349843      -31.1323578811  TIP3      2260            0.0000000000
     17941      2357  TIP3      OH2           -10.2530255871       -6.7465276579      -30.9681175302  TIP3      2261            0.0000000000
     17942      2357  TIP3      H1             -9.5550404998       -6.2295288093      -31.4509839531  TIP3      2261            0.0000000000
     17943      2357  TIP3      H2            -11.0523073631       -6.2348498511      -31.1931449234  TIP3      2261            0.0000000000
     17944      2358  TIP3      OH2            -8.5593390251       -5.7826774815      -32.6952946336  TIP3      2262            0.0000000000
     17945      2358  TIP3      H1             -7.9573274458       -6.4125688667      -33.1542133941  TIP3      2262            0.0000000000
     17946      2358  TIP3      H2             -7.8928156609       -5.1052104191      -32.4146638123  TIP3      2262            0.0000000000
     17947      2359  TIP3      OH2           -22.7139795559       -6.7683065170      -33.1934976894  TIP3      2263            0.0000000000
     17948      2359  TIP3      H1            -23.5847810991       -6.7477815560      -33.6541140941  TIP3      2263            0.0000000000
     17949      2359  TIP3      H2            -22.3805678274       -7.6873996611      -33.3565528721  TIP3      2263            0.0000000000
     17950      2360  TIP3      OH2           -23.7620815634       -6.2274090935      -36.7885038344  TIP3      2264            0.0000000000
     17951      2360  TIP3      H1            -23.5289753942       -5.6975135579      -37.5783823456  TIP3      2264            0.0000000000
     17952      2360  TIP3      H2            -24.4687709145       -5.6554452737      -36.4202683861  TIP3      2264            0.0000000000
     17953      2361  TIP3      OH2           -18.9690725602       -6.4393732631      -33.2032869432  TIP3      2265            0.0000000000
     17954      2361  TIP3      H1            -18.1609794397       -6.0837638666      -33.5913924670  TIP3      2265            0.0000000000
     17955      2361  TIP3      H2            -18.8138659640       -6.3339773803      -32.2445847237  TIP3      2265            0.0000000000
     17956      2362  TIP3      OH2           -13.2102684070       -5.8087073789      -31.8627454935  TIP3      2266            0.0000000000
     17957      2362  TIP3      H1            -13.3639496423       -5.9231368145      -32.8027707629  TIP3      2266            0.0000000000
     17958      2362  TIP3      H2            -13.4668668110       -6.6906550715      -31.5028144731  TIP3      2266            0.0000000000
     17959      2363  TIP3      OH2           -11.0086614213       -6.1799321497      -35.9818702748  TIP3      2267            0.0000000000
     17960      2363  TIP3      H1            -11.8527463576       -5.7109766145      -35.9177430792  TIP3      2267            0.0000000000
     17961      2363  TIP3      H2            -11.3267256837       -7.0578148075      -35.6628408017  TIP3      2267            0.0000000000
     17962      2364  TIP3      OH2           -24.6076233856        9.7832562494      -35.6186034985  TIP3      2268            0.0000000000
     17963      2364  TIP3      H1            -25.5456910931        9.8394771288      -35.8773396800  TIP3      2268            0.0000000000
     17964      2364  TIP3      H2            -24.2650686744       10.6091547172      -36.0335158936  TIP3      2268            0.0000000000
     17965      2365  TIP3      OH2           -22.7650127638       -4.7464288009      -38.8466930735  TIP3      2269            0.0000000000
     17966      2365  TIP3      H1            -22.0820068664       -5.1196114637      -39.3998311062  TIP3      2269            0.0000000000
     17967      2365  TIP3      H2            -22.2381902467       -4.3701088127      -38.1189846048  TIP3      2269            0.0000000000
     17968      2366  TIP3      OH2           -17.6101065320       -4.4580433146      -36.0427354102  TIP3      2270            0.0000000000
     17969      2366  TIP3      H1            -17.0347455391       -4.9107884664      -35.3983961410  TIP3      2270            0.0000000000
     17970      2366  TIP3      H2            -17.3739270540       -3.5240840196      -35.8604798053  TIP3      2270            0.0000000000
     17971      2367  TIP3      OH2           -15.3602651311       11.6221392081      -38.1321635841  TIP3      2271            0.0000000000
     17972      2367  TIP3      H1            -14.5182630641       11.1071717343      -38.0501165600  TIP3      2271            0.0000000000
     17973      2367  TIP3      H2            -15.5217470593       11.6152172898      -39.0924984933  TIP3      2271            0.0000000000
     17974      2368  TIP3      OH2            -9.0414429242       10.0903467144      -35.1114898443  TIP3      2272            0.0000000000
     17975      2368  TIP3      H1             -8.7744491972        9.2022717577      -35.4465269916  TIP3      2272            0.0000000000
     17976      2368  TIP3      H2             -9.0688891505       10.6229727268      -35.9366476568  TIP3      2272            0.0000000000
     17977      2369  TIP3      OH2           -23.0003348217       -5.3455845549      -23.2766879781  TIP3      2273            0.0000000000
     17978      2369  TIP3      H1            -23.7095800516       -5.8883428417      -22.8909121844  TIP3      2273            0.0000000000
     17979      2369  TIP3      H2            -23.0985041668       -4.5496563972      -22.7220757636  TIP3      2273            0.0000000000
     17980      2370  TIP3      OH2           -20.8020506652       -6.0335918758      -21.4660310738  TIP3      2274            0.0000000000
     17981      2370  TIP3      H1            -21.4461986805       -5.9317218692      -22.1867572249  TIP3      2274            0.0000000000
     17982      2370  TIP3      H2            -21.2620624038       -6.6046199389      -20.8289082500  TIP3      2274            0.0000000000
     17983      2371  TIP3      OH2           -22.2896988996        9.6445579425      -38.0880540018  TIP3      2275            0.0000000000
     17984      2371  TIP3      H1            -22.6777309497       10.4638605385      -37.7450834663  TIP3      2275            0.0000000000
     17985      2371  TIP3      H2            -21.3471833658        9.8200867481      -38.1657684181  TIP3      2275            0.0000000000
     17986      2372  TIP3      OH2             5.0920918667        3.0546891851      -33.2364679486  TIP3      2276            0.0000000000
     17987      2372  TIP3      H1              5.1708761526        3.9568496173      -32.8543426313  TIP3      2276            0.0000000000
     17988      2372  TIP3      H2              4.4019558549        3.2552036050      -33.8786285718  TIP3      2276            0.0000000000
     17989      2373  TIP3      OH2             3.8590762005        1.7846173779      -30.1216329408  TIP3      2277            0.0000000000
     17990      2373  TIP3      H1              3.7576775782        1.4284645375      -29.1976979883  TIP3      2277            0.0000000000
     17991      2373  TIP3      H2              3.0331846351        1.5127329002      -30.5590455601  TIP3      2277            0.0000000000
     17992      2374  TIP3      OH2            -4.0753614042        1.7701281190      -28.0401605490  TIP3      2278            0.0000000000
     17993      2374  TIP3      H1             -3.9849940752        0.9707269410      -27.4849108827  TIP3      2278            0.0000000000
     17994      2374  TIP3      H2             -3.2276885222        1.7393934965      -28.5386409263  TIP3      2278            0.0000000000
     17995      2375  TIP3      OH2             6.7926079212        5.0610597471      -31.3675444967  TIP3      2279            0.0000000000
     17996      2375  TIP3      H1              6.6758265952        4.3610833031      -30.7090096792  TIP3      2279            0.0000000000
     17997      2375  TIP3      H2              7.2109587570        5.7538264083      -30.8322983445  TIP3      2279            0.0000000000
     17998      2376  TIP3      OH2            -2.7906648597        6.9612393133      -30.6512205240  TIP3      2280            0.0000000000
     17999      2376  TIP3      H1             -3.1000738099        6.0382908077      -30.5657228887  TIP3      2280            0.0000000000
     18000      2376  TIP3      H2             -1.8222708147        6.8138582696      -30.5286393409  TIP3      2280            0.0000000000
     18001      2377  TIP3      OH2            -6.2925199317       -0.4476069238      -34.2343141879  TIP3      2281            0.0000000000
     18002      2377  TIP3      H1             -6.7808886057        0.3963129742      -34.1253918636  TIP3      2281            0.0000000000
     18003      2377  TIP3      H2             -7.0060508591       -0.9886838448      -34.6100774201  TIP3      2281            0.0000000000
     18004      2378  TIP3      OH2            -5.7251168736        1.8777133205      -31.7203361201  TIP3      2282            0.0000000000
     18005      2378  TIP3      H1             -5.3889580927        0.9509564725      -31.6716455721  TIP3      2282            0.0000000000
     18006      2378  TIP3      H2             -5.2987772757        2.2365696396      -32.5103270341  TIP3      2282            0.0000000000
     18007      2379  TIP3      OH2             4.5895951543       10.6366681863      -31.2024671242  TIP3      2283            0.0000000000
     18008      2379  TIP3      H1              5.2478713640       10.0600126053      -31.6572583333  TIP3      2283            0.0000000000
     18009      2379  TIP3      H2              4.2781138161       10.0090298472      -30.5362584577  TIP3      2283            0.0000000000
     18010      2380  TIP3      OH2             1.9905827902        4.1881038969      -28.4933711855  TIP3      2284            0.0000000000
     18011      2380  TIP3      H1              2.0075995302        3.9379829780      -29.4248566960  TIP3      2284            0.0000000000
     18012      2380  TIP3      H2              2.8837228789        4.5700067791      -28.4075671446  TIP3      2284            0.0000000000
     18013      2381  TIP3      OH2            10.5781463509       -4.4937178045      -28.6378688604  TIP3      2285            0.0000000000
     18014      2381  TIP3      H1             10.8544365149       -3.6681146230      -28.1908941213  TIP3      2285            0.0000000000
     18015      2381  TIP3      H2             11.2356440399       -4.5315345066      -29.3446938937  TIP3      2285            0.0000000000
     18016      2382  TIP3      OH2             5.7615659910       -0.9945541652      -28.4659900315  TIP3      2286            0.0000000000
     18017      2382  TIP3      H1              5.9182132537       -1.9249762582      -28.2428176047  TIP3      2286            0.0000000000
     18018      2382  TIP3      H2              5.5523393912       -1.0559208101      -29.4274959028  TIP3      2286            0.0000000000
     18019      2383  TIP3      OH2            -1.4433580600       -3.2170345096      -31.8764391689  TIP3      2287            0.0000000000
     18020      2383  TIP3      H1             -1.3930709161       -2.3619485170      -32.3429528538  TIP3      2287            0.0000000000
     18021      2383  TIP3      H2             -1.9469819804       -3.7532831130      -32.5314071210  TIP3      2287            0.0000000000
     18022      2384  TIP3      OH2             6.5043972664       -2.7582892563      -33.4968001813  TIP3      2288            0.0000000000
     18023      2384  TIP3      H1              6.9056686764       -3.1968122483      -32.7043409522  TIP3      2288            0.0000000000
     18024      2384  TIP3      H2              7.2510119323       -2.2097773319      -33.8044434990  TIP3      2288            0.0000000000
     18025      2385  TIP3      OH2            -4.7962834868       -0.5278611527      -31.0803554730  TIP3      2289            0.0000000000
     18026      2385  TIP3      H1             -4.2152326919       -1.0000400871      -30.4614977609  TIP3      2289            0.0000000000
     18027      2385  TIP3      H2             -4.6687268364       -1.0758633760      -31.8870708694  TIP3      2289            0.0000000000
     18028      2386  TIP3      OH2            -0.4291534882        1.0535650422      -31.5553071586  TIP3      2290            0.0000000000
     18029      2386  TIP3      H1              0.4440960304        0.6102748082      -31.5134685832  TIP3      2290            0.0000000000
     18030      2386  TIP3      H2             -0.9705273804        0.3620007788      -32.0024850852  TIP3      2290            0.0000000000
     18031      2387  TIP3      OH2            11.2187424199       -2.5420477270      -26.4989910104  TIP3      2291            0.0000000000
     18032      2387  TIP3      H1             10.8838010327       -1.6545964528      -26.7256970994  TIP3      2291            0.0000000000
     18033      2387  TIP3      H2             10.5328963371       -2.7919014407      -25.8533321104  TIP3      2291            0.0000000000
     18034      2388  TIP3      OH2            -2.4476749629       -3.9915263746      -27.8184919862  TIP3      2292            0.0000000000
     18035      2388  TIP3      H1             -2.8181903737       -3.3895814756      -28.4935290331  TIP3      2292            0.0000000000
     18036      2388  TIP3      H2             -3.1671267591       -3.9549258274      -27.1644216840  TIP3      2292            0.0000000000
     18037      2389  TIP3      OH2             4.2580235863        5.4848228061      -33.8951283017  TIP3      2293            0.0000000000
     18038      2389  TIP3      H1              3.4961858601        5.4371725770      -34.4884066850  TIP3      2293            0.0000000000
     18039      2389  TIP3      H2              3.9334436981        6.1750300244      -33.2806186577  TIP3      2293            0.0000000000
     18040      2390  TIP3      OH2            -0.5441903718        3.5471921603      -27.5700258594  TIP3      2294            0.0000000000
     18041      2390  TIP3      H1             -1.0898332796        4.2775090060      -27.2025608059  TIP3      2294            0.0000000000
     18042      2390  TIP3      H2              0.1609433703        4.0454380627      -28.0200158531  TIP3      2294            0.0000000000
     18043      2391  TIP3      OH2             7.9944193968       -3.2855080533      -31.3508104024  TIP3      2295            0.0000000000
     18044      2391  TIP3      H1              7.5807678688       -3.6158376702      -30.5427273382  TIP3      2295            0.0000000000
     18045      2391  TIP3      H2              8.9300217287       -3.4425810528      -31.1788191788  TIP3      2295            0.0000000000
     18046      2392  TIP3      OH2            -2.9022907931       -2.1323061982      -29.8379331064  TIP3      2296            0.0000000000
     18047      2392  TIP3      H1             -2.3634684711       -1.3807064284      -29.4988933779  TIP3      2296            0.0000000000
     18048      2392  TIP3      H2             -2.2770207866       -2.5272176821      -30.4997874121  TIP3      2296            0.0000000000
     18049      2393  TIP3      OH2            -1.8208827567        5.7944556171      -26.5938598422  TIP3      2297            0.0000000000
     18050      2393  TIP3      H1             -2.0500202203        6.7055028683      -26.8438444876  TIP3      2297            0.0000000000
     18051      2393  TIP3      H2             -2.6345330965        5.5034397321      -26.1287370695  TIP3      2297            0.0000000000
     18052      2394  TIP3      OH2            -6.0615831968        4.9940823161      -36.0248714253  TIP3      2298            0.0000000000
     18053      2394  TIP3      H1             -6.0360628208        5.4951626155      -36.8750984049  TIP3      2298            0.0000000000
     18054      2394  TIP3      H2             -5.8623687923        5.7159923648      -35.3793274003  TIP3      2298            0.0000000000
     18055      2395  TIP3      OH2             7.8153830849        7.3050737545      -29.3980203899  TIP3      2299            0.0000000000
     18056      2395  TIP3      H1              6.9114510878        7.2700465237      -29.0275633078  TIP3      2299            0.0000000000
     18057      2395  TIP3      H2              7.7780988289        8.2252330995      -29.6910992183  TIP3      2299            0.0000000000
     18058      2396  TIP3      OH2             7.9915798350       -4.3897539073      -27.3566303254  TIP3      2300            0.0000000000
     18059      2396  TIP3      H1              7.3803707899       -3.9380086747      -27.9809623185  TIP3      2300            0.0000000000
     18060      2396  TIP3      H2              8.8394500879       -4.3556433045      -27.8464793917  TIP3      2300            0.0000000000
     18061      2397  TIP3      OH2             0.8850851730       -6.7081532298      -30.3033066658  TIP3      2301            0.0000000000
     18062      2397  TIP3      H1              0.6588406436       -7.6444637278      -30.2825633056  TIP3      2301            0.0000000000
     18063      2397  TIP3      H2              0.0012460013       -6.3200617800      -30.0773208538  TIP3      2301            0.0000000000
     18064      2398  TIP3      OH2             6.4312385992        8.8133103415      -32.1825460775  TIP3      2302            0.0000000000
     18065      2398  TIP3      H1              6.4653136412        8.0914220265      -32.8324957811  TIP3      2302            0.0000000000
     18066      2398  TIP3      H2              7.0738792043        9.4247239339      -32.6071381397  TIP3      2302            0.0000000000
     18067      2399  TIP3      OH2             7.3748916622        6.7515109923      -33.9416665841  TIP3      2303            0.0000000000
     18068      2399  TIP3      H1              7.2338960577        6.1414754731      -34.6909084290  TIP3      2303            0.0000000000
     18069      2399  TIP3      H2              7.0365553077        6.2346400607      -33.1852540747  TIP3      2303            0.0000000000
     18070      2400  TIP3      OH2             8.9529443361        5.3674964776      -25.5426614523  TIP3      2304            0.0000000000
     18071      2400  TIP3      H1              9.0858740831        4.6381959544      -26.1928442093  TIP3      2304            0.0000000000
     18072      2400  TIP3      H2              9.1730199309        6.1380111896      -26.1117611672  TIP3      2304            0.0000000000
     18073      2401  TIP3      OH2             3.3904049534        1.9164735267      -36.1927405458  TIP3      2305            0.0000000000
     18074      2401  TIP3      H1              2.8237046928        2.6679701043      -36.4489946644  TIP3      2305            0.0000000000
     18075      2401  TIP3      H2              4.2701135048        2.1765573829      -36.5912560929  TIP3      2305            0.0000000000
     18076      2402  TIP3      OH2             3.9716589784        0.4725874698      -38.6221096647  TIP3      2306            0.0000000000
     18077      2402  TIP3      H1              4.7418355805        1.0705146704      -38.5937992190  TIP3      2306            0.0000000000
     18078      2402  TIP3      H2              4.0505003060        0.0872997888      -39.5080236240  TIP3      2306            0.0000000000
     18079      2403  TIP3      OH2            11.2203477422        1.6482458173      -27.4429188722  TIP3      2307            0.0000000000
     18080      2403  TIP3      H1             10.7307432807        2.4477698941      -27.1962331413  TIP3      2307            0.0000000000
     18081      2403  TIP3      H2             11.6805860156        1.9905605818      -28.2399343557  TIP3      2307            0.0000000000
     18082      2404  TIP3      OH2             7.3667965860        1.8420446840      -34.4805810177  TIP3      2308            0.0000000000
     18083      2404  TIP3      H1              6.8185015112        2.4412719575      -33.9419596411  TIP3      2308            0.0000000000
     18084      2404  TIP3      H2              8.0285309672        1.5218798676      -33.8342109220  TIP3      2308            0.0000000000
     18085      2405  TIP3      OH2             7.1460354367        0.7647306309      -25.4807497885  TIP3      2309            0.0000000000
     18086      2405  TIP3      H1              6.5151183647        1.2225321334      -24.9084573898  TIP3      2309            0.0000000000
     18087      2405  TIP3      H2              6.6392303918        0.6798439488      -26.3020076938  TIP3      2309            0.0000000000
     18088      2406  TIP3      OH2            -1.1766285921        2.9426348477      -33.2065008466  TIP3      2310            0.0000000000
     18089      2406  TIP3      H1             -1.5620736239        2.5180087723      -33.9999901196  TIP3      2310            0.0000000000
     18090      2406  TIP3      H2             -0.8895118502        2.1790661773      -32.6679910405  TIP3      2310            0.0000000000
     18091      2407  TIP3      OH2            -0.1811323268        6.1974664617      -30.1870143927  TIP3      2311            0.0000000000
     18092      2407  TIP3      H1              0.0848015341        6.0421074943      -31.1092109413  TIP3      2311            0.0000000000
     18093      2407  TIP3      H2              0.5226974054        5.7656060045      -29.6861639348  TIP3      2311            0.0000000000
     18094      2408  TIP3      OH2            -1.7701536573        1.8580310249      -29.3488463936  TIP3      2312            0.0000000000
     18095      2408  TIP3      H1             -1.1589937528        1.8229554402      -30.1214872388  TIP3      2312            0.0000000000
     18096      2408  TIP3      H2             -1.3031250683        2.4269605982      -28.6933471176  TIP3      2312            0.0000000000
     18097      2409  TIP3      OH2             5.3961117681        7.4205759772      -28.3427631737  TIP3      2313            0.0000000000
     18098      2409  TIP3      H1              4.7507929227        7.8674191147      -27.7903813981  TIP3      2313            0.0000000000
     18099      2409  TIP3      H2              5.1051844775        6.4819345491      -28.2831316732  TIP3      2313            0.0000000000
     18100      2410  TIP3      OH2             5.9726485420        1.9750976166      -36.6621852052  TIP3      2314            0.0000000000
     18101      2410  TIP3      H1              6.6069075982        1.8559706580      -35.9118260898  TIP3      2314            0.0000000000
     18102      2410  TIP3      H2              6.5105130617        2.3991021269      -37.3687849115  TIP3      2314            0.0000000000
     18103      2411  TIP3      OH2            -2.7923754419        1.9449477283      -25.4853094507  TIP3      2315            0.0000000000
     18104      2411  TIP3      H1             -3.1779168267        2.3947257446      -24.7273860096  TIP3      2315            0.0000000000
     18105      2411  TIP3      H2             -3.3649127772        2.2245228743      -26.2147197446  TIP3      2315            0.0000000000
     18106      2412  TIP3      OH2             3.0753603420        7.7292055437      -33.0056953012  TIP3      2316            0.0000000000
     18107      2412  TIP3      H1              3.2904451179        8.6299960641      -32.7377573858  TIP3      2316            0.0000000000
     18108      2412  TIP3      H2              2.8549801335        7.8621333813      -33.9426513414  TIP3      2316            0.0000000000
     18109      2413  TIP3      OH2             9.6920975538       -6.8173784232      -37.0426035837  TIP3      2317            0.0000000000
     18110      2413  TIP3      H1              8.7767807262       -6.7672180437      -37.3647932522  TIP3      2317            0.0000000000
     18111      2413  TIP3      H2             10.1234270480       -6.0590864806      -37.4841772931  TIP3      2317            0.0000000000
     18112      2414  TIP3      OH2            -2.5470019008        1.6569913302      -35.2921626409  TIP3      2318            0.0000000000
     18113      2414  TIP3      H1             -3.1479136057        2.4108225655      -35.4418188852  TIP3      2318            0.0000000000
     18114      2414  TIP3      H2             -3.1457489519        0.9003440791      -35.3145559317  TIP3      2318            0.0000000000
     18115      2415  TIP3      OH2            10.6035405391        7.5577139399      -38.7755061291  TIP3      2319            0.0000000000
     18116      2415  TIP3      H1             10.9201683054        8.4735651482      -38.5629511207  TIP3      2319            0.0000000000
     18117      2415  TIP3      H2             11.4724980800        7.0976748348      -38.8653233189  TIP3      2319            0.0000000000
     18118      2416  TIP3      OH2            -6.3315391714        4.4936874409      -26.4804843610  TIP3      2320            0.0000000000
     18119      2416  TIP3      H1             -6.8194650011        4.4976969002      -27.3181390995  TIP3      2320            0.0000000000
     18120      2416  TIP3      H2             -6.0874068441        3.5494461527      -26.4117667607  TIP3      2320            0.0000000000
     18121      2417  TIP3      OH2            -6.5934309155        6.9347715748      -29.7721220271  TIP3      2321            0.0000000000
     18122      2417  TIP3      H1             -5.6992005566        6.5826171569      -29.8217754265  TIP3      2321            0.0000000000
     18123      2417  TIP3      H2             -6.4689144399        7.6462959258      -29.1250273663  TIP3      2321            0.0000000000
     18124      2418  TIP3      OH2            11.0098537062        8.0020231760      -23.9588763134  TIP3      2322            0.0000000000
     18125      2418  TIP3      H1             11.5550969741        7.1906933609      -23.8973299872  TIP3      2322            0.0000000000
     18126      2418  TIP3      H2             10.1621621506        7.6505650519      -23.6563410184  TIP3      2322            0.0000000000
     18127      2419  TIP3      OH2             2.8956376874       10.9017232911      -35.3427653706  TIP3      2323            0.0000000000
     18128      2419  TIP3      H1              2.7480237243       11.2023768871      -36.2555852033  TIP3      2323            0.0000000000
     18129      2419  TIP3      H2              2.9825638608       11.7597018257      -34.8755730389  TIP3      2323            0.0000000000
     18130      2420  TIP3      OH2            -3.3834047804        9.5651091016      -33.1923810788  TIP3      2324            0.0000000000
     18131      2420  TIP3      H1             -3.0324596622        9.6416610539      -32.2660101566  TIP3      2324            0.0000000000
     18132      2420  TIP3      H2             -4.2377828340        9.1210476470      -33.0534201044  TIP3      2324            0.0000000000
     18133      2421  TIP3      OH2             5.6322651154       10.1207745441      -38.2487221287  TIP3      2325            0.0000000000
     18134      2421  TIP3      H1              6.4877382258        9.7230553036      -38.5142722711  TIP3      2325            0.0000000000
     18135      2421  TIP3      H2              5.8359428997       10.4025742157      -37.3386811017  TIP3      2325            0.0000000000
     18136      2422  TIP3      OH2             5.6758905331       10.5737955803      -35.5177368056  TIP3      2326            0.0000000000
     18137      2422  TIP3      H1              4.6997014282       10.6427423994      -35.4095410724  TIP3      2326            0.0000000000
     18138      2422  TIP3      H2              5.8551188230        9.6858008840      -35.1772321053  TIP3      2326            0.0000000000
     18139      2423  TIP3      OH2            -4.1514278397        5.0571459388      -25.0773082454  TIP3      2327            0.0000000000
     18140      2423  TIP3      H1             -4.5679793246        4.7666242497      -24.2405610806  TIP3      2327            0.0000000000
     18141      2423  TIP3      H2             -4.8901165540        4.8807643179      -25.6992456191  TIP3      2327            0.0000000000
     18142      2424  TIP3      OH2            -1.5010629553       -5.7350872814      -29.5976695862  TIP3      2328            0.0000000000
     18143      2424  TIP3      H1             -2.3168685803       -5.4413502130      -30.0312609555  TIP3      2328            0.0000000000
     18144      2424  TIP3      H2             -1.5685639696       -5.2000937174      -28.7739881495  TIP3      2328            0.0000000000
     18145      2425  TIP3      OH2             3.0373653267       -6.8395346653      -25.8410022641  TIP3      2329            0.0000000000
     18146      2425  TIP3      H1              3.0452676174       -6.5016895577      -24.9281986092  TIP3      2329            0.0000000000
     18147      2425  TIP3      H2              2.2013755625       -6.4428074072      -26.1801482092  TIP3      2329            0.0000000000
     18148      2426  TIP3      OH2             6.3177716786       -1.8592399289      -25.4384594053  TIP3      2330            0.0000000000
     18149      2426  TIP3      H1              6.0946762590       -1.5472835430      -24.5441232551  TIP3      2330            0.0000000000
     18150      2426  TIP3      H2              6.8992300116       -1.1339238516      -25.7281465519  TIP3      2330            0.0000000000
     18151      2427  TIP3      OH2             7.0213494537        2.7464597554      -38.9132265556  TIP3      2331            0.0000000000
     18152      2427  TIP3      H1              7.3736995204        2.0714333566      -39.5114946612  TIP3      2331            0.0000000000
     18153      2427  TIP3      H2              7.8006136658        3.3283598039      -38.8231745628  TIP3      2331            0.0000000000
     18154      2428  TIP3      OH2             3.1341979992       -3.0867250291      -38.6345226711  TIP3      2332            0.0000000000
     18155      2428  TIP3      H1              2.6966579523       -3.4529917343      -37.8410665499  TIP3      2332            0.0000000000
     18156      2428  TIP3      H2              2.5696002211       -3.4904097873      -39.3138613340  TIP3      2332            0.0000000000
     18157      2429  TIP3      OH2            -1.3463018685       -0.5722646231      -28.3162174018  TIP3      2333            0.0000000000
     18158      2429  TIP3      H1             -2.0362893029       -0.7181824425      -27.6338178274  TIP3      2333            0.0000000000
     18159      2429  TIP3      H2             -1.4836784827        0.3795815631      -28.4918004867  TIP3      2333            0.0000000000
     18160      2430  TIP3      OH2            -1.8004777475       -0.7977512695      -33.0008597945  TIP3      2334            0.0000000000
     18161      2430  TIP3      H1             -2.6740624041       -1.2048376553      -33.1450829489  TIP3      2334            0.0000000000
     18162      2430  TIP3      H2             -1.4848211303       -0.6859736776      -33.9153237098  TIP3      2334            0.0000000000
     18163      2431  TIP3      OH2             4.3975540824        0.3902897527      -34.1386330904  TIP3      2335            0.0000000000
     18164      2431  TIP3      H1              4.0186973672        1.2395518843      -34.4618013624  TIP3      2335            0.0000000000
     18165      2431  TIP3      H2              5.3224831761        0.6717859244      -34.0028488418  TIP3      2335            0.0000000000
     18166      2432  TIP3      OH2             5.3713266388       -0.4085497126      -31.1842838370  TIP3      2336            0.0000000000
     18167      2432  TIP3      H1              5.0058764546        0.4308565280      -31.5253809156  TIP3      2336            0.0000000000
     18168      2432  TIP3      H2              5.4071388939       -0.9423223692      -31.9915413323  TIP3      2336            0.0000000000
     18169      2433  TIP3      OH2            -3.5165154898       -0.8438291774      -26.7691399415  TIP3      2337            0.0000000000
     18170      2433  TIP3      H1             -3.2459832916       -0.4393067814      -25.9185746899  TIP3      2337            0.0000000000
     18171      2433  TIP3      H2             -3.9644939775       -1.6588306226      -26.4521141655  TIP3      2337            0.0000000000
     18172      2434  TIP3      OH2            -0.2320129935       -2.5533372571      -38.8660111534  TIP3      2338            0.0000000000
     18173      2434  TIP3      H1             -0.8958636302       -3.0778099788      -38.3774817237  TIP3      2338            0.0000000000
     18174      2434  TIP3      H2             -0.7126061063       -1.7289659292      -39.0582502725  TIP3      2338            0.0000000000
     18175      2435  TIP3      OH2            -6.9319523731       -3.8009098593      -32.2582968978  TIP3      2339            0.0000000000
     18176      2435  TIP3      H1             -6.1673346992       -3.6118004059      -31.6959880418  TIP3      2339            0.0000000000
     18177      2435  TIP3      H2             -6.5904756969       -3.6339128788      -33.1533653579  TIP3      2339            0.0000000000
     18178      2436  TIP3      OH2            -5.7093384617       -2.9895070599      -37.0797417541  TIP3      2340            0.0000000000
     18179      2436  TIP3      H1             -5.1011584828       -2.3971483338      -37.5637904339  TIP3      2340            0.0000000000
     18180      2436  TIP3      H2             -6.3830681308       -2.3095666477      -36.8523382684  TIP3      2340            0.0000000000
     18181      2437  TIP3      OH2             3.9380694087        0.7345452583      -27.6174301313  TIP3      2341            0.0000000000
     18182      2437  TIP3      H1              4.6972995236        0.1320971510      -27.8284090822  TIP3      2341            0.0000000000
     18183      2437  TIP3      H2              3.5766474595        0.2721874140      -26.8283693109  TIP3      2341            0.0000000000
     18184      2438  TIP3      OH2             1.8313735277       -3.3450546548      -32.5784547887  TIP3      2342            0.0000000000
     18185      2438  TIP3      H1              0.8888285550       -3.4144051740      -32.3455920955  TIP3      2342            0.0000000000
     18186      2438  TIP3      H2              2.2466791564       -3.7361883706      -31.7708943846  TIP3      2342            0.0000000000
     18187      2439  TIP3      OH2            -4.3404481483       -2.0770949280      -33.2861022549  TIP3      2343            0.0000000000
     18188      2439  TIP3      H1             -4.8698439408       -1.5606703486      -33.9363316464  TIP3      2343            0.0000000000
     18189      2439  TIP3      H2             -3.9574151962       -2.8233976374      -33.7871570374  TIP3      2343            0.0000000000
     18190      2440  TIP3      OH2            -1.1241893224       -1.2823972071      -35.8822737163  TIP3      2344            0.0000000000
     18191      2440  TIP3      H1             -0.1886502981       -1.0836037528      -35.9905906393  TIP3      2344            0.0000000000
     18192      2440  TIP3      H2             -1.4958058399       -0.8443583924      -36.6695863088  TIP3      2344            0.0000000000
     18193      2441  TIP3      OH2             5.9421188722       -3.7470659095      -29.0843283550  TIP3      2345            0.0000000000
     18194      2441  TIP3      H1              5.2337692134       -3.6446295226      -28.4082565307  TIP3      2345            0.0000000000
     18195      2441  TIP3      H2              5.4720613621       -4.2855927796      -29.7475572940  TIP3      2345            0.0000000000
     18196      2442  TIP3      OH2            -2.0030242238        0.0229229949      -38.3973256555  TIP3      2346            0.0000000000
     18197      2442  TIP3      H1             -2.1125424344        0.2553613938      -39.3392564495  TIP3      2346            0.0000000000
     18198      2442  TIP3      H2             -1.0536285172        0.2304207827      -38.2955299684  TIP3      2346            0.0000000000
     18199      2443  TIP3      OH2             2.0026366210       -0.3261846871      -31.2410361271  TIP3      2347            0.0000000000
     18200      2443  TIP3      H1              2.9307307097       -0.4669789311      -31.0145933954  TIP3      2347            0.0000000000
     18201      2443  TIP3      H2              1.6026981318       -1.1288061193      -30.8827339176  TIP3      2347            0.0000000000
     18202      2444  TIP3      OH2            -2.8123904108       -4.4513498763      -33.7920620752  TIP3      2348            0.0000000000
     18203      2444  TIP3      H1             -3.3587241202       -5.1311374052      -33.3417478631  TIP3      2348            0.0000000000
     18204      2444  TIP3      H2             -2.2108572531       -5.0310575758      -34.2878215429  TIP3      2348            0.0000000000
     18205      2445  TIP3      OH2             0.7140330946       -2.2226612859      -27.8402350838  TIP3      2349            0.0000000000
     18206      2445  TIP3      H1             -0.0713597583       -1.6568090034      -28.0655994488  TIP3      2349            0.0000000000
     18207      2445  TIP3      H2              1.4465451349       -1.7163971999      -28.1999839993  TIP3      2349            0.0000000000
     18208      2446  TIP3      OH2             1.9937915636        4.3520483303      -36.0591871744  TIP3      2350            0.0000000000
     18209      2446  TIP3      H1              1.2660008776        3.8540307737      -36.4925445197  TIP3      2350            0.0000000000
     18210      2446  TIP3      H2              1.4695021932        4.7415103021      -35.3089976248  TIP3      2350            0.0000000000
     18211      2447  TIP3      OH2             9.2153587921        3.5584477924      -27.5061115617  TIP3      2351            0.0000000000
     18212      2447  TIP3      H1              9.6096078187        3.9815226991      -28.3046682401  TIP3      2351            0.0000000000
     18213      2447  TIP3      H2              8.3678684525        3.2746178343      -27.8925194373  TIP3      2351            0.0000000000
     18214      2448  TIP3      OH2             5.6792795913       -3.1657050702      -37.7966456476  TIP3      2352            0.0000000000
     18215      2448  TIP3      H1              4.7857320471       -3.1424830204      -38.1988977164  TIP3      2352            0.0000000000
     18216      2448  TIP3      H2              5.8798775930       -2.2220716413      -37.6202847623  TIP3      2352            0.0000000000
     18217      2449  TIP3      OH2             6.1917160476       -0.8271201713      -36.5459137809  TIP3      2353            0.0000000000
     18218      2449  TIP3      H1              6.9362735046       -1.0135727374      -35.9263079154  TIP3      2353            0.0000000000
     18219      2449  TIP3      H2              6.6330559013       -0.0990567837      -37.0124746919  TIP3      2353            0.0000000000
     18220      2450  TIP3      OH2            -3.2881733563        3.7656472445      -30.8779896226  TIP3      2354            0.0000000000
     18221      2450  TIP3      H1             -2.6289957538        3.7768752696      -31.5866423867  TIP3      2354            0.0000000000
     18222      2450  TIP3      H2             -2.9346063554        3.0939562612      -30.2776330342  TIP3      2354            0.0000000000
     18223      2451  TIP3      OH2             4.3180348112        5.1334818295      -37.5240432873  TIP3      2355            0.0000000000
     18224      2451  TIP3      H1              4.2030590674        6.0468721944      -37.2408553694  TIP3      2355            0.0000000000
     18225      2451  TIP3      H2              3.5406157960        4.7481853577      -37.0699329452  TIP3      2355            0.0000000000
     18226      2452  TIP3      OH2            -6.2367263201        1.9334020960      -25.3383499666  TIP3      2356            0.0000000000
     18227      2452  TIP3      H1             -6.6241027862        1.4625151495      -24.5710038927  TIP3      2356            0.0000000000
     18228      2452  TIP3      H2             -6.8859978876        1.6709494090      -26.0212350838  TIP3      2356            0.0000000000
     18229      2453  TIP3      OH2             5.5245843384        6.5678029005      -24.5336950753  TIP3      2357            0.0000000000
     18230      2453  TIP3      H1              5.4774479279        7.2606978703      -25.2053655144  TIP3      2357            0.0000000000
     18231      2453  TIP3      H2              6.2953107925        6.8179145885      -24.0122302953  TIP3      2357            0.0000000000
     18232      2454  TIP3      OH2            11.1911635151       -1.0119854172      -36.8103235773  TIP3      2358            0.0000000000
     18233      2454  TIP3      H1             10.3068300177       -1.0492878412      -37.2195071526  TIP3      2358            0.0000000000
     18234      2454  TIP3      H2             11.4391324319       -0.0820579887      -36.9898450811  TIP3      2358            0.0000000000
     18235      2455  TIP3      OH2            11.3683538148        5.2606697644      -24.1579732540  TIP3      2359            0.0000000000
     18236      2455  TIP3      H1             10.5646586184        5.4085817505      -24.6962911078  TIP3      2359            0.0000000000
     18237      2455  TIP3      H2             12.0067393413        5.0060551154      -24.8606387975  TIP3      2359            0.0000000000
     18238      2456  TIP3      OH2            10.1146100942        7.4284778645      -36.1118358397  TIP3      2360            0.0000000000
     18239      2456  TIP3      H1              9.2530486102        7.0452199442      -35.9014855022  TIP3      2360            0.0000000000
     18240      2456  TIP3      H2             10.2214659194        7.2601114948      -37.0682020317  TIP3      2360            0.0000000000
     18241      2457  TIP3      OH2             6.7274866714        2.7687964111      -29.1661437529  TIP3      2361            0.0000000000
     18242      2457  TIP3      H1              5.8300635717        2.5325431985      -29.4447688241  TIP3      2361            0.0000000000
     18243      2457  TIP3      H2              7.2140683798        2.0195917320      -29.5689091633  TIP3      2361            0.0000000000
     18244      2458  TIP3      OH2            -1.0283926221        6.9367677998      -32.8763184330  TIP3      2362            0.0000000000
     18245      2458  TIP3      H1             -0.7461695959        7.8400653120      -33.1345213795  TIP3      2362            0.0000000000
     18246      2458  TIP3      H2             -1.9854950411        7.0515986345      -32.8431538171  TIP3      2362            0.0000000000
     18247      2459  TIP3      OH2            -4.6508870576        2.3648649602      -39.2733639946  TIP3      2363            0.0000000000
     18248      2459  TIP3      H1             -4.1939660933        2.8083774767      -38.5268396363  TIP3      2363            0.0000000000
     18249      2459  TIP3      H2             -5.5004627613        2.1457150843      -38.8773086922  TIP3      2363            0.0000000000
     18250      2460  TIP3      OH2             0.6179399568        5.0313410386      -33.8455691038  TIP3      2364            0.0000000000
     18251      2460  TIP3      H1              0.0391166257        5.7581232972      -33.5429274124  TIP3      2364            0.0000000000
     18252      2460  TIP3      H2              0.2111533697        4.2574002741      -33.4138287589  TIP3      2364            0.0000000000
     18253      2461  TIP3      OH2             0.9662708671        9.1460775008      -26.6549210891  TIP3      2365            0.0000000000
     18254      2461  TIP3      H1              1.6404123363        9.6747184607      -27.1225675536  TIP3      2365            0.0000000000
     18255      2461  TIP3      H2              1.5096553206        8.7386509172      -25.9618908690  TIP3      2365            0.0000000000
     18256      2462  TIP3      OH2            -0.6803357900        9.5571168999      -33.8533551804  TIP3      2366            0.0000000000
     18257      2462  TIP3      H1             -1.6496597775        9.6367856318      -33.7264849685  TIP3      2366            0.0000000000
     18258      2462  TIP3      H2             -0.3656371672       10.3711884546      -33.4091489855  TIP3      2366            0.0000000000
     18259      2463  TIP3      OH2             4.7006047218        4.8922090705      -27.9724296494  TIP3      2367            0.0000000000
     18260      2463  TIP3      H1              4.9300194585        4.5198610970      -27.1063207801  TIP3      2367            0.0000000000
     18261      2463  TIP3      H2              5.2212932431        4.3115401710      -28.5531018767  TIP3      2367            0.0000000000
     18262      2464  TIP3      OH2             6.9967904359        5.8338271436      -38.9570259688  TIP3      2368            0.0000000000
     18263      2464  TIP3      H1              7.2585687860        5.7452728960      -38.0240771082  TIP3      2368            0.0000000000
     18264      2464  TIP3      H2              6.0328624540        5.8013335044      -38.8372760517  TIP3      2368            0.0000000000
     18265      2465  TIP3      OH2             7.6396399856        9.3464524001      -25.1116544503  TIP3      2369            0.0000000000
     18266      2465  TIP3      H1              6.6874103725        9.3220334221      -25.3187821761  TIP3      2369            0.0000000000
     18267      2465  TIP3      H2              7.8752997989       10.1055454408      -25.6795378979  TIP3      2369            0.0000000000
     18268      2466  TIP3      OH2            11.6157585307       10.0369596225      -38.0568768746  TIP3      2370            0.0000000000
     18269      2466  TIP3      H1             11.9687385955       10.4874742895      -38.8431409164  TIP3      2370            0.0000000000
     18270      2466  TIP3      H2             11.1067610499       10.7906591662      -37.6544564111  TIP3      2370            0.0000000000
     18271      2467  TIP3      OH2            -4.8875160673       -3.2634926270      -26.0152964669  TIP3      2371            0.0000000000
     18272      2467  TIP3      H1             -5.8002543071       -2.9252985775      -26.1078467452  TIP3      2371            0.0000000000
     18273      2467  TIP3      H2             -5.0011392009       -4.0036253845      -25.3979507539  TIP3      2371            0.0000000000
     18274      2468  TIP3      OH2             7.6938086538        4.9862384313      -36.3688209729  TIP3      2372            0.0000000000
     18275      2468  TIP3      H1              7.3025915525        4.1089011900      -36.4637890828  TIP3      2372            0.0000000000
     18276      2468  TIP3      H2              8.6386382125        4.7634284425      -36.2127135062  TIP3      2372            0.0000000000
     18277      2469  TIP3      OH2            -4.8325902679        8.7002784767      -27.4425394912  TIP3      2373            0.0000000000
     18278      2469  TIP3      H1             -4.1278459510        8.0606832418      -27.3120669492  TIP3      2373            0.0000000000
     18279      2469  TIP3      H2             -4.4969560427        9.4600735782      -26.9317758787  TIP3      2373            0.0000000000
     18280      2470  TIP3      OH2            -0.4822143008        6.4624926100      -37.6633234313  TIP3      2374            0.0000000000
     18281      2470  TIP3      H1              0.2769393782        6.0838001209      -37.2045793463  TIP3      2374            0.0000000000
     18282      2470  TIP3      H2             -0.4450506738        7.3783191374      -37.2911236787  TIP3      2374            0.0000000000
     18283      2471  TIP3      OH2            -3.8957078106        3.9075482461      -37.0647940319  TIP3      2375            0.0000000000
     18284      2471  TIP3      H1             -4.6164069570        4.2018324029      -36.4699912732  TIP3      2375            0.0000000000
     18285      2471  TIP3      H2             -3.5690266136        4.7728484488      -37.4031467498  TIP3      2375            0.0000000000
     18286      2472  TIP3      OH2             4.3889716169       -3.3772756669      -26.7510124046  TIP3      2376            0.0000000000
     18287      2472  TIP3      H1              5.2045551685       -3.1226498338      -26.2726079156  TIP3      2376            0.0000000000
     18288      2472  TIP3      H2              4.0267514321       -4.0945565631      -26.2168226170  TIP3      2376            0.0000000000
     18289      2473  TIP3      OH2             4.8035186542       -3.7486260677      -35.2978147049  TIP3      2377            0.0000000000
     18290      2473  TIP3      H1              5.2389114281       -3.5686263292      -36.1469745217  TIP3      2377            0.0000000000
     18291      2473  TIP3      H2              5.4964681085       -3.4275569638      -34.6763890025  TIP3      2377            0.0000000000
     18292      2474  TIP3      OH2             2.1954290578        7.6346198967      -35.8178151707  TIP3      2378            0.0000000000
     18293      2474  TIP3      H1              1.3751421367        8.1625429632      -35.8961147475  TIP3      2378            0.0000000000
     18294      2474  TIP3      H2              2.6594893386        7.9092766260      -36.6186036661  TIP3      2378            0.0000000000
     18295      2475  TIP3      OH2             2.4392477868       -1.6163542388      -34.8582555864  TIP3      2379            0.0000000000
     18296      2475  TIP3      H1              2.9011850607       -1.0285543130      -34.2332591122  TIP3      2379            0.0000000000
     18297      2475  TIP3      H2              2.2273441061       -2.3620390048      -34.2609959471  TIP3      2379            0.0000000000
     18298      2476  TIP3      OH2             3.3289621080       -1.0045177139      -25.5973599213  TIP3      2380            0.0000000000
     18299      2476  TIP3      H1              2.7691739000       -1.5074425793      -24.9993088617  TIP3      2380            0.0000000000
     18300      2476  TIP3      H2              3.7384713048       -1.7602520565      -26.0681489817  TIP3      2380            0.0000000000
     18301      2477  TIP3      OH2             3.0257552302       -5.2717390365      -34.0575126988  TIP3      2381            0.0000000000
     18302      2477  TIP3      H1              2.5070643242       -4.6546124283      -33.5020997843  TIP3      2381            0.0000000000
     18303      2477  TIP3      H2              3.7879956108       -4.6968994443      -34.3305505292  TIP3      2381            0.0000000000
     18304      2478  TIP3      OH2            -0.2217626447        8.8825523613      -36.4661136095  TIP3      2382            0.0000000000
     18305      2478  TIP3      H1              0.0759974107        9.7215121251      -36.8986372548  TIP3      2382            0.0000000000
     18306      2478  TIP3      H2             -0.5522506312        9.2290837860      -35.6074560026  TIP3      2382            0.0000000000
     18307      2479  TIP3      OH2            -1.6618701626       -4.0657729302      -36.9379168616  TIP3      2383            0.0000000000
     18308      2479  TIP3      H1             -1.5659219932       -3.2900652794      -36.3542786796  TIP3      2383            0.0000000000
     18309      2479  TIP3      H2             -0.8505687300       -4.5604760943      -36.7309668850  TIP3      2383            0.0000000000
     18310      2480  TIP3      OH2             9.2062607757       -3.3349926757      -24.7355839117  TIP3      2384            0.0000000000
     18311      2480  TIP3      H1              8.3792451572       -2.8969539050      -24.4654747373  TIP3      2384            0.0000000000
     18312      2480  TIP3      H2              8.8540085313       -3.8795079733      -25.4648793443  TIP3      2384            0.0000000000
     18313      2481  TIP3      OH2             7.8910451590        0.4826870997      -30.5033727988  TIP3      2385            0.0000000000
     18314      2481  TIP3      H1              7.0674376130       -0.0296114445      -30.4006982275  TIP3      2385            0.0000000000
     18315      2481  TIP3      H2              8.5460804590       -0.1646369352      -30.1607391738  TIP3      2385            0.0000000000
     18316      2482  TIP3      OH2            -3.2097397597        6.4057762916      -38.1158328344  TIP3      2386            0.0000000000
     18317      2482  TIP3      H1             -3.0466445885        7.1573895337      -37.5318510158  TIP3      2386            0.0000000000
     18318      2482  TIP3      H2             -2.2801296325        6.2469526405      -38.3887302050  TIP3      2386            0.0000000000
     18319      2483  TIP3      OH2            -4.5926278140       -0.8001886722      -38.3148790745  TIP3      2387            0.0000000000
     18320      2483  TIP3      H1             -3.6757618089       -0.4619707573      -38.2673463000  TIP3      2387            0.0000000000
     18321      2483  TIP3      H2             -5.1161857909       -0.0020977476      -38.4398108298  TIP3      2387            0.0000000000
     18322      2484  TIP3      OH2             8.3940637354       10.1103696292      -29.0809703835  TIP3      2388            0.0000000000
     18323      2484  TIP3      H1              8.4678901717       10.7140645382      -29.8556676242  TIP3      2388            0.0000000000
     18324      2484  TIP3      H2              9.3231407695        9.8578261402      -28.9861443600  TIP3      2388            0.0000000000
     18325      2485  TIP3      OH2            -4.2225842118       -6.1135891028      -30.0103036429  TIP3      2389            0.0000000000
     18326      2485  TIP3      H1             -4.2133094828       -6.2732483266      -30.9712923082  TIP3      2389            0.0000000000
     18327      2485  TIP3      H2             -4.3174099161       -7.0401578973      -29.6936407434  TIP3      2389            0.0000000000
     18328      2486  TIP3      OH2            -5.7259215831        7.3442713711      -34.6456775424  TIP3      2390            0.0000000000
     18329      2486  TIP3      H1             -6.3747943604        7.9358141804      -34.2399835539  TIP3      2390            0.0000000000
     18330      2486  TIP3      H2             -5.2525325574        8.0205760925      -35.1739256800  TIP3      2390            0.0000000000
     18331      2487  TIP3      OH2            -5.9329358815       10.5395128990      -23.1238276212  TIP3      2391            0.0000000000
     18332      2487  TIP3      H1             -6.0425732200       10.3039962758      -22.1880762571  TIP3      2391            0.0000000000
     18333      2487  TIP3      H2             -6.4560441226        9.8265483622      -23.5306383373  TIP3      2391            0.0000000000
     18334      2488  TIP3      OH2             2.3569832433        8.2613248396      -38.8617709984  TIP3      2392            0.0000000000
     18335      2488  TIP3      H1              1.6830146431        7.7339364062      -39.3086769925  TIP3      2392            0.0000000000
     18336      2488  TIP3      H2              2.7744168018        8.6724704578      -39.6540860956  TIP3      2392            0.0000000000
     18337      2489  TIP3      OH2             8.1764862442        9.4430855380      -39.0754913560  TIP3      2393            0.0000000000
     18338      2489  TIP3      H1              8.6727057267        8.6435378965      -38.8623307075  TIP3      2393            0.0000000000
     18339      2489  TIP3      H2              7.8069806713        9.1843809895      -39.9502842707  TIP3      2393            0.0000000000
     18340      2490  TIP3      OH2            -5.0496848830        4.7081090355      -22.0353877288  TIP3      2394            0.0000000000
     18341      2490  TIP3      H1             -5.0106370280        3.7374950222      -21.9067730984  TIP3      2394            0.0000000000
     18342      2490  TIP3      H2             -5.9924330202        4.8926257175      -21.9196772606  TIP3      2394            0.0000000000
     18343      2491  TIP3      OH2            -1.0886513934        3.4974857706      -39.5502419980  TIP3      2395            0.0000000000
     18344      2491  TIP3      H1             -0.9324079970        2.9211564520      -38.7858307119  TIP3      2395            0.0000000000
     18345      2491  TIP3      H2             -0.5688613079        4.2699819832      -39.2889407483  TIP3      2395            0.0000000000
     18346      2492  TIP3      OH2             6.5319612434        4.1093597488      -24.8309293123  TIP3      2396            0.0000000000
     18347      2492  TIP3      H1              7.4295032454        4.4945153911      -24.9684545964  TIP3      2396            0.0000000000
     18348      2492  TIP3      H2              6.0128574043        4.9434037243      -24.7771294793  TIP3      2396            0.0000000000
     18349      2493  TIP3      OH2            -4.9913633967        1.9783252775      -22.1235560422  TIP3      2397            0.0000000000
     18350      2493  TIP3      H1             -4.9668546144        1.3579546700      -22.8615408803  TIP3      2397            0.0000000000
     18351      2493  TIP3      H2             -5.6285629774        1.5588498123      -21.5379301475  TIP3      2397            0.0000000000
     18352      2494  TIP3      OH2             0.0710892521        2.9110511406      -37.2401478041  TIP3      2398            0.0000000000
     18353      2494  TIP3      H1             -0.7305848008        2.7223695535      -36.7187672776  TIP3      2398            0.0000000000
     18354      2494  TIP3      H2              0.2565074371        2.0427713655      -37.6618425411  TIP3      2398            0.0000000000
     18355      2495  TIP3      OH2             0.6335569447        0.4750622288      -38.3674244098  TIP3      2399            0.0000000000
     18356      2495  TIP3      H1              0.5269233687        0.6606426207      -39.3422202964  TIP3      2399            0.0000000000
     18357      2495  TIP3      H2              1.6037019313        0.3513678057      -38.3493585798  TIP3      2399            0.0000000000
     18358      2496  TIP3      OH2             9.5831265088        3.4455402521      -38.6864392711  TIP3      2400            0.0000000000
     18359      2496  TIP3      H1             10.4126131451        3.3249703716      -39.1724826011  TIP3      2400            0.0000000000
     18360      2496  TIP3      H2              9.8494807582        4.0761469028      -37.9822623530  TIP3      2400            0.0000000000
     18361      2497  TIP3      OH2            -0.7932197265       -1.6150902422      -24.5941952851  TIP3      2401            0.0000000000
     18362      2497  TIP3      H1             -0.6896025751       -2.5794413478      -24.7153337332  TIP3      2401            0.0000000000
     18363      2497  TIP3      H2             -0.1130195893       -1.2573512679      -25.1617417407  TIP3      2401            0.0000000000
     18364      2498  TIP3      OH2            -0.2400657593       -3.9458545896      -26.0621005474  TIP3      2402            0.0000000000
     18365      2498  TIP3      H1              0.2763048528       -3.3102188053      -26.6132277160  TIP3      2402            0.0000000000
     18366      2498  TIP3      H2             -1.0712156526       -3.9937754039      -26.5789151493  TIP3      2402            0.0000000000
     18367      2499  TIP3      OH2             1.4816511724        2.3667115091      -25.9469312223  TIP3      2403            0.0000000000
     18368      2499  TIP3      H1              2.1244123974        2.5217217894      -26.6469724820  TIP3      2403            0.0000000000
     18369      2499  TIP3      H2              0.6474804112        2.6189714145      -26.3965788303  TIP3      2403            0.0000000000
     18370      2500  TIP3      OH2             7.2714377755        2.2042287697      -22.9584143514  TIP3      2404            0.0000000000
     18371      2500  TIP3      H1              6.8471891991        2.8071936583      -23.5995521440  TIP3      2404            0.0000000000
     18372      2500  TIP3      H2              8.1852011748        2.1812789437      -23.3080288323  TIP3      2404            0.0000000000
     18373      2501  TIP3      OH2             0.7937991921       -6.1532904454      -27.1486206967  TIP3      2405            0.0000000000
     18374      2501  TIP3      H1              0.3824307500       -5.3477599160      -26.7561897780  TIP3      2405            0.0000000000
     18375      2501  TIP3      H2              0.1045649940       -6.8094738217      -26.9916465810  TIP3      2405            0.0000000000
     18376      2502  TIP3      OH2             4.1540093707       -3.2340980438      -23.1243079745  TIP3      2406            0.0000000000
     18377      2502  TIP3      H1              3.3795798194       -3.8149585153      -22.9912146364  TIP3      2406            0.0000000000
     18378      2502  TIP3      H2              4.8136129978       -3.7968959454      -22.6917215921  TIP3      2406            0.0000000000
     18379      2503  TIP3      OH2             0.3851047058       11.2654074950      -37.5276902354  TIP3      2407            0.0000000000
     18380      2503  TIP3      H1              1.3426332983       11.3640331899      -37.7019512401  TIP3      2407            0.0000000000
     18381      2503  TIP3      H2              0.0578757346       11.7031033970      -38.3241489286  TIP3      2407            0.0000000000
     18382      2504  TIP3      OH2            -5.9806274224        6.3447618763      -38.6057419379  TIP3      2408            0.0000000000
     18383      2504  TIP3      H1             -5.0648738475        6.6645137799      -38.4692090105  TIP3      2408            0.0000000000
     18384      2504  TIP3      H2             -5.7929153753        5.7517878697      -39.3680697145  TIP3      2408            0.0000000000
     18385      2505  TIP3      OH2            -6.9687711370       11.1956730193      -33.8843672894  TIP3      2409            0.0000000000
     18386      2505  TIP3      H1             -7.7148431417       10.6195876685      -34.1713824590  TIP3      2409            0.0000000000
     18387      2505  TIP3      H2             -6.6398039288       10.6549649764      -33.1250691531  TIP3      2409            0.0000000000
     18388      2506  TIP3      OH2            -6.3159222313        9.5436612462      -31.9419081442  TIP3      2410            0.0000000000
     18389      2506  TIP3      H1             -6.9351234828        8.8780343601      -31.6152103724  TIP3      2410            0.0000000000
     18390      2506  TIP3      H2             -5.9457044005        9.8965019448      -31.1087856580  TIP3      2410            0.0000000000
     18391      2507  TIP3      OH2            11.3381844022       10.8718142650      -29.2218894238  TIP3      2411            0.0000000000
     18392      2507  TIP3      H1             11.8316396958       10.9605425345      -28.3849941306  TIP3      2411            0.0000000000
     18393      2507  TIP3      H2             10.9084500933       11.7362254474      -29.2987964949  TIP3      2411            0.0000000000
     18394      2508  TIP3      OH2            11.2946207846        9.8084985360      -26.0006769099  TIP3      2412            0.0000000000
     18395      2508  TIP3      H1             10.8737274925        9.1596767067      -26.5963569408  TIP3      2412            0.0000000000
     18396      2508  TIP3      H2             11.5031712828        9.1820569145      -25.2740243001  TIP3      2412            0.0000000000
     18397      2509  TIP3      OH2             8.4623368242        6.0589125091      -21.5678532544  TIP3      2413            0.0000000000
     18398      2509  TIP3      H1              7.5588662588        6.0752850555      -21.1758272302  TIP3      2413            0.0000000000
     18399      2509  TIP3      H2              8.6437412515        5.1190492029      -21.4446730989  TIP3      2413            0.0000000000
     18400      2510  TIP3      OH2            10.3128147753        4.2221733819      -36.1519526648  TIP3      2414            0.0000000000
     18401      2510  TIP3      H1             11.1211634256        4.7242182727      -35.8904145373  TIP3      2414            0.0000000000
     18402      2510  TIP3      H2             10.3042836033        3.5404329730      -35.4537646979  TIP3      2414            0.0000000000
     18403      2511  TIP3      OH2            10.8975068865        1.8423892677      -34.0774384200  TIP3      2415            0.0000000000
     18404      2511  TIP3      H1             10.1449738091        1.3332668981      -33.6761996079  TIP3      2415            0.0000000000
     18405      2511  TIP3      H2             11.4068995612        2.0704260471      -33.2790982730  TIP3      2415            0.0000000000
     18406      2512  TIP3      OH2            10.6339159988        4.9123565152      -29.2538660715  TIP3      2416            0.0000000000
     18407      2512  TIP3      H1             11.2818476168        4.2698095600      -29.5960563770  TIP3      2416            0.0000000000
     18408      2512  TIP3      H2             10.8969961663        5.7521972037      -29.6986030382  TIP3      2416            0.0000000000
     18409      2513  TIP3      OH2             9.5476169636        7.6264819523      -27.0572807804  TIP3      2417            0.0000000000
     18410      2513  TIP3      H1              8.9430187661        8.2085100012      -26.5722306933  TIP3      2417            0.0000000000
     18411      2513  TIP3      H2              9.0389300473        7.4750816244      -27.8848624029  TIP3      2417            0.0000000000
     18412      2514  TIP3      OH2            11.5244635248        1.7775987922      -37.3978216749  TIP3      2418            0.0000000000
     18413      2514  TIP3      H1             10.5917065617        2.0488304682      -37.5438131753  TIP3      2418            0.0000000000
     18414      2514  TIP3      H2             11.8484317605        2.4456488406      -36.7743446923  TIP3      2418            0.0000000000
     18415      2515  TIP3      OH2             8.6305056056       -0.6433250301      -38.4775104595  TIP3      2419            0.0000000000
     18416      2515  TIP3      H1              9.0175331916       -0.3526584079      -39.3364776690  TIP3      2419            0.0000000000
     18417      2515  TIP3      H2              8.5355650280       -1.6025107734      -38.6272227607  TIP3      2419            0.0000000000
     18418      2516  TIP3      OH2             9.0341071532        0.4355125024      -32.8467568809  TIP3      2420            0.0000000000
     18419      2516  TIP3      H1              8.8189394740       -0.5002122505      -32.9679694404  TIP3      2420            0.0000000000
     18420      2516  TIP3      H2              8.7081760801        0.5752886549      -31.9302652689  TIP3      2420            0.0000000000
     18421      2517  TIP3      OH2            -6.1750698286        2.8605089077      -29.2376838924  TIP3      2421            0.0000000000
     18422      2517  TIP3      H1             -5.9743934602        2.5181455339      -30.1452057760  TIP3      2421            0.0000000000
     18423      2517  TIP3      H2             -5.3509817022        2.5855023594      -28.7745785484  TIP3      2421            0.0000000000
     18424      2518  TIP3      OH2             9.8730900545        2.6242876034      -23.7590512579  TIP3      2422            0.0000000000
     18425      2518  TIP3      H1             10.4237301036        2.9344374506      -22.9940815608  TIP3      2422            0.0000000000
     18426      2518  TIP3      H2              9.9711025650        3.3740690567      -24.3695586778  TIP3      2422            0.0000000000
     18427      2519  TIP3      OH2            10.6624331204        0.3376671078      -22.6542768776  TIP3      2423            0.0000000000
     18428      2519  TIP3      H1             10.2711669812        1.1281632702      -23.0799859252  TIP3      2423            0.0000000000
     18429      2519  TIP3      H2             11.5955075688        0.6031766385      -22.5448077325  TIP3      2423            0.0000000000
     18430      2520  TIP3      OH2             9.1193561689       -3.5300167105      -38.8441783263  TIP3      2424            0.0000000000
     18431      2520  TIP3      H1              9.9718225228       -4.0226567504      -38.7161641884  TIP3      2424            0.0000000000
     18432      2520  TIP3      H2              8.5223145664       -3.9644094601      -38.2140652079  TIP3      2424            0.0000000000
     18433      2521  TIP3      OH2             8.4275108075       -1.3690381358      -35.0892858738  TIP3      2425            0.0000000000
     18434      2521  TIP3      H1              8.7349405292       -2.2957466845      -34.9451132157  TIP3      2425            0.0000000000
     18435      2521  TIP3      H2              9.2914736508       -0.9665981964      -35.2971980238  TIP3      2425            0.0000000000
     18436      2522  TIP3      OH2             9.4057855777       -1.2930372954      -29.1779072445  TIP3      2426            0.0000000000
     18437      2522  TIP3      H1             10.3799733898       -1.2050446683      -29.3055320679  TIP3      2426            0.0000000000
     18438      2522  TIP3      H2              9.3571675698       -1.0467129066      -28.2402396332  TIP3      2426            0.0000000000
     18439      2523  TIP3      OH2             9.5946037574       -0.3713769166      -26.6021222912  TIP3      2427            0.0000000000
     18440      2523  TIP3      H1              8.8463605961        0.0640031967      -26.1477851481  TIP3      2427            0.0000000000
     18441      2523  TIP3      H2             10.2146654045        0.3716990828      -26.7883170400  TIP3      2427            0.0000000000
     18442      2524  TIP3      OH2            -6.5245245125       -2.6342877180      -23.6178679730  TIP3      2428            0.0000000000
     18443      2524  TIP3      H1             -5.7045330275       -2.4161442391      -23.1439151763  TIP3      2428            0.0000000000
     18444      2524  TIP3      H2             -6.7805733014       -3.4889549006      -23.2190738733  TIP3      2428            0.0000000000
     18445      2525  TIP3      OH2             9.4224178169       -3.7928349072      -34.7367707684  TIP3      2429            0.0000000000
     18446      2525  TIP3      H1              9.6421882309       -4.3117740993      -33.9379394872  TIP3      2429            0.0000000000
     18447      2525  TIP3      H2              8.7843429828       -4.4209193030      -35.1459848995  TIP3      2429            0.0000000000
     18448      2526  TIP3      OH2            -5.2210163040       -3.7587258011      -29.3669942655  TIP3      2430            0.0000000000
     18449      2526  TIP3      H1             -4.9073264922       -4.6846098501      -29.4761114295  TIP3      2430            0.0000000000
     18450      2526  TIP3      H2             -4.4544032590       -3.2182685988      -29.6271144396  TIP3      2430            0.0000000000
     18451      2527  TIP3      OH2            -6.8278638410       -0.7537570049      -29.3167513263  TIP3      2431            0.0000000000
     18452      2527  TIP3      H1             -6.2421923881       -0.7115266677      -30.1028353082  TIP3      2431            0.0000000000
     18453      2527  TIP3      H2             -6.3128557270       -0.2619431457      -28.6668447198  TIP3      2431            0.0000000000
     18454      2528  TIP3      OH2            11.3946989828       -4.8654137010      -38.3193815698  TIP3      2432            0.0000000000
     18455      2528  TIP3      H1             11.8497277566       -5.2698069760      -39.0866338903  TIP3      2432            0.0000000000
     18456      2528  TIP3      H2             12.0693431310       -4.2487933029      -37.9597275246  TIP3      2432            0.0000000000
     18457      2529  TIP3      OH2            -6.5089809265       -4.6017236522      -35.1359513330  TIP3      2433            0.0000000000
     18458      2529  TIP3      H1             -7.3269030933       -4.9328353404      -35.5085180863  TIP3      2433            0.0000000000
     18459      2529  TIP3      H2             -6.1681591990       -4.0719579136      -35.8862935659  TIP3      2433            0.0000000000
     18460      2530  TIP3      OH2             8.1114723376       10.6259210384      -33.1852406338  TIP3      2434            0.0000000000
     18461      2530  TIP3      H1              8.8441464309       10.4569041486      -33.8142878508  TIP3      2434            0.0000000000
     18462      2530  TIP3      H2              8.5630797128       11.1515480228      -32.4964342923  TIP3      2434            0.0000000000
     18463      2531  TIP3      OH2            -6.3921158182       -6.1072529510      -27.0007027184  TIP3      2435            0.0000000000
     18464      2531  TIP3      H1             -7.1728922753       -6.2622877458      -26.4294506852  TIP3      2435            0.0000000000
     18465      2531  TIP3      H2             -6.5893027948       -5.2638935087      -27.4292085378  TIP3      2435            0.0000000000
     18466      2532  TIP3      OH2            -1.8171050598        8.7408129622      -26.7693940293  TIP3      2436            0.0000000000
     18467      2532  TIP3      H1             -1.7453488181        9.7208253046      -26.7668666723  TIP3      2436            0.0000000000
     18468      2532  TIP3      H2             -0.8701676269        8.5246096652      -26.7474588262  TIP3      2436            0.0000000000
     18469      2533  TIP3      OH2             2.8854875143        9.7077921898      -23.4111180171  TIP3      2437            0.0000000000
     18470      2533  TIP3      H1              2.8021426366        9.7088015217      -22.4515278900  TIP3      2437            0.0000000000
     18471      2533  TIP3      H2              3.7602568575       10.1228230468      -23.5196866743  TIP3      2437            0.0000000000
     18472      2534  TIP3      OH2             5.4832659201       11.2080300983      -23.6994193504  TIP3      2438            0.0000000000
     18473      2534  TIP3      H1              5.2924228430       11.0460224474      -24.6504307194  TIP3      2438            0.0000000000
     18474      2534  TIP3      H2              5.2172262207       12.1442648256      -23.5905368603  TIP3      2438            0.0000000000
     18475      2535  TIP3      OH2             9.7583741978       -6.7473108480      -25.1779649762  TIP3      2439            0.0000000000
     18476      2535  TIP3      H1              8.9522616598       -6.7972429290      -25.7171066758  TIP3      2439            0.0000000000
     18477      2535  TIP3      H2             10.2787586468       -7.4995475566      -25.5346888618  TIP3      2439            0.0000000000
     18478      2536  TIP3      OH2            -4.4901215467       11.6304339611      -26.6220476159  TIP3      2440            0.0000000000
     18479      2536  TIP3      H1             -5.1094416739       12.2741379678      -27.0280136126  TIP3      2440            0.0000000000
     18480      2536  TIP3      H2             -4.4687783165       12.0093663455      -25.7270835291  TIP3      2440            0.0000000000
     18481      2537  TIP3      OH2            -1.9433069826       11.3266780949      -27.6049700009  TIP3      2441            0.0000000000
     18482      2537  TIP3      H1             -2.8784311465       11.5104021217      -27.3412914730  TIP3      2441            0.0000000000
     18483      2537  TIP3      H2             -1.8314555798       11.9414367053      -28.3682306910  TIP3      2441            0.0000000000
     18484      2538  TIP3      OH2             3.0750121865       10.7022773163      -27.9348778384  TIP3      2442            0.0000000000
     18485      2538  TIP3      H1              2.5898805623       11.1389321555      -28.6593839686  TIP3      2442            0.0000000000
     18486      2538  TIP3      H2              3.1223494991       11.4174078003      -27.2604174355  TIP3      2442            0.0000000000
     18487      2539  TIP3      OH2             5.3260900090       10.0764874476      -26.4795291680  TIP3      2443            0.0000000000
     18488      2539  TIP3      H1              4.6017016289       10.1874279938      -27.1312473695  TIP3      2443            0.0000000000
     18489      2539  TIP3      H2              6.0529357390       10.4858696463      -26.9848587311  TIP3      2443            0.0000000000
     18490      2540  TIP3      OH2             7.6131400336       11.5463944435      -26.9536587595  TIP3      2444            0.0000000000
     18491      2540  TIP3      H1              7.6084534088       12.5077738665      -27.1580404646  TIP3      2444            0.0000000000
     18492      2540  TIP3      H2              7.8716741422       11.1903728121      -27.8291521309  TIP3      2444            0.0000000000
     18493      2541  TIP3      OH2            -4.6635959261       10.4093728247      -29.6003715338  TIP3      2445            0.0000000000
     18494      2541  TIP3      H1             -4.9729300116        9.9907522652      -28.7717901986  TIP3      2445            0.0000000000
     18495      2541  TIP3      H2             -3.7400666041       10.0865923145      -29.6685382590  TIP3      2445            0.0000000000
     18496      2542  TIP3      OH2            -2.1826583029        9.6184765049      -30.8322887457  TIP3      2446            0.0000000000
     18497      2542  TIP3      H1             -2.4262764330        8.6785106423      -30.6986780442  TIP3      2446            0.0000000000
     18498      2542  TIP3      H2             -1.3767267323        9.6654840650      -30.2764781348  TIP3      2446            0.0000000000
     18499      2543  TIP3      OH2             0.1506051911        9.1797126633      -29.5272495217  TIP3      2447            0.0000000000
     18500      2543  TIP3      H1              0.1119317514        8.2071129203      -29.4287701810  TIP3      2447            0.0000000000
     18501      2543  TIP3      H2              0.1693708861        9.5419764499      -28.6221505041  TIP3      2447            0.0000000000
     18502      2544  TIP3      OH2             2.8701970016       -5.0176616784      -30.4788185008  TIP3      2448            0.0000000000
     18503      2544  TIP3      H1              2.1066597873       -5.5932972093      -30.2073483367  TIP3      2448            0.0000000000
     18504      2544  TIP3      H2              3.4745875963       -5.6828673564      -30.8359891125  TIP3      2448            0.0000000000
     18505      2545  TIP3      OH2             8.7286110440       -6.7873754550      -31.0919891927  TIP3      2449            0.0000000000
     18506      2545  TIP3      H1              9.4010860897       -6.1995323984      -31.5152997292  TIP3      2449            0.0000000000
     18507      2545  TIP3      H2              7.8968698203       -6.3963473934      -31.4387345153  TIP3      2449            0.0000000000
     18508      2546  TIP3      OH2            10.2891616670       -5.4298872014      -32.7193471440  TIP3      2450            0.0000000000
     18509      2546  TIP3      H1             10.7495707425       -6.1870281641      -33.1597796684  TIP3      2450            0.0000000000
     18510      2546  TIP3      H2             11.0482858258       -4.8017741444      -32.6347483464  TIP3      2450            0.0000000000
     18511      2547  TIP3      OH2            -4.1945635633       -6.7020125365      -32.9149457384  TIP3      2451            0.0000000000
     18512      2547  TIP3      H1             -5.0284909660       -6.7477914462      -33.4273165867  TIP3      2451            0.0000000000
     18513      2547  TIP3      H2             -3.8981239094       -7.6357939515      -32.9622960679  TIP3      2451            0.0000000000
     18514      2548  TIP3      OH2            -5.1461821616       -6.6037295216      -37.2578138780  TIP3      2452            0.0000000000
     18515      2548  TIP3      H1             -4.8523169977       -5.9776672907      -37.9639016854  TIP3      2452            0.0000000000
     18516      2548  TIP3      H2             -5.5566773713       -5.9895524307      -36.6260338278  TIP3      2452            0.0000000000
     18517      2549  TIP3      OH2             0.1438291328       -6.7587959610      -33.0777811740  TIP3      2453            0.0000000000
     18518      2549  TIP3      H1              0.9754704069       -6.8179508416      -33.5762293712  TIP3      2453            0.0000000000
     18519      2549  TIP3      H2              0.4594623505       -6.7210294437      -32.1581280782  TIP3      2453            0.0000000000
     18520      2550  TIP3      OH2             6.0483845902       -6.1236104528      -32.2059303429  TIP3      2454            0.0000000000
     18521      2550  TIP3      H1              5.7674645946       -6.1724555288      -33.1293952831  TIP3      2454            0.0000000000
     18522      2550  TIP3      H2              5.6244881502       -6.9304613337      -31.8393972702  TIP3      2454            0.0000000000
     18523      2551  TIP3      OH2             7.6205835528       -5.7745531282      -35.5918549647  TIP3      2455            0.0000000000
     18524      2551  TIP3      H1              6.7781478723       -5.9150761795      -36.0329220581  TIP3      2455            0.0000000000
     18525      2551  TIP3      H2              7.6603528234       -6.5790169628      -35.0419873382  TIP3      2455            0.0000000000
     18526      2552  TIP3      OH2            -5.2908332413        9.6476284446      -36.0076103593  TIP3      2456            0.0000000000
     18527      2552  TIP3      H1             -6.0924159041        9.5165853075      -36.5567874157  TIP3      2456            0.0000000000
     18528      2552  TIP3      H2             -5.0916478041       10.5759719027      -36.2469667343  TIP3      2456            0.0000000000
     18529      2553  TIP3      OH2            -3.6220300819       -4.9402738479      -38.7862591116  TIP3      2457            0.0000000000
     18530      2553  TIP3      H1             -2.8646431264       -5.4159806376      -39.1446373981  TIP3      2457            0.0000000000
     18531      2553  TIP3      H2             -3.2046296120       -4.4584595102      -38.0519454442  TIP3      2457            0.0000000000
     18532      2554  TIP3      OH2             1.7105369933       -4.2599205145      -36.3500723243  TIP3      2458            0.0000000000
     18533      2554  TIP3      H1              2.1579063355       -4.7983533363      -35.6682933577  TIP3      2458            0.0000000000
     18534      2554  TIP3      H2              1.7498272100       -3.3741698493      -35.9618546891  TIP3      2458            0.0000000000
     18535      2555  TIP3      OH2             3.0309482954       10.8685503709      -38.1364495602  TIP3      2459            0.0000000000
     18536      2555  TIP3      H1              3.9765136382       10.7840588198      -38.3943658541  TIP3      2459            0.0000000000
     18537      2555  TIP3      H2              2.7447841920        9.9534031885      -38.3071442442  TIP3      2459            0.0000000000
     18538      2556  TIP3      OH2             9.7325143693       10.0910503530      -35.2074867464  TIP3      2460            0.0000000000
     18539      2556  TIP3      H1              9.8004632641        9.2410497231      -35.6865256297  TIP3      2460            0.0000000000
     18540      2556  TIP3      H2              9.8254597503       10.7516406396      -35.9213182533  TIP3      2460            0.0000000000
     18541      2557  TIP3      OH2            -4.3271381242       -6.3302496286      -24.0074311011  TIP3      2461            0.0000000000
     18542      2557  TIP3      H1             -4.9456577969       -7.0205112168      -23.6893425132  TIP3      2461            0.0000000000
     18543      2557  TIP3      H2             -3.6919876828       -6.3653664025      -23.2883553345  TIP3      2461            0.0000000000
     18544      2558  TIP3      OH2            -3.4729913218        9.7619532121      -38.5506148091  TIP3      2462            0.0000000000
     18545      2558  TIP3      H1             -3.8746552242       10.3472326532      -37.8795187944  TIP3      2462            0.0000000000
     18546      2558  TIP3      H2             -2.5228905601        9.9494037743      -38.4889371733  TIP3      2462            0.0000000000
     18547      2559  TIP3      OH2            24.0393604356        3.1526647089      -33.5099150415  TIP3      2463            0.0000000000
     18548      2559  TIP3      H1             23.9215872439        4.1189994893      -33.3571013045  TIP3      2463            0.0000000000
     18549      2559  TIP3      H2             23.1395105546        2.9268352930      -33.7703939036  TIP3      2463            0.0000000000
     18550      2560  TIP3      OH2            22.2484127936        1.8080833880      -29.7453993777  TIP3      2464            0.0000000000
     18551      2560  TIP3      H1             22.4095738992        1.4048854508      -28.8558600007  TIP3      2464            0.0000000000
     18552      2560  TIP3      H2             21.7936251259        1.0866755358      -30.2186976879  TIP3      2464            0.0000000000
     18553      2561  TIP3      OH2            14.9573577662        1.8963038140      -28.0150560801  TIP3      2465            0.0000000000
     18554      2561  TIP3      H1             14.8231626011        1.0097607243      -27.6255142836  TIP3      2465            0.0000000000
     18555      2561  TIP3      H2             15.8848259634        1.8261232667      -28.3224422069  TIP3      2465            0.0000000000
     18556      2562  TIP3      OH2            15.8040672998        6.9478823660      -30.1066657343  TIP3      2466            0.0000000000
     18557      2562  TIP3      H1             15.3020223692        6.1462725236      -30.3084355297  TIP3      2466            0.0000000000
     18558      2562  TIP3      H2             16.7166784151        6.5816964667      -30.1250866759  TIP3      2466            0.0000000000
     18559      2563  TIP3      OH2            12.4965542008       -0.6194869315      -34.2710990073  TIP3      2467            0.0000000000
     18560      2563  TIP3      H1             12.1558566412        0.2467529736      -33.9871430418  TIP3      2467            0.0000000000
     18561      2563  TIP3      H2             12.1981271829       -0.6501176650      -35.1933792479  TIP3      2467            0.0000000000
     18562      2564  TIP3      OH2            12.9648249714        1.7450564087      -31.8315198786  TIP3      2468            0.0000000000
     18563      2564  TIP3      H1             13.4465000222        0.8930675097      -31.6608466965  TIP3      2468            0.0000000000
     18564      2564  TIP3      H2             13.6457991457        2.2803553265      -32.2669152060  TIP3      2468            0.0000000000
     18565      2565  TIP3      OH2            23.5235058449        9.8257953571      -30.9754965511  TIP3      2469            0.0000000000
     18566      2565  TIP3      H1             23.9950804859        9.2709543077      -31.6255301300  TIP3      2469            0.0000000000
     18567      2565  TIP3      H2             23.4875366080        9.2473423773      -30.2008574428  TIP3      2469            0.0000000000
     18568      2566  TIP3      OH2            21.0881738645        4.2503802615      -28.8980925330  TIP3      2470            0.0000000000
     18569      2566  TIP3      H1             21.5007023835        3.4171764747      -29.2032178209  TIP3      2470            0.0000000000
     18570      2566  TIP3      H2             21.8736388225        4.8270030557      -28.8225798015  TIP3      2470            0.0000000000
     18571      2567  TIP3      OH2            23.6956914770       -1.1567444289      -28.9284469494  TIP3      2471            0.0000000000
     18572      2567  TIP3      H1             24.5458659468       -1.6123780609      -28.7377348572  TIP3      2471            0.0000000000
     18573      2567  TIP3      H2             23.9439777295       -0.6444426406      -29.7194446136  TIP3      2471            0.0000000000
     18574      2568  TIP3      OH2            17.4638421159       -3.1595962593      -31.9503175147  TIP3      2472            0.0000000000
     18575      2568  TIP3      H1             17.4524266917       -2.3421172962      -32.4822031375  TIP3      2472            0.0000000000
     18576      2568  TIP3      H2             16.9529685278       -3.7527324840      -32.5370634042  TIP3      2472            0.0000000000
     18577      2569  TIP3      OH2            24.5335196996       -2.5663957245      -33.1554040311  TIP3      2473            0.0000000000
     18578      2569  TIP3      H1             25.2699872665       -3.1579895085      -32.8508094579  TIP3      2473            0.0000000000
     18579      2569  TIP3      H2             25.1019329086       -1.8409752108      -33.4930261339  TIP3      2473            0.0000000000
     18580      2570  TIP3      OH2            14.2391659559       -0.4401132585      -31.0260741430  TIP3      2474            0.0000000000
     18581      2570  TIP3      H1             14.7035377175       -1.0346167102      -30.3975207570  TIP3      2474            0.0000000000
     18582      2570  TIP3      H2             14.5296575313       -0.8044056280      -31.8869293258  TIP3      2474            0.0000000000
     18583      2571  TIP3      OH2            18.7522824415        0.9937545236      -31.5385383640  TIP3      2475            0.0000000000
     18584      2571  TIP3      H1             19.5194467694        0.5248588030      -31.1776072101  TIP3      2475            0.0000000000
     18585      2571  TIP3      H2             18.3091479052        0.2780864463      -32.0381758255  TIP3      2475            0.0000000000
     18586      2572  TIP3      OH2            16.4644374478       -3.8282688327      -27.7226547524  TIP3      2476            0.0000000000
     18587      2572  TIP3      H1             16.1413372076       -3.4397438620      -28.5619750425  TIP3      2476            0.0000000000
     18588      2572  TIP3      H2             15.9196956802       -3.3032683662      -27.1076282890  TIP3      2476            0.0000000000
     18589      2573  TIP3      OH2            23.2215225446        5.6691914095      -34.0734483532  TIP3      2477            0.0000000000
     18590      2573  TIP3      H1             22.8106706985        5.6004014609      -34.9416728912  TIP3      2477            0.0000000000
     18591      2573  TIP3      H2             22.8416087294        6.5159376094      -33.7472094875  TIP3      2477            0.0000000000
     18592      2574  TIP3      OH2            18.5241575152        3.7518321515      -28.1379250218  TIP3      2478            0.0000000000
     18593      2574  TIP3      H1             17.9945583358        4.5330090133      -27.8701607079  TIP3      2478            0.0000000000
     18594      2574  TIP3      H2             19.3733046990        4.1433358586      -28.4421365699  TIP3      2478            0.0000000000
     18595      2575  TIP3      OH2            15.9030787036       -2.2645546483      -29.9477237463  TIP3      2479            0.0000000000
     18596      2575  TIP3      H1             16.4669800046       -1.5968723744      -29.4720427081  TIP3      2479            0.0000000000
     18597      2575  TIP3      H2             16.5258984899       -2.5650365989      -30.6453275323  TIP3      2479            0.0000000000
     18598      2576  TIP3      OH2            17.0781651658        5.6464199482      -26.9404168483  TIP3      2480            0.0000000000
     18599      2576  TIP3      H1             16.6191202638        6.1622097104      -27.6123920865  TIP3      2480            0.0000000000
     18600      2576  TIP3      H2             16.3572206080        5.3883414214      -26.3156644040  TIP3      2480            0.0000000000
     18601      2577  TIP3      OH2            12.8509799828        5.0060828523      -35.8596493085  TIP3      2481            0.0000000000
     18602      2577  TIP3      H1             12.8827161783        5.5561682084      -36.6634110100  TIP3      2481            0.0000000000
     18603      2577  TIP3      H2             13.0623050708        5.7119588730      -35.1991098603  TIP3      2481            0.0000000000
     18604      2578  TIP3      OH2            19.7508292788       -6.3926361865      -30.1319802724  TIP3      2482            0.0000000000
     18605      2578  TIP3      H1             19.3802549965       -7.0336316827      -30.7586956705  TIP3      2482            0.0000000000
     18606      2578  TIP3      H2             18.9105722441       -5.8984334048      -29.9205720320  TIP3      2482            0.0000000000
     18607      2579  TIP3      OH2            25.2162507852        9.0074412631      -32.9233190848  TIP3      2483            0.0000000000
     18608      2579  TIP3      H1             25.2384998675        8.0420626297      -33.0445073504  TIP3      2483            0.0000000000
     18609      2579  TIP3      H2             26.1096939458        9.1738785419      -32.5421802266  TIP3      2483            0.0000000000
     18610      2580  TIP3      OH2            22.0638262074        1.8624934686      -36.0789514318  TIP3      2484            0.0000000000
     18611      2580  TIP3      H1             21.2753496987        2.3684363319      -36.3164172863  TIP3      2484            0.0000000000
     18612      2580  TIP3      H2             22.7478693731        2.2706631961      -36.6330644335  TIP3      2484            0.0000000000
     18613      2581  TIP3      OH2            22.1779003920       -0.3735957872      -38.1861163697  TIP3      2485            0.0000000000
     18614      2581  TIP3      H1             22.7099640737        0.3293583742      -37.7920794922  TIP3      2485            0.0000000000
     18615      2581  TIP3      H2             22.7671989077       -0.6674723264      -38.8882167054  TIP3      2485            0.0000000000
     18616      2582  TIP3      OH2            25.9510942703        1.7032770922      -34.9299878059  TIP3      2486            0.0000000000
     18617      2582  TIP3      H1             25.2893473576        2.1728638103      -34.3544543358  TIP3      2486            0.0000000000
     18618      2582  TIP3      H2             26.5643044842        2.4390924127      -35.1216381671  TIP3      2486            0.0000000000
     18619      2583  TIP3      OH2            25.2848211517        0.3541990476      -25.7763286064  TIP3      2487            0.0000000000
     18620      2583  TIP3      H1             24.8948891992        0.9892807096      -25.1674936930  TIP3      2487            0.0000000000
     18621      2583  TIP3      H2             24.9237240124        0.6638063027      -26.6222895375  TIP3      2487            0.0000000000
     18622      2584  TIP3      OH2            17.3372616383        2.7334708527      -33.0989191004  TIP3      2488            0.0000000000
     18623      2584  TIP3      H1             17.2444086002        2.3234767089      -33.9800719116  TIP3      2488            0.0000000000
     18624      2584  TIP3      H2             17.9739313525        2.1398250932      -32.6404036556  TIP3      2488            0.0000000000
     18625      2585  TIP3      OH2            18.5175558189        6.3028855639      -30.4013520258  TIP3      2489            0.0000000000
     18626      2585  TIP3      H1             18.6269809526        6.2360266884      -31.3772167871  TIP3      2489            0.0000000000
     18627      2585  TIP3      H2             19.3300804114        5.8996987478      -30.0576615250  TIP3      2489            0.0000000000
     18628      2586  TIP3      OH2            17.3920527518        1.6669890748      -29.2573026296  TIP3      2490            0.0000000000
     18629      2586  TIP3      H1             17.9243563956        1.5722510034      -30.0803745414  TIP3      2490            0.0000000000
     18630      2586  TIP3      H2             17.9205241472        2.3548614560      -28.7877641704  TIP3      2490            0.0000000000
     18631      2587  TIP3      OH2            23.7943627713        7.4465471446      -28.3691764159  TIP3      2491            0.0000000000
     18632      2587  TIP3      H1             24.0486013607        7.8860882509      -27.5417588935  TIP3      2491            0.0000000000
     18633      2587  TIP3      H2             23.6778924188        6.5072833295      -28.1155317786  TIP3      2491            0.0000000000
     18634      2588  TIP3      OH2            18.9668891899        6.2878966592      -25.0497614354  TIP3      2492            0.0000000000
     18635      2588  TIP3      H1             18.3504479195        6.2858974542      -24.2865534727  TIP3      2492            0.0000000000
     18636      2588  TIP3      H2             18.3823248335        5.9431258357      -25.7600486695  TIP3      2492            0.0000000000
     18637      2589  TIP3      OH2            24.6131202604        1.6933687500      -37.4280687882  TIP3      2493            0.0000000000
     18638      2589  TIP3      H1             25.0285679053        1.7348998529      -36.5366804882  TIP3      2493            0.0000000000
     18639      2589  TIP3      H2             25.0151114193        2.4422807364      -37.8871183633  TIP3      2493            0.0000000000
     18640      2590  TIP3      OH2            15.5919127210        1.5457485858      -25.2107034022  TIP3      2494            0.0000000000
     18641      2590  TIP3      H1             15.8290230000        2.4771583046      -25.0771220078  TIP3      2494            0.0000000000
     18642      2590  TIP3      H2             14.6103930887        1.5944365996      -25.1481839426  TIP3      2494            0.0000000000
     18643      2591  TIP3      OH2            22.0095956142        8.0778968668      -33.4221777990  TIP3      2495            0.0000000000
     18644      2591  TIP3      H1             22.5162344527        8.8985870165      -33.4427649511  TIP3      2495            0.0000000000
     18645      2591  TIP3      H2             21.4497033304        8.1258005762      -34.2278923813  TIP3      2495            0.0000000000
     18646      2592  TIP3      OH2            16.9284690126        7.4692646542      -23.7068225673  TIP3      2496            0.0000000000
     18647      2592  TIP3      H1             17.3564974509        8.0500922947      -24.3463442985  TIP3      2496            0.0000000000
     18648      2592  TIP3      H2             15.9920319885        7.6697876497      -23.8364691484  TIP3      2496            0.0000000000
     18649      2593  TIP3      OH2            16.3776188537        1.7343353807      -35.5795202892  TIP3      2497            0.0000000000
     18650      2593  TIP3      H1             15.7291445670        2.4618227989      -35.5760071842  TIP3      2497            0.0000000000
     18651      2593  TIP3      H2             15.8026984468        0.9565679629      -35.5214703914  TIP3      2497            0.0000000000
     18652      2594  TIP3      OH2            12.4569173925        4.5369755188      -26.5454037987  TIP3      2498            0.0000000000
     18653      2594  TIP3      H1             12.0091619095        4.7238817955      -27.3861715624  TIP3      2498            0.0000000000
     18654      2594  TIP3      H2             13.0283302637        3.7915728664      -26.7968717164  TIP3      2498            0.0000000000
     18655      2595  TIP3      OH2            12.2108822063        7.0889774828      -29.7667439153  TIP3      2499            0.0000000000
     18656      2595  TIP3      H1             12.8512341096        6.5334502823      -29.3077134933  TIP3      2499            0.0000000000
     18657      2595  TIP3      H2             12.2877851797        7.8820766238      -29.2184038247  TIP3      2499            0.0000000000
     18658      2596  TIP3      OH2            21.4650624086        7.1096617038      -25.2194621939  TIP3      2500            0.0000000000
     18659      2596  TIP3      H1             21.3846203616        7.9091557534      -24.6763941288  TIP3      2500            0.0000000000
     18660      2596  TIP3      H2             20.5322903186        6.7739266977      -25.1976181670  TIP3      2500            0.0000000000
     18661      2597  TIP3      OH2            21.8566943605       10.9673495598      -35.4370986629  TIP3      2501            0.0000000000
     18662      2597  TIP3      H1             21.9687729880       11.3145723550      -36.3517206292  TIP3      2501            0.0000000000
     18663      2597  TIP3      H2             21.6238083418       11.7764198501      -34.9404288805  TIP3      2501            0.0000000000
     18664      2598  TIP3      OH2            15.6210468920        9.6421260488      -33.2374204971  TIP3      2502            0.0000000000
     18665      2598  TIP3      H1             15.8853998312        9.7202983706      -32.2932110001  TIP3      2502            0.0000000000
     18666      2598  TIP3      H2             14.7660965049        9.1891406384      -33.1599613640  TIP3      2502            0.0000000000
     18667      2599  TIP3      OH2            24.7254970438        9.7890328885      -38.0786343157  TIP3      2503            0.0000000000
     18668      2599  TIP3      H1             25.3513014368        9.0555288267      -38.1717254932  TIP3      2503            0.0000000000
     18669      2599  TIP3      H2             24.6125001716        9.8403134162      -37.1081266950  TIP3      2503            0.0000000000
     18670      2600  TIP3      OH2            24.3740076403       10.0071865706      -35.3191116792  TIP3      2504            0.0000000000
     18671      2600  TIP3      H1             23.4174197541       10.2446616992      -35.2776616085  TIP3      2504            0.0000000000
     18672      2600  TIP3      H2             24.5711245847        9.7869723801      -34.3798703993  TIP3      2504            0.0000000000
     18673      2601  TIP3      OH2            14.9479027178        5.3326313249      -25.1861168374  TIP3      2505            0.0000000000
     18674      2601  TIP3      H1             14.9197951576        5.6617487652      -24.2560170724  TIP3      2505            0.0000000000
     18675      2601  TIP3      H2             14.0183801253        5.4356728081      -25.4477168966  TIP3      2505            0.0000000000
     18676      2602  TIP3      OH2            17.3862732364       -5.3576655461      -29.7050822200  TIP3      2506            0.0000000000
     18677      2602  TIP3      H1             16.4565763384       -5.5391677661      -29.9613031810  TIP3      2506            0.0000000000
     18678      2602  TIP3      H2             17.2579634606       -4.9426485370      -28.8223467182  TIP3      2506            0.0000000000
     18679      2603  TIP3      OH2            22.0342499087       -6.0958290424      -26.4588896168  TIP3      2507            0.0000000000
     18680      2603  TIP3      H1             22.3186026650       -6.0221719429      -25.5346958048  TIP3      2507            0.0000000000
     18681      2603  TIP3      H2             21.0577491055       -6.1306658953      -26.3263850076  TIP3      2507            0.0000000000
     18682      2604  TIP3      OH2            25.1021192011       -2.4104637740      -25.6242244196  TIP3      2508            0.0000000000
     18683      2604  TIP3      H1             24.8280041076       -2.5533723199      -24.7018082680  TIP3      2508            0.0000000000
     18684      2604  TIP3      H2             25.3235792632       -1.4558568158      -25.5635705652  TIP3      2508            0.0000000000
     18685      2605  TIP3      OH2            22.0417824739       -3.6290306919      -38.4937787401  TIP3      2509            0.0000000000
     18686      2605  TIP3      H1             21.3330011308       -3.4242429696      -37.8426692913  TIP3      2509            0.0000000000
     18687      2605  TIP3      H2             21.6974302690       -4.4308358443      -38.9131303534  TIP3      2509            0.0000000000
     18688      2606  TIP3      OH2            17.3987409475       -0.8286410153      -28.3462250196  TIP3      2510            0.0000000000
     18689      2606  TIP3      H1             16.9744543223       -0.7485970050      -27.4661262357  TIP3      2510            0.0000000000
     18690      2606  TIP3      H2             17.3855318410        0.1107644394      -28.6370865025  TIP3      2510            0.0000000000
     18691      2607  TIP3      OH2            17.4437121783       -0.8528750115      -33.3093415365  TIP3      2511            0.0000000000
     18692      2607  TIP3      H1             16.5027073208       -1.0231312282      -33.5294632218  TIP3      2511            0.0000000000
     18693      2607  TIP3      H2             17.8841327848       -1.0142411534      -34.1774609979  TIP3      2511            0.0000000000
     18694      2608  TIP3      OH2            23.2387326650        0.2817420762      -34.3323563516  TIP3      2512            0.0000000000
     18695      2608  TIP3      H1             22.7903369671        0.9131029083      -34.9488093234  TIP3      2512            0.0000000000
     18696      2608  TIP3      H2             23.6999948391       -0.3151246357      -34.9376892965  TIP3      2512            0.0000000000
     18697      2609  TIP3      OH2            22.3989812200        0.4114895356      -23.4769754160  TIP3      2513            0.0000000000
     18698      2609  TIP3      H1             21.8103610462       -0.0510332025      -22.8495413331  TIP3      2513            0.0000000000
     18699      2609  TIP3      H2             23.2543266712        0.3430155926      -23.0459475404  TIP3      2513            0.0000000000
     18700      2610  TIP3      OH2            24.0114421715       -0.3423375733      -31.5237369166  TIP3      2514            0.0000000000
     18701      2610  TIP3      H1             24.1951911132        0.4085048568      -32.1201848962  TIP3      2514            0.0000000000
     18702      2610  TIP3      H2             24.0709573191       -1.1056011838      -32.1282183365  TIP3      2514            0.0000000000
     18703      2611  TIP3      OH2            14.8848987415       -0.8185853998      -26.7688160558  TIP3      2515            0.0000000000
     18704      2611  TIP3      H1             15.1043978178       -0.2060642061      -26.0382964927  TIP3      2515            0.0000000000
     18705      2611  TIP3      H2             14.5581087365       -1.5939265386      -26.2739798681  TIP3      2515            0.0000000000
     18706      2612  TIP3      OH2            18.9476625167       -2.5820405286      -38.8591339103  TIP3      2516            0.0000000000
     18707      2612  TIP3      H1             18.8633075768       -3.3221658724      -38.2368906339  TIP3      2516            0.0000000000
     18708      2612  TIP3      H2             18.1147946421       -2.1214183890      -38.6958000776  TIP3      2516            0.0000000000
     18709      2613  TIP3      OH2            12.2511049757       -3.7004088046      -32.3197082071  TIP3      2517            0.0000000000
     18710      2613  TIP3      H1             13.1154828374       -3.7494523222      -31.8909182055  TIP3      2517            0.0000000000
     18711      2613  TIP3      H2             12.4676177228       -3.5671874703      -33.2653565069  TIP3      2517            0.0000000000
     18712      2614  TIP3      OH2            13.1468576686       -2.9976013610      -37.3709393016  TIP3      2518            0.0000000000
     18713      2614  TIP3      H1             13.9011752614       -2.5346958514      -37.7721661703  TIP3      2518            0.0000000000
     18714      2614  TIP3      H2             12.5695002268       -2.2138734797      -37.2677523389  TIP3      2518            0.0000000000
     18715      2615  TIP3      OH2            23.0264712598        0.9673566574      -27.3270150368  TIP3      2519            0.0000000000
     18716      2615  TIP3      H1             23.5086532128        0.2497253718      -27.7891082426  TIP3      2519            0.0000000000
     18717      2615  TIP3      H2             22.4503154950        0.4359519928      -26.7362625934  TIP3      2519            0.0000000000
     18718      2616  TIP3      OH2            20.3068601086       -3.3818249298      -32.3120231080  TIP3      2520            0.0000000000
     18719      2616  TIP3      H1             19.3652817654       -3.1734616092      -32.1350057790  TIP3      2520            0.0000000000
     18720      2616  TIP3      H2             20.6793176673       -3.4061107379      -31.4198077237  TIP3      2520            0.0000000000
     18721      2617  TIP3      OH2            14.8676790315       -1.5329526565      -33.6326588377  TIP3      2521            0.0000000000
     18722      2617  TIP3      H1             13.9469576211       -1.3424852967      -33.9218077029  TIP3      2521            0.0000000000
     18723      2617  TIP3      H2             14.9444230252       -2.5048130527      -33.7331926580  TIP3      2521            0.0000000000
     18724      2618  TIP3      OH2            18.5955571426       -1.2775003320      -35.7317589710  TIP3      2522            0.0000000000
     18725      2618  TIP3      H1             19.5407440432       -1.1631973687      -35.5324789157  TIP3      2522            0.0000000000
     18726      2618  TIP3      H2             18.4705734012       -0.6565998511      -36.4668851940  TIP3      2522            0.0000000000
     18727      2619  TIP3      OH2            24.7691173956       -3.9267734519      -29.0435738299  TIP3      2523            0.0000000000
     18728      2619  TIP3      H1             23.9375928259       -4.0040117736      -28.5430794753  TIP3      2523            0.0000000000
     18729      2619  TIP3      H2             24.4985752590       -3.9880387964      -29.9658545027  TIP3      2523            0.0000000000
     18730      2620  TIP3      OH2            16.9021172847       -0.1122385081      -38.3620138047  TIP3      2524            0.0000000000
     18731      2620  TIP3      H1             16.8357317385       -0.1924232695      -39.3241954008  TIP3      2524            0.0000000000
     18732      2620  TIP3      H2             17.8495695912        0.0823938407      -38.2432900408  TIP3      2524            0.0000000000
     18733      2621  TIP3      OH2            21.3571657420       -0.8533471669      -30.4536783098  TIP3      2525            0.0000000000
     18734      2621  TIP3      H1             22.3214879808       -0.9781437317      -30.4931892794  TIP3      2525            0.0000000000
     18735      2621  TIP3      H2             21.1398485423       -1.2555899483      -29.5963428436  TIP3      2525            0.0000000000
     18736      2622  TIP3      OH2            15.7709813650       -4.0033515570      -33.9353763565  TIP3      2526            0.0000000000
     18737      2622  TIP3      H1             15.3635835116       -4.8584390429      -33.6659601477  TIP3      2526            0.0000000000
     18738      2622  TIP3      H2             15.9467311735       -4.1339643582      -34.8838315556  TIP3      2526            0.0000000000
     18739      2623  TIP3      OH2            19.5346024850       -2.3812830775      -28.0791803875  TIP3      2527            0.0000000000
     18740      2623  TIP3      H1             18.7697473526       -1.7617770847      -28.0799256691  TIP3      2527            0.0000000000
     18741      2623  TIP3      H2             20.2184616776       -1.9021225891      -27.5860463854  TIP3      2527            0.0000000000
     18742      2624  TIP3      OH2            20.4604907226        4.5482046828      -36.2858785074  TIP3      2528            0.0000000000
     18743      2624  TIP3      H1             19.7368732623        3.9182610474      -36.4732490153  TIP3      2528            0.0000000000
     18744      2624  TIP3      H2             20.2058811498        4.8295996958      -35.3702340808  TIP3      2528            0.0000000000
     18745      2625  TIP3      OH2            24.8146897046       -3.0595705235      -38.3987692898  TIP3      2529            0.0000000000
     18746      2625  TIP3      H1             23.8964283698       -3.3933036763      -38.4469907875  TIP3      2529            0.0000000000
     18747      2625  TIP3      H2             24.7069150165       -2.3095460196      -37.7984845654  TIP3      2529            0.0000000000
     18748      2626  TIP3      OH2            21.6301955671        4.3939670037      -25.6418794365  TIP3      2530            0.0000000000
     18749      2626  TIP3      H1             21.5638309446        4.2652012933      -24.6850093462  TIP3      2530            0.0000000000
     18750      2626  TIP3      H2             21.3746815386        5.3302644041      -25.7359462233  TIP3      2530            0.0000000000
     18751      2627  TIP3      OH2            25.2052821738       -1.0222969991      -36.4611850277  TIP3      2531            0.0000000000
     18752      2627  TIP3      H1             26.0801062663       -1.3063544305      -36.7831463093  TIP3      2531            0.0000000000
     18753      2627  TIP3      H2             25.1962155447       -0.0966481335      -36.7504336992  TIP3      2531            0.0000000000
     18754      2628  TIP3      OH2            15.7005554263        3.6397934817      -30.8542505043  TIP3      2532            0.0000000000
     18755      2628  TIP3      H1             16.2485148314        3.5710505407      -31.6656203373  TIP3      2532            0.0000000000
     18756      2628  TIP3      H2             16.0558699299        2.9338086946      -30.2926288097  TIP3      2532            0.0000000000
     18757      2629  TIP3      OH2            22.9021694419        5.5558632813      -37.2854882532  TIP3      2533            0.0000000000
     18758      2629  TIP3      H1             22.4688685760        6.4079363576      -37.4624489858  TIP3      2533            0.0000000000
     18759      2629  TIP3      H2             22.1116425173        5.0266916058      -37.0478509771  TIP3      2533            0.0000000000
     18760      2630  TIP3      OH2            12.9044318159        1.0664096749      -25.3642432485  TIP3      2534            0.0000000000
     18761      2630  TIP3      H1             12.2348505522        1.1680302879      -24.6715002291  TIP3      2534            0.0000000000
     18762      2630  TIP3      H2             12.3954915498        1.2473066410      -26.1847141757  TIP3      2534            0.0000000000
     18763      2631  TIP3      OH2            24.5343534829        6.8777820711      -24.7780995753  TIP3      2535            0.0000000000
     18764      2631  TIP3      H1             24.0001434652        6.7276813633      -25.5683463838  TIP3      2535            0.0000000000
     18765      2631  TIP3      H2             24.1334348166        7.7046288703      -24.4813752380  TIP3      2535            0.0000000000
     18766      2632  TIP3      OH2            24.8768854345        2.7340653272      -29.1066787666  TIP3      2536            0.0000000000
     18767      2632  TIP3      H1             24.0326971906        2.4765816538      -29.5433140927  TIP3      2536            0.0000000000
     18768      2632  TIP3      H2             25.4307421188        2.9596137481      -29.8699893918  TIP3      2536            0.0000000000
     18769      2633  TIP3      OH2            17.8477834642        7.0464360533      -33.1057674763  TIP3      2537            0.0000000000
     18770      2633  TIP3      H1             18.1460277208        7.9503323697      -33.3568960711  TIP3      2537            0.0000000000
     18771      2633  TIP3      H2             16.9613332080        7.0523722508      -33.4830811910  TIP3      2537            0.0000000000
     18772      2634  TIP3      OH2            13.8198996296        2.2747521858      -39.4738566487  TIP3      2538            0.0000000000
     18773      2634  TIP3      H1             14.6249764259        2.7451714808      -39.1921455288  TIP3      2538            0.0000000000
     18774      2634  TIP3      H2             13.4257898391        2.1011694568      -38.6110812076  TIP3      2538            0.0000000000
     18775      2635  TIP3      OH2            19.2836290885        4.9369092207      -33.9194262759  TIP3      2539            0.0000000000
     18776      2635  TIP3      H1             18.8585737792        5.7697248897      -33.6382596063  TIP3      2539            0.0000000000
     18777      2635  TIP3      H2             18.7529450074        4.2857250562      -33.4408184057  TIP3      2539            0.0000000000
     18778      2636  TIP3      OH2            19.8951455538        9.3401429422      -27.4618663416  TIP3      2540            0.0000000000
     18779      2636  TIP3      H1             20.7241487558        9.8644313777      -27.5500861976  TIP3      2540            0.0000000000
     18780      2636  TIP3      H2             20.3051129919        8.5578213563      -27.0646420790  TIP3      2540            0.0000000000
     18781      2637  TIP3      OH2            18.3048180411        9.6794821316      -33.9322027384  TIP3      2541            0.0000000000
     18782      2637  TIP3      H1             17.3239429225        9.7525228559      -33.8280443272  TIP3      2541            0.0000000000
     18783      2637  TIP3      H2             18.5754780461       10.5227591254      -33.5361155334  TIP3      2541            0.0000000000
     18784      2638  TIP3      OH2            23.6006996242        4.6525558410      -27.7202474322  TIP3      2542            0.0000000000
     18785      2638  TIP3      H1             22.9951041413        4.3112823448      -27.0273527743  TIP3      2542            0.0000000000
     18786      2638  TIP3      H2             24.0073904378        3.8052940898      -28.0222564273  TIP3      2542            0.0000000000
     18787      2639  TIP3      OH2            25.7986557220        4.7845522479      -37.8595593488  TIP3      2543            0.0000000000
     18788      2639  TIP3      H1             25.6973277107        5.5027759727      -38.5183019458  TIP3      2543            0.0000000000
     18789      2639  TIP3      H2             24.9051599915        4.8149236982      -37.4533436701  TIP3      2543            0.0000000000
     18790      2640  TIP3      OH2            13.9698966837       -3.3475678489      -25.8065388806  TIP3      2544            0.0000000000
     18791      2640  TIP3      H1             13.2391255428       -3.2523082678      -26.4511005950  TIP3      2544            0.0000000000
     18792      2640  TIP3      H2             14.1871708251       -4.2869370069      -25.8391510213  TIP3      2544            0.0000000000
     18793      2641  TIP3      OH2            13.9749796221        8.3856378949      -27.6071907431  TIP3      2545            0.0000000000
     18794      2641  TIP3      H1             14.7886833000        7.8770325554      -27.7352514282  TIP3      2545            0.0000000000
     18795      2641  TIP3      H2             14.1092415805        8.7204995812      -26.7123273827  TIP3      2545            0.0000000000
     18796      2642  TIP3      OH2            18.4058062659        6.5557894572      -37.5974730075  TIP3      2546            0.0000000000
     18797      2642  TIP3      H1             19.0663039645        6.1439107209      -37.0142542135  TIP3      2546            0.0000000000
     18798      2642  TIP3      H2             18.3680864467        7.4902990450      -37.2565085437  TIP3      2546            0.0000000000
     18799      2643  TIP3      OH2            15.0253539035        3.8455087202      -37.3329731999  TIP3      2547            0.0000000000
     18800      2643  TIP3      H1             14.6485716914        4.6201297211      -36.8890625416  TIP3      2547            0.0000000000
     18801      2643  TIP3      H2             15.8623753227        4.2005872603      -37.6644483723  TIP3      2547            0.0000000000
     18802      2644  TIP3      OH2            22.6033974018       -3.4204406214      -26.5734541458  TIP3      2548            0.0000000000
     18803      2644  TIP3      H1             23.5055718605       -3.0854725338      -26.3921339600  TIP3      2548            0.0000000000
     18804      2644  TIP3      H2             22.6851783161       -4.3689878511      -26.3918911888  TIP3      2548            0.0000000000
     18805      2645  TIP3      OH2            23.7105331377       -3.8634951856      -35.3510515900  TIP3      2549            0.0000000000
     18806      2645  TIP3      H1             23.2618548810       -3.2992395767      -35.9929319232  TIP3      2549            0.0000000000
     18807      2645  TIP3      H2             23.8616987437       -3.2522155160      -34.5933160186  TIP3      2549            0.0000000000
     18808      2646  TIP3      OH2            21.0332451395        7.7214483383      -36.0136524391  TIP3      2550            0.0000000000
     18809      2646  TIP3      H1             20.1304190774        8.0932974857      -36.0848292887  TIP3      2550            0.0000000000
     18810      2646  TIP3      H2             21.4512527223        8.1429554054      -36.7886930167  TIP3      2550            0.0000000000
     18811      2647  TIP3      OH2            21.2658725550       -1.8824347387      -34.3748469310  TIP3      2551            0.0000000000
     18812      2647  TIP3      H1             21.9481734017       -1.2277889063      -34.1301323251  TIP3      2551            0.0000000000
     18813      2647  TIP3      H2             21.0471755635       -2.3130091450      -33.5178203004  TIP3      2551            0.0000000000
     18814      2648  TIP3      OH2            21.5993501044       -0.9208873101      -25.8202143651  TIP3      2552            0.0000000000
     18815      2648  TIP3      H1             21.8746159177       -0.6194860660      -24.9278326603  TIP3      2552            0.0000000000
     18816      2648  TIP3      H2             21.9864135114       -1.8208847751      -25.8405162424  TIP3      2552            0.0000000000
     18817      2649  TIP3      OH2            21.6255334614       -5.2135916038      -34.0936629933  TIP3      2553            0.0000000000
     18818      2649  TIP3      H1             21.4044120847       -4.7484085877      -33.2670741061  TIP3      2553            0.0000000000
     18819      2649  TIP3      H2             22.4288250106       -4.7235947735      -34.3499728174  TIP3      2553            0.0000000000
     18820      2650  TIP3      OH2            18.5899725782        9.0237800177      -36.5043129977  TIP3      2554            0.0000000000
     18821      2650  TIP3      H1             18.9879124433        9.7946927042      -36.9647844069  TIP3      2554            0.0000000000
     18822      2650  TIP3      H2             18.3414351521        9.4497681538      -35.6489680242  TIP3      2554            0.0000000000
     18823      2651  TIP3      OH2            17.5458683218       -4.0125516751      -36.8697316079  TIP3      2555            0.0000000000
     18824      2651  TIP3      H1             17.6792598949       -3.1197751458      -36.5077037533  TIP3      2555            0.0000000000
     18825      2651  TIP3      H2             18.3552144375       -4.4735072713      -36.5703461331  TIP3      2555            0.0000000000
     18826      2652  TIP3      OH2            15.6138843777        6.6555608619      -38.3530121229  TIP3      2556            0.0000000000
     18827      2652  TIP3      H1             16.0275517152        7.4767560008      -38.0192526033  TIP3      2556            0.0000000000
     18828      2652  TIP3      H2             16.3991352523        6.1144284046      -38.5278854119  TIP3      2556            0.0000000000
     18829      2653  TIP3      OH2            13.9235579025       -0.7443385369      -38.6232866873  TIP3      2557            0.0000000000
     18830      2653  TIP3      H1             14.7874189834       -0.3470311700      -38.4110919262  TIP3      2557            0.0000000000
     18831      2653  TIP3      H2             13.2726888714       -0.0229349498      -38.6378502077  TIP3      2557            0.0000000000
     18832      2654  TIP3      OH2            14.8075963404       -6.1139184900      -30.1569278059  TIP3      2558            0.0000000000
     18833      2654  TIP3      H1             14.7693333854       -6.1908491341      -31.1395676111  TIP3      2558            0.0000000000
     18834      2654  TIP3      H2             14.5153139044       -7.0176927206      -29.8961494641  TIP3      2558            0.0000000000
     18835      2655  TIP3      OH2            13.3016370326        7.1908454447      -34.4983484608  TIP3      2559            0.0000000000
     18836      2655  TIP3      H1             12.6288916575        7.6819179888      -34.0120301622  TIP3      2559            0.0000000000
     18837      2655  TIP3      H2             13.5878106305        7.9114258182      -35.0965121275  TIP3      2559            0.0000000000
     18838      2656  TIP3      OH2            21.4099896794        8.0345336976      -38.7564671138  TIP3      2560            0.0000000000
     18839      2656  TIP3      H1             20.5103780265        7.7411332822      -38.9624496023  TIP3      2560            0.0000000000
     18840      2656  TIP3      H2             21.7081262700        8.4504646450      -39.5999709048  TIP3      2560            0.0000000000
     18841      2657  TIP3      OH2            11.4062960682        3.7975853164      -21.8730394711  TIP3      2561            0.0000000000
     18842      2657  TIP3      H1             12.3090386733        3.8883855573      -21.5256709295  TIP3      2561            0.0000000000
     18843      2657  TIP3      H2             11.4254251765        4.4378824220      -22.6166995296  TIP3      2561            0.0000000000
     18844      2658  TIP3      OH2            17.3462316494        4.0710194384      -38.9450870608  TIP3      2562            0.0000000000
     18845      2658  TIP3      H1             17.8040157040        3.5892746887      -38.2182953694  TIP3      2562            0.0000000000
     18846      2658  TIP3      H2             18.0364336180        4.7088572467      -39.1814542142  TIP3      2562            0.0000000000
     18847      2659  TIP3      OH2            25.2051412461        3.7899783886      -25.2238352774  TIP3      2563            0.0000000000
     18848      2659  TIP3      H1             26.0269422624        3.8241483853      -24.6875749236  TIP3      2563            0.0000000000
     18849      2659  TIP3      H2             25.3108421771        4.5740149893      -25.7798198792  TIP3      2563            0.0000000000
     18850      2660  TIP3      OH2            13.1903099520        1.4628633954      -22.3013319386  TIP3      2564            0.0000000000
     18851      2660  TIP3      H1             13.8766338713        0.9043179603      -22.7050707606  TIP3      2564            0.0000000000
     18852      2660  TIP3      H2             13.7776773420        2.1009217926      -21.8467254250  TIP3      2564            0.0000000000
     18853      2661  TIP3      OH2            18.5679163180        2.7110295193      -37.0519200833  TIP3      2565            0.0000000000
     18854      2661  TIP3      H1             17.8696033661        2.3040657082      -36.4857452968  TIP3      2565            0.0000000000
     18855      2661  TIP3      H2             18.8588209983        1.9344926063      -37.5730133415  TIP3      2565            0.0000000000
     18856      2662  TIP3      OH2            17.6043610182       -0.2126119888      -25.7791400383  TIP3      2566            0.0000000000
     18857      2662  TIP3      H1             16.9923870750        0.4238032809      -25.3549050582  TIP3      2566            0.0000000000
     18858      2662  TIP3      H2             18.3229316543        0.3721644663      -26.1183227492  TIP3      2566            0.0000000000
     18859      2663  TIP3      OH2            19.5920018484        0.3180300397      -38.0844242526  TIP3      2567            0.0000000000
     18860      2663  TIP3      H1             19.5617923273        0.4769821148      -39.0536995116  TIP3      2567            0.0000000000
     18861      2663  TIP3      H2             20.4633903338       -0.1489650999      -38.0381679174  TIP3      2567            0.0000000000
     18862      2664  TIP3      OH2            17.2151549044       -2.4300071609      -24.4224953442  TIP3      2568            0.0000000000
     18863      2664  TIP3      H1             17.9425721033       -2.9900000647      -24.7694942650  TIP3      2568            0.0000000000
     18864      2664  TIP3      H2             17.4216518818       -1.5705471974      -24.8625636819  TIP3      2568            0.0000000000
     18865      2665  TIP3      OH2            18.6563819555       -3.9651625407      -26.0964667528  TIP3      2569            0.0000000000
     18866      2665  TIP3      H1             19.0934815708       -3.4108098804      -26.7904984151  TIP3      2569            0.0000000000
     18867      2665  TIP3      H2             17.7210233090       -3.8921894813      -26.3992287809  TIP3      2569            0.0000000000
     18868      2666  TIP3      OH2            19.4966376564        1.6939066378      -26.6326480903  TIP3      2570            0.0000000000
     18869      2666  TIP3      H1             20.3979053969        1.8783160186      -26.3338476543  TIP3      2570            0.0000000000
     18870      2666  TIP3      H2             19.1952070439        2.5795692406      -26.9078013748  TIP3      2570            0.0000000000
     18871      2667  TIP3      OH2            17.0782277667       -1.5542595045      -21.9277857925  TIP3      2571            0.0000000000
     18872      2667  TIP3      H1             16.5785720986       -2.2571126110      -21.4638979616  TIP3      2571            0.0000000000
     18873      2667  TIP3      H2             17.0182265330       -1.8827111653      -22.8607684314  TIP3      2571            0.0000000000
     18874      2668  TIP3      OH2            19.4125424644       -6.5003705700      -26.0478181077  TIP3      2572            0.0000000000
     18875      2668  TIP3      H1             19.0522391604       -5.5832733883      -26.0753383205  TIP3      2572            0.0000000000
     18876      2668  TIP3      H2             18.8616901424       -6.9156812388      -26.7466183927  TIP3      2572            0.0000000000
     18877      2669  TIP3      OH2            20.6728219999       -1.7527425156      -22.5863071623  TIP3      2573            0.0000000000
     18878      2669  TIP3      H1             20.8087489438       -1.9779239692      -21.6343865723  TIP3      2573            0.0000000000
     18879      2669  TIP3      H2             20.0353998039       -2.4172969933      -22.8766143016  TIP3      2573            0.0000000000
     18880      2670  TIP3      OH2            23.2253293514       -2.7200447227      -23.3686332685  TIP3      2574            0.0000000000
     18881      2670  TIP3      H1             22.2849770596       -2.5830107944      -23.1743954883  TIP3      2574            0.0000000000
     18882      2670  TIP3      H2             23.5549522999       -3.2275890777      -22.6036610420  TIP3      2574            0.0000000000
     18883      2671  TIP3      OH2            24.9138107873       -4.0637772994      -21.7283347228  TIP3      2575            0.0000000000
     18884      2671  TIP3      H1             25.0952621654       -5.0099868128      -21.6255921297  TIP3      2575            0.0000000000
     18885      2671  TIP3      H2             25.1864340879       -3.6761723203      -20.8559748225  TIP3      2575            0.0000000000
     18886      2672  TIP3      OH2            19.5354748453       -7.4392512464      -23.3820746575  TIP3      2576            0.0000000000
     18887      2672  TIP3      H1             20.2896045518       -8.0474791675      -23.5300365125  TIP3      2576            0.0000000000
     18888      2672  TIP3      H2             19.4451817026       -7.0299659388      -24.2650222668  TIP3      2576            0.0000000000
     18889      2673  TIP3      OH2            19.4845403771       11.3665036221      -37.6969367047  TIP3      2577            0.0000000000
     18890      2673  TIP3      H1             20.3310781180       11.7452693550      -37.9957281188  TIP3      2577            0.0000000000
     18891      2673  TIP3      H2             18.8560847438       11.8712249114      -38.2227966904  TIP3      2577            0.0000000000
     18892      2674  TIP3      OH2            12.9976652147        6.2132407995      -38.5314579775  TIP3      2578            0.0000000000
     18893      2674  TIP3      H1             13.8328597643        6.7422455558      -38.4715281978  TIP3      2578            0.0000000000
     18894      2674  TIP3      H2             13.3737900555        5.4570576012      -39.0115117512  TIP3      2578            0.0000000000
     18895      2675  TIP3      OH2            11.6647241011       11.2550552842      -33.7424600660  TIP3      2579            0.0000000000
     18896      2675  TIP3      H1             10.9422916051       10.7504074450      -34.1760269690  TIP3      2579            0.0000000000
     18897      2675  TIP3      H2             12.0294154474       10.5747357833      -33.1325358703  TIP3      2579            0.0000000000
     18898      2676  TIP3      OH2            12.5717586681        9.5264029545      -31.8517315827  TIP3      2580            0.0000000000
     18899      2676  TIP3      H1             12.0828810140        8.7206272611      -31.6185183948  TIP3      2580            0.0000000000
     18900      2676  TIP3      H2             12.3700060115       10.0705719152      -31.0674069951  TIP3      2580            0.0000000000
     18901      2677  TIP3      OH2            12.7230044689        2.7756999015      -29.3166551493  TIP3      2581            0.0000000000
     18902      2677  TIP3      H1             12.7550592886        2.3818618338      -30.2215031135  TIP3      2581            0.0000000000
     18903      2677  TIP3      H2             13.6593676122        2.6326836597      -29.0317210250  TIP3      2581            0.0000000000
     18904      2678  TIP3      OH2            13.6304594645       -3.8136086611      -29.3230169084  TIP3      2582            0.0000000000
     18905      2678  TIP3      H1             13.9474449100       -4.7152195341      -29.5558537894  TIP3      2582            0.0000000000
     18906      2678  TIP3      H2             14.4207913210       -3.2655208714      -29.4842286499  TIP3      2582            0.0000000000
     18907      2679  TIP3      OH2            11.9449719256       -0.7217848114      -29.3960848622  TIP3      2583            0.0000000000
     18908      2679  TIP3      H1             12.6149082626       -0.9953163077      -30.0527535787  TIP3      2583            0.0000000000
     18909      2679  TIP3      H2             12.3253513383        0.0916351014      -29.0585239255  TIP3      2583            0.0000000000
     18910      2680  TIP3      OH2            12.1357261760       -4.1561396588      -35.1500521581  TIP3      2584            0.0000000000
     18911      2680  TIP3      H1             11.1915047981       -3.9096814846      -35.1607555438  TIP3      2584            0.0000000000
     18912      2680  TIP3      H2             12.4219923413       -3.7940766628      -36.0057315925  TIP3      2584            0.0000000000
     18913      2681  TIP3      OH2            12.3704244399       -5.8989129418      -26.7363215350  TIP3      2585            0.0000000000
     18914      2681  TIP3      H1             11.7150282657       -6.4336324256      -26.2598655043  TIP3      2585            0.0000000000
     18915      2681  TIP3      H2             11.8101349846       -5.4225259456      -27.3729636813  TIP3      2585            0.0000000000
     18916      2682  TIP3      OH2            14.1828978886        6.9888951838      -23.1285499690  TIP3      2586            0.0000000000
     18917      2682  TIP3      H1             13.6939085734        7.7628868774      -22.8179803958  TIP3      2586            0.0000000000
     18918      2682  TIP3      H2             14.3984278991        6.4891550555      -22.3253402096  TIP3      2586            0.0000000000
     18919      2683  TIP3      OH2            17.0260106905        8.8817782102      -26.6795883528  TIP3      2587            0.0000000000
     18920      2683  TIP3      H1             17.4155352186        9.7740412346      -26.7259585385  TIP3      2587            0.0000000000
     18921      2683  TIP3      H2             17.8376377518        8.3586864443      -26.7361330732  TIP3      2587            0.0000000000
     18922      2684  TIP3      OH2            21.8894712483        9.9658525402      -23.3650505501  TIP3      2588            0.0000000000
     18923      2684  TIP3      H1             21.8416352004        9.6914064183      -22.4407125266  TIP3      2588            0.0000000000
     18924      2684  TIP3      H2             22.5522686027       10.6839366447      -23.3589617397  TIP3      2588            0.0000000000
     18925      2685  TIP3      OH2            23.8535993595       11.8353466681      -23.7378464141  TIP3      2589            0.0000000000
     18926      2685  TIP3      H1             24.2774842656       11.3135890568      -24.4446169312  TIP3      2589            0.0000000000
     18927      2685  TIP3      H2             24.4558060576       11.6909871251      -22.9894074085  TIP3      2589            0.0000000000
     18928      2686  TIP3      OH2            14.8256921264       11.9621903948      -26.4216068766  TIP3      2590            0.0000000000
     18929      2686  TIP3      H1             13.9245014588       12.3281132850      -26.5479103590  TIP3      2590            0.0000000000
     18930      2686  TIP3      H2             14.7363402633       11.3947032486      -25.6478758023  TIP3      2590            0.0000000000
     18931      2687  TIP3      OH2            17.6448983383       11.6093271752      -27.3019134299  TIP3      2591            0.0000000000
     18932      2687  TIP3      H1             17.6630302538       12.2987027032      -26.6189324370  TIP3      2591            0.0000000000
     18933      2687  TIP3      H2             17.9339957961       12.1070205112      -28.0979388428  TIP3      2591            0.0000000000
     18934      2688  TIP3      OH2            22.0325298765       10.7390590648      -28.1643387920  TIP3      2592            0.0000000000
     18935      2688  TIP3      H1             22.3044469212       11.2611487579      -28.9284895845  TIP3      2592            0.0000000000
     18936      2688  TIP3      H2             22.2957503684       11.2938158948      -27.3935588742  TIP3      2592            0.0000000000
     18937      2689  TIP3      OH2            24.0823706197        9.7852213548      -26.6240440553  TIP3      2593            0.0000000000
     18938      2689  TIP3      H1             23.5878607992        9.9003497131      -27.4545090126  TIP3      2593            0.0000000000
     18939      2689  TIP3      H2             24.9259079549       10.2185236252      -26.8221087686  TIP3      2593            0.0000000000
     18940      2690  TIP3      OH2            14.3339734569       10.3261498407      -29.5050361524  TIP3      2594            0.0000000000
     18941      2690  TIP3      H1             14.0150690702        9.5855650199      -28.9447809733  TIP3      2594            0.0000000000
     18942      2690  TIP3      H2             15.0738455701        9.8890772451      -30.0022121748  TIP3      2594            0.0000000000
     18943      2691  TIP3      OH2            16.5571143691        9.4873947648      -30.7463132244  TIP3      2595            0.0000000000
     18944      2691  TIP3      H1             16.3685338498        8.5324223004      -30.6030702450  TIP3      2595            0.0000000000
     18945      2691  TIP3      H2             17.5020923484        9.5401897087      -30.5048330885  TIP3      2595            0.0000000000
     18946      2692  TIP3      OH2            19.2076913663        9.5766327599      -30.1182453065  TIP3      2596            0.0000000000
     18947      2692  TIP3      H1             19.2130833592        8.6125626447      -30.1321865956  TIP3      2596            0.0000000000
     18948      2692  TIP3      H2             19.3950821508        9.7123933136      -29.1626831887  TIP3      2596            0.0000000000
     18949      2693  TIP3      OH2            22.2422260751       -5.3898366870      -30.8492079476  TIP3      2597            0.0000000000
     18950      2693  TIP3      H1             21.3293749062       -5.5297690768      -30.5170559329  TIP3      2597            0.0000000000
     18951      2693  TIP3      H2             22.7155747940       -6.0593108127      -30.3403449193  TIP3      2597            0.0000000000
     18952      2694  TIP3      OH2            14.5852569675       -6.2262599223      -32.8918731688  TIP3      2598            0.0000000000
     18953      2694  TIP3      H1             13.7372187231       -6.4493842572      -33.3280106156  TIP3      2598            0.0000000000
     18954      2694  TIP3      H2             15.0857234921       -7.0613860523      -33.0883526382  TIP3      2598            0.0000000000
     18955      2695  TIP3      OH2            13.3672255843       -6.5842844831      -37.2394525426  TIP3      2599            0.0000000000
     18956      2695  TIP3      H1             13.8083959098       -6.0054687348      -37.9067575103  TIP3      2599            0.0000000000
     18957      2695  TIP3      H2             13.0780548096       -5.9237177064      -36.5819180735  TIP3      2599            0.0000000000
     18958      2696  TIP3      OH2            19.0620953889       -6.1030390566      -33.3688325536  TIP3      2600            0.0000000000
     18959      2696  TIP3      H1             19.9541561144       -5.8550237782      -33.6766058882  TIP3      2600            0.0000000000
     18960      2696  TIP3      H2             18.8737024684       -5.4099948257      -32.7177947508  TIP3      2600            0.0000000000
     18961      2697  TIP3      OH2            24.7837064601       -6.2335125933      -31.8576507082  TIP3      2601            0.0000000000
     18962      2697  TIP3      H1             23.9941573942       -5.6818740240      -31.7337282265  TIP3      2601            0.0000000000
     18963      2697  TIP3      H2             24.5005450880       -7.0661451258      -31.4383987813  TIP3      2601            0.0000000000
     18964      2698  TIP3      OH2            13.3036873486        9.5236643983      -35.9658355908  TIP3      2602            0.0000000000
     18965      2698  TIP3      H1             12.5549596208        9.4075503635      -36.5907962972  TIP3      2602            0.0000000000
     18966      2698  TIP3      H2             13.5773645542       10.4200235030      -36.2289464661  TIP3      2602            0.0000000000
     18967      2699  TIP3      OH2            15.2175587082       -5.1001072631      -38.6568400420  TIP3      2603            0.0000000000
     18968      2699  TIP3      H1             15.7362050184       -5.6784713466      -39.2339606503  TIP3      2603            0.0000000000
     18969      2699  TIP3      H2             15.8896668079       -4.8870548654      -37.9895490042  TIP3      2603            0.0000000000
     18970      2700  TIP3      OH2            20.3754881706       -3.8884048994      -36.3777390537  TIP3      2604            0.0000000000
     18971      2700  TIP3      H1             20.9298612252       -4.5137197196      -35.8845860831  TIP3      2604            0.0000000000
     18972      2700  TIP3      H2             20.4468569775       -3.1024082121      -35.8088948033  TIP3      2604            0.0000000000
     18973      2701  TIP3      OH2            22.5143077032       11.5140455245      -38.0536282691  TIP3      2605            0.0000000000
     18974      2701  TIP3      H1             23.3430872637       10.9920720077      -37.9772300786  TIP3      2605            0.0000000000
     18975      2701  TIP3      H2             22.4227385450       11.5569378468      -39.0143190622  TIP3      2605            0.0000000000
     18976      2702  TIP3      OH2            15.7052445551        9.7523040119      -38.1206662683  TIP3      2606            0.0000000000
     18977      2702  TIP3      H1             15.2430051529       10.5611209087      -37.8338919833  TIP3      2606            0.0000000000
     18978      2702  TIP3      H2             16.4653335610       10.0637888198      -38.6342909216  TIP3      2606            0.0000000000
     18979      2703  TIP3      OH2            25.1961564721       -7.0593160190      -21.4624680730  TIP3      2607            0.0000000000
     18980      2703  TIP3      H1             25.2548838519       -7.3831932841      -20.5523097083  TIP3      2607            0.0000000000
     18981      2703  TIP3      H2             26.0734384974       -7.2930031095      -21.8354024211  TIP3      2607            0.0000000000
     18982      2704  TIP3      OH2           -13.4569304696       22.0835360880      -33.4354319920  TIP3      2608            0.0000000000
     18983      2704  TIP3      H1            -13.6743664490       23.0137813754      -33.2371273161  TIP3      2608            0.0000000000
     18984      2704  TIP3      H2            -14.3313077923       21.7260729925      -33.6407302954  TIP3      2608            0.0000000000
     18985      2705  TIP3      OH2           -15.2572171410       20.9556350447      -29.9434587819  TIP3      2609            0.0000000000
     18986      2705  TIP3      H1            -15.0610023286       20.5023918658      -29.0902748185  TIP3      2609            0.0000000000
     18987      2705  TIP3      H2            -15.9353416097       20.3723171465      -30.3331829669  TIP3      2609            0.0000000000
     18988      2706  TIP3      OH2           -23.0440771897       20.3586550309      -28.0868611538  TIP3      2610            0.0000000000
     18989      2706  TIP3      H1            -22.8112398330       19.5228384332      -27.6201083518  TIP3      2610            0.0000000000
     18990      2706  TIP3      H2            -22.4855616112       21.0124810314      -27.5999595765  TIP3      2610            0.0000000000
     18991      2707  TIP3      OH2           -11.4822783188       24.1494202494      -31.2912053597  TIP3      2611            0.0000000000
     18992      2707  TIP3      H1            -11.8218781558       23.3473557047      -30.8520864992  TIP3      2611            0.0000000000
     18993      2707  TIP3      H2            -10.7377592805       24.3901737334      -30.7125852927  TIP3      2611            0.0000000000
     18994      2708  TIP3      OH2           -21.5521396195       24.7760216446      -29.1348197273  TIP3      2612            0.0000000000
     18995      2708  TIP3      H1            -21.9448774612       23.9797853588      -29.5446312078  TIP3      2612            0.0000000000
     18996      2708  TIP3      H2            -20.7055838625       24.7856315857      -29.6356540318  TIP3      2612            0.0000000000
     18997      2709  TIP3      OH2           -25.2247059961       19.2716198998      -33.9369967477  TIP3      2613            0.0000000000
     18998      2709  TIP3      H1            -25.2236123756       20.0702394409      -34.4992641172  TIP3      2613            0.0000000000
     18999      2709  TIP3      H2            -25.5964933049       18.5996326568      -34.5477131845  TIP3      2613            0.0000000000
     19000      2710  TIP3      OH2           -23.6218487225       20.9920653115      -31.8718867738  TIP3      2614            0.0000000000
     19001      2710  TIP3      H1            -23.5605684348       20.0684650657      -31.5230157654  TIP3      2614            0.0000000000
     19002      2710  TIP3      H2            -24.1509681473       20.8426682265      -32.6625710558  TIP3      2614            0.0000000000
     19003      2711  TIP3      OH2           -17.0248604066       23.2014318730      -29.2438415019  TIP3      2615            0.0000000000
     19004      2711  TIP3      H1            -16.3593147562       22.6428392934      -29.6873650707  TIP3      2615            0.0000000000
     19005      2711  TIP3      H2            -16.3912397442       23.6847217080      -28.6642983652  TIP3      2615            0.0000000000
     19006      2712  TIP3      OH2            -8.6942241509       14.8260618117      -28.6393355117  TIP3      2616            0.0000000000
     19007      2712  TIP3      H1             -8.4857869080       15.4536293476      -27.9162277828  TIP3      2616            0.0000000000
     19008      2712  TIP3      H2             -7.9482712864       15.0234757433      -29.2265892527  TIP3      2616            0.0000000000
     19009      2713  TIP3      OH2           -13.0334414441       17.6627790944      -28.6726895791  TIP3      2617            0.0000000000
     19010      2713  TIP3      H1            -13.1312535594       16.7653236513      -28.3162298324  TIP3      2617            0.0000000000
     19011      2713  TIP3      H2            -13.4077355820       17.5491140981      -29.5699208871  TIP3      2617            0.0000000000
     19012      2714  TIP3      OH2           -20.1974415939       15.8051885456      -31.9928427445  TIP3      2618            0.0000000000
     19013      2714  TIP3      H1            -20.3063142210       16.6254137148      -32.5163043993  TIP3      2618            0.0000000000
     19014      2714  TIP3      H2            -20.7188327985       15.1743150002      -32.5339518990  TIP3      2618            0.0000000000
     19015      2715  TIP3      OH2           -13.0467363279       16.2410772462      -32.6913268667  TIP3      2619            0.0000000000
     19016      2715  TIP3      H1            -12.6730458157       15.3529825638      -32.6084415167  TIP3      2619            0.0000000000
     19017      2715  TIP3      H2            -13.1395028380       16.3331753608      -33.6517067514  TIP3      2619            0.0000000000
     19018      2716  TIP3      OH2           -23.1496148585       18.5559083269      -30.9547340742  TIP3      2620            0.0000000000
     19019      2716  TIP3      H1            -22.6643008907       18.0238850254      -30.2920453529  TIP3      2620            0.0000000000
     19020      2716  TIP3      H2            -23.1836542624       17.9412887015      -31.7239108687  TIP3      2620            0.0000000000
     19021      2717  TIP3      OH2           -19.2851909766       19.8438323960      -31.4610724110  TIP3      2621            0.0000000000
     19022      2717  TIP3      H1            -18.4487319026       19.4433952722      -31.1485292489  TIP3      2621            0.0000000000
     19023      2717  TIP3      H2            -19.5591314991       19.1898763072      -32.1471485235  TIP3      2621            0.0000000000
     19024      2718  TIP3      OH2            -7.9178696960       16.4400574130      -26.4202993324  TIP3      2622            0.0000000000
     19025      2718  TIP3      H1             -8.2345861359       17.3603970384      -26.5383931558  TIP3      2622            0.0000000000
     19026      2718  TIP3      H2             -7.4922083984       16.5080554082      -25.5360917085  TIP3      2622            0.0000000000
     19027      2719  TIP3      OH2           -21.1083637837       14.9626600994      -27.6371897074  TIP3      2623            0.0000000000
     19028      2719  TIP3      H1            -21.5077782142       15.4536309123      -28.3918388758  TIP3      2623            0.0000000000
     19029      2719  TIP3      H2            -21.8463267162       15.0543473442      -27.0070388958  TIP3      2623            0.0000000000
     19030      2720  TIP3      OH2           -14.5480299194       24.5918285704      -34.4058338148  TIP3      2624            0.0000000000
     19031      2720  TIP3      H1            -14.6083710456       24.1939837777      -35.2914045288  TIP3      2624            0.0000000000
     19032      2720  TIP3      H2            -14.8335827283       25.5011672707      -34.5803793460  TIP3      2624            0.0000000000
     19033      2721  TIP3      OH2           -19.0697274161       22.8942577503      -27.3380460960  TIP3      2625            0.0000000000
     19034      2721  TIP3      H1            -19.9010108259       23.0639510506      -27.8147055511  TIP3      2625            0.0000000000
     19035      2721  TIP3      H2            -18.4135851111       23.2850369184      -27.9526846028  TIP3      2625            0.0000000000
     19036      2722  TIP3      OH2           -10.4638735650       15.8101468685      -30.8603002883  TIP3      2626            0.0000000000
     19037      2722  TIP3      H1            -10.8856226944       15.0800799167      -30.3762962933  TIP3      2626            0.0000000000
     19038      2722  TIP3      H2            -10.2639726551       16.4322130797      -30.1122632249  TIP3      2626            0.0000000000
     19039      2723  TIP3      OH2           -21.7433076572       16.6782396122      -29.7157218113  TIP3      2627            0.0000000000
     19040      2723  TIP3      H1            -21.0885171096       17.3317325064      -29.3736887903  TIP3      2627            0.0000000000
     19041      2723  TIP3      H2            -21.2470888504       16.3042564976      -30.4826202771  TIP3      2627            0.0000000000
     19042      2724  TIP3      OH2           -20.5926551423       25.5877308209      -26.7924267083  TIP3      2628            0.0000000000
     19043      2724  TIP3      H1            -21.0101965542       25.2705987806      -27.6241978273  TIP3      2628            0.0000000000
     19044      2724  TIP3      H2            -21.2095058761       25.1783741929      -26.1397999587  TIP3      2628            0.0000000000
     19045      2725  TIP3      OH2           -24.1659409799       24.3424932564      -35.9218441658  TIP3      2629            0.0000000000
     19046      2725  TIP3      H1            -24.9997599621       23.8842420327      -36.1633868088  TIP3      2629            0.0000000000
     19047      2725  TIP3      H2            -24.2633361862       25.1524171610      -36.4663107518  TIP3      2629            0.0000000000
     19048      2726  TIP3      OH2           -11.5747952493       25.3860648928      -28.2757945461  TIP3      2630            0.0000000000
     19049      2726  TIP3      H1            -12.2043995316       25.3909329464      -29.0055875335  TIP3      2630            0.0000000000
     19050      2726  TIP3      H2            -11.0796885514       26.2096452093      -28.4039125803  TIP3      2630            0.0000000000
     19051      2727  TIP3      OH2           -11.2803280311       14.4694961073      -27.6500942404  TIP3      2631            0.0000000000
     19052      2727  TIP3      H1            -11.8867961207       14.8009294021      -28.3444141577  TIP3      2631            0.0000000000
     19053      2727  TIP3      H2            -10.3878899486       14.4791888225      -28.0351630910  TIP3      2631            0.0000000000
     19054      2728  TIP3      OH2           -17.9611975836       12.1173296869      -30.5667547993  TIP3      2632            0.0000000000
     19055      2728  TIP3      H1            -18.1368727014       11.1636511209      -30.4754378600  TIP3      2632            0.0000000000
     19056      2728  TIP3      H2            -18.7562484164       12.5053282537      -30.1344571131  TIP3      2632            0.0000000000
     19057      2729  TIP3      OH2           -11.6423347303       25.4805411222      -34.2835102167  TIP3      2633            0.0000000000
     19058      2729  TIP3      H1            -11.7522660659       24.6548926704      -34.8069969666  TIP3      2633            0.0000000000
     19059      2729  TIP3      H2            -11.4871968180       25.1047498501      -33.4044777875  TIP3      2633            0.0000000000
     19060      2730  TIP3      OH2            -9.3122380592       24.4253532404      -25.7029800388  TIP3      2634            0.0000000000
     19061      2730  TIP3      H1             -9.2974991467       23.6272773849      -25.1468037133  TIP3      2634            0.0000000000
     19062      2730  TIP3      H2            -10.2230377045       24.4233022182      -26.0105650694  TIP3      2634            0.0000000000
     19063      2731  TIP3      OH2           -15.3218311500       20.7649786778      -35.9033122378  TIP3      2635            0.0000000000
     19064      2731  TIP3      H1            -15.8638684600       21.4766540274      -36.2973184878  TIP3      2635            0.0000000000
     19065      2731  TIP3      H2            -14.5840097566       20.6538978923      -36.5433758093  TIP3      2635            0.0000000000
     19066      2732  TIP3      OH2           -15.0704958526       19.6513639703      -38.6829660640  TIP3      2636            0.0000000000
     19067      2732  TIP3      H1            -14.1808197137       20.0027536262      -38.5251860053  TIP3      2636            0.0000000000
     19068      2732  TIP3      H2            -14.8955496014       18.7187970506      -38.8773859276  TIP3      2636            0.0000000000
     19069      2733  TIP3      OH2            -7.8119023587       20.7168534208      -28.0156385113  TIP3      2637            0.0000000000
     19070      2733  TIP3      H1             -8.3385744892       21.2631072854      -27.3940733241  TIP3      2637            0.0000000000
     19071      2733  TIP3      H2             -8.0522355595       21.1569300677      -28.8405427947  TIP3      2637            0.0000000000
     19072      2734  TIP3      OH2           -11.5442417695       20.5664104257      -34.6417653407  TIP3      2638            0.0000000000
     19073      2734  TIP3      H1            -12.2510479165       21.1467639126      -34.2691689419  TIP3      2638            0.0000000000
     19074      2734  TIP3      H2            -10.9028562845       20.6323485283      -33.9062446537  TIP3      2638            0.0000000000
     19075      2735  TIP3      OH2           -11.6516057756       19.6177437325      -25.5623201062  TIP3      2639            0.0000000000
     19076      2735  TIP3      H1            -11.1566010428       20.4017719895      -25.2413470280  TIP3      2639            0.0000000000
     19077      2735  TIP3      H2            -12.3092492228       20.0313244755      -26.1459630517  TIP3      2639            0.0000000000
     19078      2736  TIP3      OH2           -19.8691750611       21.7616235620      -33.1269273480  TIP3      2640            0.0000000000
     19079      2736  TIP3      H1            -20.3741684926       21.3639488841      -33.8691380916  TIP3      2640            0.0000000000
     19080      2736  TIP3      H2            -19.7150310213       21.0091185873      -32.5102129804  TIP3      2640            0.0000000000
     19081      2737  TIP3      OH2           -18.9908128208       24.7382401498      -30.1933359741  TIP3      2641            0.0000000000
     19082      2737  TIP3      H1            -19.1337916757       24.4572773585      -31.1141578258  TIP3      2641            0.0000000000
     19083      2737  TIP3      H2            -18.2698673134       24.1449859644      -29.8894180808  TIP3      2641            0.0000000000
     19084      2738  TIP3      OH2           -20.1580619193       20.8740068018      -29.0324351135  TIP3      2642            0.0000000000
     19085      2738  TIP3      H1            -19.9681126778       20.8114694166      -29.9995011767  TIP3      2642            0.0000000000
     19086      2738  TIP3      H2            -19.3995554874       21.3668065331      -28.6860517540  TIP3      2642            0.0000000000
     19087      2739  TIP3      OH2           -19.8472784490       24.6868098784      -24.2525950004  TIP3      2643            0.0000000000
     19088      2739  TIP3      H1            -20.1796979923       25.5749440735      -24.4845246776  TIP3      2643            0.0000000000
     19089      2739  TIP3      H2            -19.3660434536       24.4071175723      -25.0487214724  TIP3      2643            0.0000000000
     19090      2740  TIP3      OH2           -12.9022461820       20.2180250236      -36.8835254470  TIP3      2644            0.0000000000
     19091      2740  TIP3      H1            -12.4196999449       20.2795804765      -36.0255772759  TIP3      2644            0.0000000000
     19092      2740  TIP3      H2            -12.4059362580       20.8352589880      -37.4671654542  TIP3      2644            0.0000000000
     19093      2741  TIP3      OH2           -21.8289004550       21.7438327844      -26.0421296524  TIP3      2645            0.0000000000
     19094      2741  TIP3      H1            -21.4970802207       22.2507300321      -25.2781831013  TIP3      2645            0.0000000000
     19095      2741  TIP3      H2            -22.5855955461       21.2984756719      -25.5988736003  TIP3      2645            0.0000000000
     19096      2742  TIP3      OH2            -8.9557390809       11.9087723379      -37.0328693753  TIP3      2646            0.0000000000
     19097      2742  TIP3      H1             -9.9156645672       12.0231985613      -37.1993086296  TIP3      2646            0.0000000000
     19098      2742  TIP3      H2             -8.5521755690       12.6772523404      -37.4907175854  TIP3      2646            0.0000000000
     19099      2743  TIP3      OH2           -21.2626954774       20.7122233689      -35.5069329275  TIP3      2647            0.0000000000
     19100      2743  TIP3      H1            -21.7763606724       21.5122114319      -35.7075384009  TIP3      2647            0.0000000000
     19101      2743  TIP3      H2            -21.9529003734       20.0574723172      -35.3379518064  TIP3      2647            0.0000000000
     19102      2744  TIP3      OH2           -24.9774177532       23.3987408563      -26.3926048451  TIP3      2648            0.0000000000
     19103      2744  TIP3      H1            -25.2437511566       23.2845648179      -27.3125879617  TIP3      2648            0.0000000000
     19104      2744  TIP3      H2            -24.5706627629       22.5307132877      -26.2178821416  TIP3      2648            0.0000000000
     19105      2745  TIP3      OH2           -10.2759425460       18.1643082741      -23.5952179455  TIP3      2649            0.0000000000
     19106      2745  TIP3      H1            -10.9018876841       18.6716271254      -24.1485437722  TIP3      2649            0.0000000000
     19107      2745  TIP3      H2            -10.5645800191       17.2474766018      -23.7514144247  TIP3      2649            0.0000000000
     19108      2746  TIP3      OH2           -22.7874273558       24.7398889984      -25.3036148379  TIP3      2650            0.0000000000
     19109      2746  TIP3      H1            -23.3578901093       24.1884137774      -24.7533618444  TIP3      2650            0.0000000000
     19110      2746  TIP3      H2            -23.1476093021       24.5072093413      -26.1765250448  TIP3      2650            0.0000000000
     19111      2747  TIP3      OH2           -20.2470198962       13.3776126379      -29.6423619689  TIP3      2651            0.0000000000
     19112      2747  TIP3      H1            -21.1803547255       13.3874184368      -29.9410820496  TIP3      2651            0.0000000000
     19113      2747  TIP3      H2            -20.2886850935       13.9378104541      -28.8390376015  TIP3      2651            0.0000000000
     19114      2748  TIP3      OH2           -15.3744943204       12.6626866323      -26.2028096246  TIP3      2652            0.0000000000
     19115      2748  TIP3      H1            -15.0604893817       12.9512719383      -25.3105944832  TIP3      2652            0.0000000000
     19116      2748  TIP3      H2            -16.3434528424       12.8015235364      -26.1181665845  TIP3      2652            0.0000000000
     19117      2749  TIP3      OH2           -13.0213767617       16.6018784139      -24.4188893676  TIP3      2653            0.0000000000
     19118      2749  TIP3      H1            -13.9118093098       16.3015058005      -24.1138852450  TIP3      2653            0.0000000000
     19119      2749  TIP3      H2            -13.1699103510       17.5035721817      -24.7366659953  TIP3      2653            0.0000000000
     19120      2750  TIP3      OH2           -12.0113216126       21.6117589490      -38.9517473338  TIP3      2654            0.0000000000
     19121      2750  TIP3      H1            -12.1232336682       22.5724080468      -38.8842721683  TIP3      2654            0.0000000000
     19122      2750  TIP3      H2            -11.0326145769       21.5558963176      -38.9893801820  TIP3      2654            0.0000000000
     19123      2751  TIP3      OH2           -15.7299719940       15.6293836430      -38.4690016387  TIP3      2655            0.0000000000
     19124      2751  TIP3      H1            -16.2417951657       15.6170110663      -37.6402626625  TIP3      2655            0.0000000000
     19125      2751  TIP3      H2            -16.1326319445       14.8629334114      -38.9059238045  TIP3      2655            0.0000000000
     19126      2752  TIP3      OH2           -20.1761031840       18.2004837912      -28.2532905404  TIP3      2656            0.0000000000
     19127      2752  TIP3      H1            -20.9302064444       18.1770460222      -27.6285835628  TIP3      2656            0.0000000000
     19128      2752  TIP3      H2            -20.1880984050       19.1444649948      -28.5360054688  TIP3      2656            0.0000000000
     19129      2753  TIP3      OH2           -20.5291507736       18.2459613761      -33.1597201789  TIP3      2657            0.0000000000
     19130      2753  TIP3      H1            -21.4959516493       18.2679547937      -33.3433196986  TIP3      2657            0.0000000000
     19131      2753  TIP3      H2            -20.1716313129       18.0047135011      -34.0415600056  TIP3      2657            0.0000000000
     19132      2754  TIP3      OH2           -14.4808696763       18.6631619919      -34.3529507409  TIP3      2658            0.0000000000
     19133      2754  TIP3      H1            -14.7164685679       19.4824027984      -34.8530537360  TIP3      2658            0.0000000000
     19134      2754  TIP3      H2            -13.8194262063       18.2859133583      -34.9509962269  TIP3      2658            0.0000000000
     19135      2755  TIP3      OH2           -16.0673299175       19.1559599496      -23.7186072346  TIP3      2659            0.0000000000
     19136      2755  TIP3      H1            -16.8507227730       18.8207202859      -23.2686886247  TIP3      2659            0.0000000000
     19137      2755  TIP3      H2            -15.3602530174       19.0069763255      -23.0828143217  TIP3      2659            0.0000000000
     19138      2756  TIP3      OH2           -13.9491490727       18.4545318413      -31.2444458415  TIP3      2660            0.0000000000
     19139      2756  TIP3      H1            -14.0071539684       19.1519064145      -31.9159652962  TIP3      2660            0.0000000000
     19140      2756  TIP3      H2            -13.6563766408       17.7027875956      -31.8014347531  TIP3      2660            0.0000000000
     19141      2757  TIP3      OH2           -22.5420019542       18.0336152230      -26.7596136556  TIP3      2661            0.0000000000
     19142      2757  TIP3      H1            -22.0729276247       18.2475312401      -25.9343992029  TIP3      2661            0.0000000000
     19143      2757  TIP3      H2            -22.8426885788       17.1145050204      -26.5536686440  TIP3      2661            0.0000000000
     19144      2758  TIP3      OH2           -18.9977959603       16.0572447194      -38.9248140808  TIP3      2662            0.0000000000
     19145      2758  TIP3      H1            -19.6061027133       15.5309573100      -38.3736178783  TIP3      2662            0.0000000000
     19146      2758  TIP3      H2            -19.4703770593       16.8780297587      -39.0988259529  TIP3      2662            0.0000000000
     19147      2759  TIP3      OH2           -25.3883737735       14.7777142710      -32.5570515384  TIP3      2663            0.0000000000
     19148      2759  TIP3      H1            -24.7661074364       14.8702548298      -31.8001101679  TIP3      2663            0.0000000000
     19149      2759  TIP3      H2            -25.1810926438       13.8755057411      -32.8539330446  TIP3      2663            0.0000000000
     19150      2760  TIP3      OH2           -24.3916865164       15.8693534226      -37.1101791948  TIP3      2664            0.0000000000
     19151      2760  TIP3      H1            -23.6601283715       16.3837960404      -37.4934990497  TIP3      2664            0.0000000000
     19152      2760  TIP3      H2            -25.1067725191       16.1730924288      -37.7127603952  TIP3      2664            0.0000000000
     19153      2761  TIP3      OH2           -14.4173969084       19.7485690763      -27.6984784520  TIP3      2665            0.0000000000
     19154      2761  TIP3      H1            -13.8623865753       19.0070977606      -28.0274624664  TIP3      2665            0.0000000000
     19155      2761  TIP3      H2            -15.0710476117       19.2408144128      -27.1560439790  TIP3      2665            0.0000000000
     19156      2762  TIP3      OH2           -17.3707630505       15.6263419521      -32.2752909164  TIP3      2666            0.0000000000
     19157      2762  TIP3      H1            -18.3373351894       15.6141098956      -32.0755741589  TIP3      2666            0.0000000000
     19158      2762  TIP3      H2            -16.9848873182       15.4200980010      -31.4064555558  TIP3      2666            0.0000000000
     19159      2763  TIP3      OH2           -22.9762287676       17.2842327489      -33.5218513383  TIP3      2667            0.0000000000
     19160      2763  TIP3      H1            -23.7418238224       17.2755546762      -34.1151557691  TIP3      2667            0.0000000000
     19161      2763  TIP3      H2            -22.6789512028       16.3491503449      -33.5888947346  TIP3      2667            0.0000000000
     19162      2764  TIP3      OH2           -19.5201664175       17.6270281623      -35.6338174109  TIP3      2668            0.0000000000
     19163      2764  TIP3      H1            -18.5689257794       17.7799984053      -35.6656179318  TIP3      2668            0.0000000000
     19164      2764  TIP3      H2            -19.8603972804       18.2030670654      -36.3578386444  TIP3      2668            0.0000000000
     19165      2765  TIP3      OH2           -13.4622343020       15.1056038340      -29.1900912214  TIP3      2669            0.0000000000
     19166      2765  TIP3      H1            -13.8717815755       15.0679751755      -28.2917808526  TIP3      2669            0.0000000000
     19167      2765  TIP3      H2            -14.1962986641       14.7387937922      -29.7066194272  TIP3      2669            0.0000000000
     19168      2766  TIP3      OH2           -20.5224558820       18.6341359594      -38.0070993529  TIP3      2670            0.0000000000
     19169      2766  TIP3      H1            -20.8641225548       18.5032464377      -38.9080686904  TIP3      2670            0.0000000000
     19170      2766  TIP3      H2            -19.6233064101       18.9687162335      -38.1566612373  TIP3      2670            0.0000000000
     19171      2767  TIP3      OH2           -21.7241992253       22.8298948591      -23.4616650768  TIP3      2671            0.0000000000
     19172      2767  TIP3      H1            -21.3816784924       23.6911055548      -23.7929027136  TIP3      2671            0.0000000000
     19173      2767  TIP3      H2            -22.5947234176       23.0985461712      -23.0928535121  TIP3      2671            0.0000000000
     19174      2768  TIP3      OH2           -16.9067732894       18.8715666903      -30.5822903095  TIP3      2672            0.0000000000
     19175      2768  TIP3      H1            -16.0437592174       18.5905867457      -30.9404475623  TIP3      2672            0.0000000000
     19176      2768  TIP3      H2            -17.0151286100       18.2079082680      -29.8834770652  TIP3      2672            0.0000000000
     19177      2769  TIP3      OH2           -21.9415839469       14.6328844536      -33.6894029898  TIP3      2673            0.0000000000
     19178      2769  TIP3      H1            -22.2525964587       13.8130939946      -33.2269053256  TIP3      2673            0.0000000000
     19179      2769  TIP3      H2            -21.4519833505       14.2528812586      -34.4362035266  TIP3      2673            0.0000000000
     19180      2770  TIP3      OH2           -17.7649934754       16.9760924121      -28.0778933858  TIP3      2674            0.0000000000
     19181      2770  TIP3      H1            -18.5622379930       17.5435938341      -28.1195448219  TIP3      2674            0.0000000000
     19182      2770  TIP3      H2            -17.1802073288       17.4604976642      -27.4671164533  TIP3      2674            0.0000000000
     19183      2771  TIP3      OH2           -16.9364756075       23.0316564702      -36.0644262645  TIP3      2675            0.0000000000
     19184      2771  TIP3      H1            -17.7394680881       22.5016828961      -36.2743024763  TIP3      2675            0.0000000000
     19185      2771  TIP3      H2            -17.2110503791       23.4600857730      -35.2238236055  TIP3      2675            0.0000000000
     19186      2772  TIP3      OH2            -9.9533558057       22.4073724223      -27.5480856061  TIP3      2676            0.0000000000
     19187      2772  TIP3      H1             -9.6592342655       23.2805303502      -27.8711551299  TIP3      2676            0.0000000000
     19188      2772  TIP3      H2            -10.7851986000       22.3135961092      -28.0340769840  TIP3      2676            0.0000000000
     19189      2773  TIP3      OH2           -13.0704959552       15.6850366415      -38.1762489510  TIP3      2677            0.0000000000
     19190      2773  TIP3      H1            -14.0316518052       15.7633398355      -38.3801325950  TIP3      2677            0.0000000000
     19191      2773  TIP3      H2            -12.8840014139       16.5434873006      -37.7550542227  TIP3      2677            0.0000000000
     19192      2774  TIP3      OH2           -16.2253191849       23.8572943277      -24.8074680473  TIP3      2678            0.0000000000
     19193      2774  TIP3      H1            -15.9685772635       23.0739150495      -24.2992352347  TIP3      2678            0.0000000000
     19194      2774  TIP3      H2            -15.3881088799       24.3823177939      -24.7939319960  TIP3      2678            0.0000000000
     19195      2775  TIP3      OH2           -12.4071617321       17.5929076584      -36.1538523400  TIP3      2679            0.0000000000
     19196      2775  TIP3      H1            -11.5827121957       17.9786315386      -35.8156758908  TIP3      2679            0.0000000000
     19197      2775  TIP3      H2            -12.6563206435       18.3048757028      -36.7793815030  TIP3      2679            0.0000000000
     19198      2776  TIP3      OH2           -21.6308438464       22.5623997256      -30.5763994111  TIP3      2680            0.0000000000
     19199      2776  TIP3      H1            -21.6763837509       22.1486273173      -31.4497545338  TIP3      2680            0.0000000000
     19200      2776  TIP3      H2            -21.6986345321       21.7784075424      -29.9958243217  TIP3      2680            0.0000000000
     19201      2777  TIP3      OH2           -14.8816489712       24.6928808564      -37.2249306535  TIP3      2681            0.0000000000
     19202      2777  TIP3      H1            -15.1192052863       24.8101771440      -38.1534684437  TIP3      2681            0.0000000000
     19203      2777  TIP3      H2            -15.5888995166       24.0995983402      -36.9144008074  TIP3      2681            0.0000000000
     19204      2778  TIP3      OH2           -24.3575670053       20.9525264343      -25.4663191974  TIP3      2682            0.0000000000
     19205      2778  TIP3      H1            -25.1409019311       20.8457779462      -24.9022280486  TIP3      2682            0.0000000000
     19206      2778  TIP3      H2            -24.4470576084       20.2260774012      -26.1038286701  TIP3      2682            0.0000000000
     19207      2779  TIP3      OH2           -13.8649056003       25.1359439119      -24.8582385952  TIP3      2683            0.0000000000
     19208      2779  TIP3      H1            -13.6520553975       25.9003625073      -25.4217462123  TIP3      2683            0.0000000000
     19209      2779  TIP3      H2            -13.5546599668       25.4974100618      -24.0061459317  TIP3      2683            0.0000000000
     19210      2780  TIP3      OH2            -7.6799523015       17.7513539347      -36.7159317742  TIP3      2684            0.0000000000
     19211      2780  TIP3      H1             -8.4196719497       17.8496727083      -37.3581129932  TIP3      2684            0.0000000000
     19212      2780  TIP3      H2             -7.2750145867       18.6396886354      -36.8023386353  TIP3      2684            0.0000000000
     19213      2781  TIP3      OH2           -12.2812149307       21.5806302154      -29.6912280237  TIP3      2685            0.0000000000
     19214      2781  TIP3      H1            -13.2192516111       21.3470682787      -29.8210998733  TIP3      2685            0.0000000000
     19215      2781  TIP3      H2            -11.8792517390       20.7147967099      -29.9394556518  TIP3      2685            0.0000000000
     19216      2782  TIP3      OH2           -20.3135691225      -26.2559024977      -32.8598840818  TIP3      2686            0.0000000000
     19217      2782  TIP3      H1            -19.6465004699      -25.5445476660      -32.9189388971  TIP3      2686            0.0000000000
     19218      2782  TIP3      H2            -21.0080109706      -25.8865122675      -33.4250109448  TIP3      2686            0.0000000000
     19219      2783  TIP3      OH2           -24.0568188019       20.7768531038      -37.9776055019  TIP3      2687            0.0000000000
     19220      2783  TIP3      H1            -23.3516198142       21.4513831704      -37.9829394848  TIP3      2687            0.0000000000
     19221      2783  TIP3      H2            -24.6798575639       21.1099376643      -38.6435076785  TIP3      2687            0.0000000000
     19222      2784  TIP3      OH2           -18.3060645127       24.0973087296      -33.7395740719  TIP3      2688            0.0000000000
     19223      2784  TIP3      H1            -19.0719294122       24.7023123426      -33.6796087677  TIP3      2688            0.0000000000
     19224      2784  TIP3      H2            -18.7089019625       23.2828110258      -33.3899804002  TIP3      2688            0.0000000000
     19225      2785  TIP3      OH2           -14.9353569998       23.7663955872      -27.6858003727  TIP3      2689            0.0000000000
     19226      2785  TIP3      H1            -15.0914176308       23.7653709919      -26.7289706299  TIP3      2689            0.0000000000
     19227      2785  TIP3      H2            -14.1969562013       23.1472106739      -27.7913095523  TIP3      2689            0.0000000000
     19228      2786  TIP3      OH2           -12.0244996223       24.5077601313      -39.1553918211  TIP3      2690            0.0000000000
     19229      2786  TIP3      H1            -11.5185452402       25.3320441439      -39.0905854090  TIP3      2690            0.0000000000
     19230      2786  TIP3      H2            -12.4586457841       24.4989520177      -38.2816766738  TIP3      2690            0.0000000000
     19231      2787  TIP3      OH2           -23.1532744136       15.6848036020      -25.7388840213  TIP3      2691            0.0000000000
     19232      2787  TIP3      H1            -24.0414506677       15.8327660821      -25.3670937917  TIP3      2691            0.0000000000
     19233      2787  TIP3      H2            -22.9571911127       14.8320748133      -25.3134995060  TIP3      2691            0.0000000000
     19234      2788  TIP3      OH2           -11.2486035189       23.1959666753      -35.7183262790  TIP3      2692            0.0000000000
     19235      2788  TIP3      H1            -11.2978934309       22.2399399807      -35.5048414442  TIP3      2692            0.0000000000
     19236      2788  TIP3      H2            -10.3070145482       23.3282036898      -35.9154024165  TIP3      2692            0.0000000000
     19237      2789  TIP3      OH2           -18.4600331154       25.6765533545      -37.3483684313  TIP3      2693            0.0000000000
     19238      2789  TIP3      H1            -18.2236885010       24.9324372512      -36.7808498467  TIP3      2693            0.0000000000
     19239      2789  TIP3      H2            -18.0554680724       26.4379676386      -36.9149043050  TIP3      2693            0.0000000000
     19240      2790  TIP3      OH2           -22.3523388204       22.9173049637      -37.4816424084  TIP3      2694            0.0000000000
     19241      2790  TIP3      H1            -23.0208341138       23.3338865230      -36.8945965286  TIP3      2694            0.0000000000
     19242      2790  TIP3      H2            -21.8443400066       23.6828562527      -37.7955840185  TIP3      2694            0.0000000000
     19243      2791  TIP3      OH2           -14.4183193194       15.3824791810      -26.6351757055  TIP3      2695            0.0000000000
     19244      2791  TIP3      H1            -13.5830318787       15.4515820500      -26.1385407082  TIP3      2695            0.0000000000
     19245      2791  TIP3      H2            -14.9533300605       14.8457399067      -26.0214251991  TIP3      2695            0.0000000000
     19246      2792  TIP3      OH2           -14.1183843674       14.9582504155      -35.5399711175  TIP3      2696            0.0000000000
     19247      2792  TIP3      H1            -13.7679198893       15.1237047944      -36.4360746338  TIP3      2696            0.0000000000
     19248      2792  TIP3      H2            -14.8365468374       15.6117797759      -35.4899935475  TIP3      2696            0.0000000000
     19249      2793  TIP3      OH2           -16.4061663029       16.7531244957      -34.5938317853  TIP3      2697            0.0000000000
     19250      2793  TIP3      H1            -16.0212128718       17.6452843556      -34.4468714040  TIP3      2697            0.0000000000
     19251      2793  TIP3      H2            -16.6928369045       16.4800472669      -33.6890821571  TIP3      2697            0.0000000000
     19252      2794  TIP3      OH2           -15.7201732706       18.0578612245      -26.1480601442  TIP3      2698            0.0000000000
     19253      2794  TIP3      H1            -15.9760046809       18.4670220500      -25.2820552272  TIP3      2698            0.0000000000
     19254      2794  TIP3      H2            -15.5561304760       17.1318782186      -25.9197301706  TIP3      2698            0.0000000000
     19255      2795  TIP3      OH2           -16.0555701016       13.4937300159      -33.9230436108  TIP3      2699            0.0000000000
     19256      2795  TIP3      H1            -16.4196734784       14.2773365333      -33.4621759997  TIP3      2699            0.0000000000
     19257      2795  TIP3      H2            -15.2356611599       13.8564413207      -34.3053045715  TIP3      2699            0.0000000000
     19258      2796  TIP3      OH2           -20.3361779967       14.7507612864      -36.9360284212  TIP3      2700            0.0000000000
     19259      2796  TIP3      H1            -20.3041016326       15.5522103797      -36.3921056715  TIP3      2700            0.0000000000
     19260      2796  TIP3      H2            -19.5249931670       14.2970980377      -36.6466029138  TIP3      2700            0.0000000000
     19261      2797  TIP3      OH2            -9.9208274255       15.4044612419      -24.9081368083  TIP3      2701            0.0000000000
     19262      2797  TIP3      H1            -10.8254244065       15.3060080752      -25.2409784311  TIP3      2701            0.0000000000
     19263      2797  TIP3      H2             -9.4512317813       15.7994054942      -25.6718037716  TIP3      2701            0.0000000000
     19264      2798  TIP3      OH2           -11.2755703060       19.2517976711      -30.5685062033  TIP3      2702            0.0000000000
     19265      2798  TIP3      H1            -12.0861756786       18.7513615023      -30.3508431593  TIP3      2702            0.0000000000
     19266      2798  TIP3      H2            -10.5848035897       18.7104123109      -30.1280513490  TIP3      2702            0.0000000000
     19267      2799  TIP3      OH2           -21.5158297617       25.5203506308      -38.4485460848  TIP3      2703            0.0000000000
     19268      2799  TIP3      H1            -21.2597866635       26.0116525294      -37.6520934456  TIP3      2703            0.0000000000
     19269      2799  TIP3      H2            -20.7333942596       24.9674146574      -38.6346909822  TIP3      2703            0.0000000000
     19270      2800  TIP3      OH2           -23.1507506490       18.0630117389      -38.4724095342  TIP3      2704            0.0000000000
     19271      2800  TIP3      H1            -22.7103055443       18.8133877955      -38.0335067353  TIP3      2704            0.0000000000
     19272      2800  TIP3      H2            -24.0883505467       18.3460075994      -38.4704180034  TIP3      2704            0.0000000000
     19273      2801  TIP3      OH2           -22.8695993355       12.6969313125      -30.0371495170  TIP3      2705            0.0000000000
     19274      2801  TIP3      H1            -22.8377509850       12.3636737387      -30.9672659438  TIP3      2705            0.0000000000
     19275      2801  TIP3      H2            -23.0882953423       11.8478520492      -29.5938244329  TIP3      2705            0.0000000000
     19276      2802  TIP3      OH2           -24.1571529077       23.3994318811      -22.5220910584  TIP3      2706            0.0000000000
     19277      2802  TIP3      H1            -24.2376142460       22.4468290301      -22.2983791828  TIP3      2706            0.0000000000
     19278      2802  TIP3      H2            -24.9671322620       23.5827094987      -23.0107918850  TIP3      2706            0.0000000000
     19279      2803  TIP3      OH2           -19.7194707973       23.4408022561      -38.8751777247  TIP3      2707            0.0000000000
     19280      2803  TIP3      H1            -19.6408814111       22.7197826223      -38.2056206740  TIP3      2707            0.0000000000
     19281      2803  TIP3      H2            -18.9000419328       23.2890367429      -39.3540160585  TIP3      2707            0.0000000000
     19282      2804  TIP3      OH2           -23.9480006866       20.6037566068      -22.2718430559  TIP3      2708            0.0000000000
     19283      2804  TIP3      H1            -24.1654857915       19.6965985415      -22.5338475187  TIP3      2708            0.0000000000
     19284      2804  TIP3      H2            -22.9907535975       20.4943226115      -22.1396870874  TIP3      2708            0.0000000000
     19285      2805  TIP3      OH2           -18.9638983362       21.5805663947      -37.0738132772  TIP3      2709            0.0000000000
     19286      2805  TIP3      H1            -19.6864846991       21.1890748648      -36.5435621045  TIP3      2709            0.0000000000
     19287      2805  TIP3      H2            -18.5471325209       20.7645713202      -37.4418208374  TIP3      2709            0.0000000000
     19288      2806  TIP3      OH2           -20.2548186744       19.4902179462      -25.6472023918  TIP3      2710            0.0000000000
     19289      2806  TIP3      H1            -20.6443430958       20.3478388804      -25.9050189230  TIP3      2710            0.0000000000
     19290      2806  TIP3      H2            -19.3712919258       19.5609955510      -26.0710786631  TIP3      2710            0.0000000000
     19291      2807  TIP3      OH2           -17.7132493907       19.4878379363      -38.1850187524  TIP3      2711            0.0000000000
     19292      2807  TIP3      H1            -17.8839823124       19.3969736568      -39.1490113231  TIP3      2711            0.0000000000
     19293      2807  TIP3      H2            -16.7288164611       19.5069548464      -38.2131186213  TIP3      2711            0.0000000000
     19294      2808  TIP3      OH2            -9.3686960183       22.1021399623      -38.6901848971  TIP3      2712            0.0000000000
     19295      2808  TIP3      H1             -8.5855812407       21.8694887986      -39.2263457867  TIP3      2712            0.0000000000
     19296      2808  TIP3      H2             -9.0097899636       22.8592818777      -38.1786309781  TIP3      2712            0.0000000000
     19297      2809  TIP3      OH2           -19.5984862623       17.2270018634      -24.2367718235  TIP3      2713            0.0000000000
     19298      2809  TIP3      H1            -19.3963232047       16.6035518923      -24.9512888625  TIP3      2713            0.0000000000
     19299      2809  TIP3      H2            -19.9453871421       18.0128174558      -24.7016010367  TIP3      2713            0.0000000000
     19300      2810  TIP3      OH2           -18.6100745156       14.9264653428      -26.4489549385  TIP3      2714            0.0000000000
     19301      2810  TIP3      H1            -18.1525223425       15.5393569628      -27.0614101714  TIP3      2714            0.0000000000
     19302      2810  TIP3      H2            -19.5234721696       14.9700922872      -26.7965039644  TIP3      2714            0.0000000000
     19303      2811  TIP3      OH2           -17.6336113740       20.7953593504      -26.4676383677  TIP3      2715            0.0000000000
     19304      2811  TIP3      H1            -16.7686554717       21.1760559693      -26.6508803505  TIP3      2715            0.0000000000
     19305      2811  TIP3      H2            -18.2263585823       21.5729093555      -26.5728314616  TIP3      2715            0.0000000000
     19306      2812  TIP3      OH2           -21.9823040716       17.8049657307      -22.4148266556  TIP3      2716            0.0000000000
     19307      2812  TIP3      H1            -21.8415130159       17.3464450584      -21.5651635904  TIP3      2716            0.0000000000
     19308      2812  TIP3      H2            -21.0785376495       17.7710864088      -22.7774600551  TIP3      2716            0.0000000000
     19309      2813  TIP3      OH2           -18.0691070876       12.3796582435      -26.3421690956  TIP3      2717            0.0000000000
     19310      2813  TIP3      H1            -18.2590681686       13.3438960407      -26.3632264941  TIP3      2717            0.0000000000
     19311      2813  TIP3      H2            -18.8421560214       12.0494569002      -26.8278242869  TIP3      2717            0.0000000000
     19312      2814  TIP3      OH2           -18.1493783100       11.5816195775      -23.6618052969  TIP3      2718            0.0000000000
     19313      2814  TIP3      H1            -17.2692331483       11.1882412591      -23.5262628293  TIP3      2718            0.0000000000
     19314      2814  TIP3      H2            -18.1002825142       11.7196192828      -24.6319341104  TIP3      2718            0.0000000000
     19315      2815  TIP3      OH2           -24.0845186079       25.0589925011      -39.4023929689  TIP3      2719            0.0000000000
     19316      2815  TIP3      H1            -23.2399459387       24.6846729403      -39.1035076547  TIP3      2719            0.0000000000
     19317      2815  TIP3      H2            -24.6051607053       24.2785666577      -39.6612706731  TIP3      2719            0.0000000000
     19318      2816  TIP3      OH2            -7.9817013513       22.6948284285      -35.9424167096  TIP3      2720            0.0000000000
     19319      2816  TIP3      H1             -7.2168755564       23.2461326812      -35.6631418633  TIP3      2720            0.0000000000
     19320      2816  TIP3      H2             -8.0381971941       22.0918275179      -35.1705346628  TIP3      2720            0.0000000000
     19321      2817  TIP3      OH2            -7.6482816199       20.9138109120      -33.9308472590  TIP3      2721            0.0000000000
     19322      2817  TIP3      H1             -8.4385669974       20.6236614340      -33.4219701446  TIP3      2721            0.0000000000
     19323      2817  TIP3      H2             -7.0582216644       21.1956783465      -33.2002354136  TIP3      2721            0.0000000000
     19324      2818  TIP3      OH2            -8.6675182826       24.4145418161      -29.1840596589  TIP3      2722            0.0000000000
     19325      2818  TIP3      H1             -7.9894424830       23.7255617184      -29.2396657800  TIP3      2722            0.0000000000
     19326      2818  TIP3      H2             -8.1603805440       25.2080732834      -28.9382642157  TIP3      2722            0.0000000000
     19327      2819  TIP3      OH2            -7.4435142683       20.3780527617      -37.5127168402  TIP3      2723            0.0000000000
     19328      2819  TIP3      H1             -8.3873384836       20.4929840518      -37.7146399133  TIP3      2723            0.0000000000
     19329      2819  TIP3      H2             -7.3038367535       21.1774394199      -36.9607198773  TIP3      2723            0.0000000000
     19330      2820  TIP3      OH2            -9.8269216924       18.0146579960      -38.3871911729  TIP3      2724            0.0000000000
     19331      2820  TIP3      H1             -9.6238472335       18.4763296742      -39.2301149763  TIP3      2724            0.0000000000
     19332      2820  TIP3      H2             -9.7907014589       17.0786117612      -38.6665791115  TIP3      2724            0.0000000000
     19333      2821  TIP3      OH2            -9.7901506365       20.0118028161      -32.6524185239  TIP3      2725            0.0000000000
     19334      2821  TIP3      H1            -10.0428974109       19.1773907596      -33.0686350555  TIP3      2725            0.0000000000
     19335      2821  TIP3      H2            -10.2797262931       19.9452409505      -31.8001555553  TIP3      2725            0.0000000000
     19336      2822  TIP3      OH2           -24.2760607203       22.2606742588      -29.5993586978  TIP3      2726            0.0000000000
     19337      2822  TIP3      H1            -23.8169953125       22.0613523542      -30.4540972184  TIP3      2726            0.0000000000
     19338      2822  TIP3      H2            -23.8627633750       21.5907879770      -29.0165207115  TIP3      2726            0.0000000000
     19339      2823  TIP3      OH2            -9.3057473068       21.3492319111      -24.4684291522  TIP3      2727            0.0000000000
     19340      2823  TIP3      H1             -8.6403632758       20.8596400515      -23.9442399691  TIP3      2727            0.0000000000
     19341      2823  TIP3      H2             -9.5637506468       22.0508644068      -23.8417509266  TIP3      2727            0.0000000000
     19342      2824  TIP3      OH2            -7.8246602341       19.2759805846      -22.9686054245  TIP3      2728            0.0000000000
     19343      2824  TIP3      H1             -8.7001576223       18.8749120228      -23.1639913205  TIP3      2728            0.0000000000
     19344      2824  TIP3      H2             -7.2153257109       18.5292211674      -23.0157265789  TIP3      2728            0.0000000000
     19345      2825  TIP3      OH2            -9.7824714956       15.1999368428      -39.1738410366  TIP3      2729            0.0000000000
     19346      2825  TIP3      H1             -9.2617854538       14.5162041616      -38.7034501118  TIP3      2729            0.0000000000
     19347      2825  TIP3      H2            -10.6881145082       15.0705963929      -38.8421868179  TIP3      2729            0.0000000000
     19348      2826  TIP3      OH2            -9.7218598835       17.2441256574      -34.8432855390  TIP3      2730            0.0000000000
     19349      2826  TIP3      H1            -10.1525253885       16.4760147098      -35.2611249076  TIP3      2730            0.0000000000
     19350      2826  TIP3      H2             -9.0490238877       17.4703848586      -35.5181662694  TIP3      2730            0.0000000000
     19351      2827  TIP3      OH2            -9.5708287477       17.6699914867      -29.2105629036  TIP3      2731            0.0000000000
     19352      2827  TIP3      H1             -8.5925273233       17.7208623271      -29.3687413789  TIP3      2731            0.0000000000
     19353      2827  TIP3      H2             -9.6255548695       17.9154208613      -28.2540146837  TIP3      2731            0.0000000000
     19354      2828  TIP3      OH2            -9.4217961959       18.7027531845      -26.7496963533  TIP3      2732            0.0000000000
     19355      2828  TIP3      H1            -10.2246674416       18.9401576956      -26.2215186680  TIP3      2732            0.0000000000
     19356      2828  TIP3      H2             -9.0836551400       19.5800100716      -26.9892489105  TIP3      2732            0.0000000000
     19357      2829  TIP3      OH2           -24.9733751812       17.0776549484      -22.7249634368  TIP3      2733            0.0000000000
     19358      2829  TIP3      H1            -24.0538821861       17.1430335618      -22.4011521316  TIP3      2733            0.0000000000
     19359      2829  TIP3      H2            -25.2632323856       16.2380214608      -22.3459898123  TIP3      2733            0.0000000000
     19360      2830  TIP3      OH2           -10.1348319413       14.3049226281      -34.4770580939  TIP3      2734            0.0000000000
     19361      2830  TIP3      H1             -9.4245521177       13.7636340288      -34.0828082841  TIP3      2734            0.0000000000
     19362      2830  TIP3      H2            -10.4512708273       13.7230567566      -35.2080227842  TIP3      2734            0.0000000000
     19363      2831  TIP3      OH2           -23.7589693051       15.0515955087      -30.5784232634  TIP3      2735            0.0000000000
     19364      2831  TIP3      H1            -23.3912961179       14.2132434190      -30.2188933175  TIP3      2735            0.0000000000
     19365      2831  TIP3      H2            -23.7934136360       15.6234268877      -29.8078271748  TIP3      2735            0.0000000000
     19366      2832  TIP3      OH2           -25.2548388315       18.1482840321      -29.2876357889  TIP3      2736            0.0000000000
     19367      2832  TIP3      H1            -24.7034607217       18.0191154886      -30.0840322840  TIP3      2736            0.0000000000
     19368      2832  TIP3      H2            -24.7305345608       18.8415278342      -28.8642451639  TIP3      2736            0.0000000000
     19369      2833  TIP3      OH2            -8.0096765091       14.3767406146      -22.6957708356  TIP3      2737            0.0000000000
     19370      2833  TIP3      H1             -8.7861680792       14.6209098343      -22.1400483087  TIP3      2737            0.0000000000
     19371      2833  TIP3      H2             -8.4165801497       14.3847474964      -23.5863492101  TIP3      2737            0.0000000000
     19372      2834  TIP3      OH2            -7.3698015767       13.8211808977      -38.3007021402  TIP3      2738            0.0000000000
     19373      2834  TIP3      H1             -6.9936374230       13.5679030263      -39.1729567252  TIP3      2738            0.0000000000
     19374      2834  TIP3      H2             -6.7980428527       14.5925950599      -38.0682986680  TIP3      2738            0.0000000000
     19375      2835  TIP3      OH2           -25.5895238238       13.8478566755      -35.3704222762  TIP3      2739            0.0000000000
     19376      2835  TIP3      H1            -26.4925666285       14.1595688858      -35.1393943416  TIP3      2739            0.0000000000
     19377      2835  TIP3      H2            -25.2699227280       14.6352164850      -35.8565104301  TIP3      2739            0.0000000000
     19378      2836  TIP3      OH2           -25.2372521251       12.6840916468      -26.8053627483  TIP3      2740            0.0000000000
     19379      2836  TIP3      H1            -25.3654998737       13.4405435570      -26.2105812803  TIP3      2740            0.0000000000
     19380      2836  TIP3      H2            -25.4411830883       13.0908697221      -27.6695941132  TIP3      2740            0.0000000000
     19381      2837  TIP3      OH2            -8.9573606312       12.2803498109      -25.4804104529  TIP3      2741            0.0000000000
     19382      2837  TIP3      H1             -9.8801762711       12.4169225663      -25.7580499744  TIP3      2741            0.0000000000
     19383      2837  TIP3      H2             -8.7844785443       11.3724958132      -25.8005239221  TIP3      2741            0.0000000000
     19384      2838  TIP3      OH2           -15.9051338438       13.8818825117      -30.4557592128  TIP3      2742            0.0000000000
     19385      2838  TIP3      H1            -16.6687353290       13.2691185827      -30.3944185186  TIP3      2742            0.0000000000
     19386      2838  TIP3      H2            -15.3650475531       13.4446007870      -31.1305131405  TIP3      2742            0.0000000000
     19387      2839  TIP3      OH2           -10.2859153686       12.0511920216      -31.1797442076  TIP3      2743            0.0000000000
     19388      2839  TIP3      H1             -9.5438318395       12.5441308499      -31.5993033593  TIP3      2743            0.0000000000
     19389      2839  TIP3      H2            -11.0368846988       12.4512713107      -31.6668164135  TIP3      2743            0.0000000000
     19390      2840  TIP3      OH2            -8.4705429582       13.0784038359      -32.7811620846  TIP3      2744            0.0000000000
     19391      2840  TIP3      H1             -7.9385650805       12.3757910751      -33.2351221552  TIP3      2744            0.0000000000
     19392      2840  TIP3      H2             -7.8101429624       13.8007403790      -32.6724820026  TIP3      2744            0.0000000000
     19393      2841  TIP3      OH2           -22.7327117295       12.2180042391      -32.7048234608  TIP3      2745            0.0000000000
     19394      2841  TIP3      H1            -23.6434961262       12.2067121559      -33.0922839563  TIP3      2745            0.0000000000
     19395      2841  TIP3      H2            -22.4221465324       11.2942761662      -32.8637607153  TIP3      2745            0.0000000000
     19396      2842  TIP3      OH2           -23.8609733893       12.2855162476      -36.6821560960  TIP3      2746            0.0000000000
     19397      2842  TIP3      H1            -23.5671660778       12.9433385692      -37.3559276706  TIP3      2746            0.0000000000
     19398      2842  TIP3      H2            -24.5025137843       12.8208175826      -36.1724469948  TIP3      2746            0.0000000000
     19399      2843  TIP3      OH2           -18.9708081679       12.4582016267      -33.2079770924  TIP3      2747            0.0000000000
     19400      2843  TIP3      H1            -18.0105021741       12.3597763942      -33.2561161402  TIP3      2747            0.0000000000
     19401      2843  TIP3      H2            -19.1018523770       12.8216293037      -32.3251220893  TIP3      2747            0.0000000000
     19402      2844  TIP3      OH2           -12.7338205976       12.7496832304      -32.5922896910  TIP3      2748            0.0000000000
     19403      2844  TIP3      H1            -13.1638244992       12.5051120246      -33.4259668844  TIP3      2748            0.0000000000
     19404      2844  TIP3      H2            -13.1105197515       12.0484345745      -32.0076571160  TIP3      2748            0.0000000000
     19405      2845  TIP3      OH2           -11.4709858077       12.7463146817      -36.2777095618  TIP3      2749            0.0000000000
     19406      2845  TIP3      H1            -12.3089370748       13.2260984665      -36.3956361770  TIP3      2749            0.0000000000
     19407      2845  TIP3      H2            -11.7656914373       12.0057769316      -35.7082528087  TIP3      2749            0.0000000000
     19408      2846  TIP3      OH2           -22.6322800367       13.6997660227      -38.5159884968  TIP3      2750            0.0000000000
     19409      2846  TIP3      H1            -21.7299519918       13.4827251827      -38.7631727654  TIP3      2750            0.0000000000
     19410      2846  TIP3      H2            -22.4979959228       14.4316657774      -37.8937084331  TIP3      2750            0.0000000000
     19411      2847  TIP3      OH2           -17.1525310963       14.6755488423      -36.2786216488  TIP3      2751            0.0000000000
     19412      2847  TIP3      H1            -16.7809819189       14.0539460489      -35.6263099695  TIP3      2751            0.0000000000
     19413      2847  TIP3      H2            -17.1015925544       15.5200295498      -35.7915405125  TIP3      2751            0.0000000000
     19414      2848  TIP3      OH2           -23.4601678065       13.2506384126      -24.0888994806  TIP3      2752            0.0000000000
     19415      2848  TIP3      H1            -23.6111494260       12.3766123941      -23.6499616185  TIP3      2752            0.0000000000
     19416      2848  TIP3      H2            -22.8722979725       13.6562106716      -23.4340086836  TIP3      2752            0.0000000000
     19417      2849  TIP3      OH2           -20.6856300913       12.9765116194      -21.8019012610  TIP3      2753            0.0000000000
     19418      2849  TIP3      H1            -20.1277530188       12.4956217986      -22.4408462320  TIP3      2753            0.0000000000
     19419      2849  TIP3      H2            -21.1116208899       12.2519720669      -21.3218255641  TIP3      2753            0.0000000000
     19420      2850  TIP3      OH2           -12.6037973756       11.4167920285      -21.3536988801  TIP3      2754            0.0000000000
     19421      2850  TIP3      H1            -12.6762672010       12.1098233641      -20.6585544306  TIP3      2754            0.0000000000
     19422      2850  TIP3      H2            -11.8127229721       11.6857632068      -21.8454641260  TIP3      2754            0.0000000000
     19423      2851  TIP3      OH2             5.0858878215       22.1234286113      -33.2616867381  TIP3      2755            0.0000000000
     19424      2851  TIP3      H1              4.9443291940       23.0829939708      -33.2004098499  TIP3      2755            0.0000000000
     19425      2851  TIP3      H2              4.3798111737       21.8640769592      -33.8798482466  TIP3      2755            0.0000000000
     19426      2852  TIP3      OH2             3.6907523220       21.0757989553      -29.7616929182  TIP3      2756            0.0000000000
     19427      2852  TIP3      H1              3.7934912969       20.6355897189      -28.8863641622  TIP3      2756            0.0000000000
     19428      2852  TIP3      H2              3.1530932162       20.4257078110      -30.2762748623  TIP3      2756            0.0000000000
     19429      2853  TIP3      OH2             7.4995138812       23.9810748346      -31.2898341149  TIP3      2757            0.0000000000
     19430      2853  TIP3      H1              7.3553426816       23.1932716515      -30.7397331860  TIP3      2757            0.0000000000
     19431      2853  TIP3      H2              8.0230017123       24.5455008888      -30.7018716044  TIP3      2757            0.0000000000
     19432      2854  TIP3      OH2            -2.7623400355       24.6784178087      -28.9352231391  TIP3      2758            0.0000000000
     19433      2854  TIP3      H1             -3.1849399879       23.8378750148      -29.2266718390  TIP3      2758            0.0000000000
     19434      2854  TIP3      H2             -1.9361411971       24.6708575356      -29.4742995414  TIP3      2758            0.0000000000
     19435      2855  TIP3      OH2            -6.1552520124       18.2660470630      -34.4542431595  TIP3      2759            0.0000000000
     19436      2855  TIP3      H1             -6.2826098996       19.2246127803      -34.3718500043  TIP3      2759            0.0000000000
     19437      2855  TIP3      H2             -6.9618593202       17.9852449192      -34.9183077296  TIP3      2759            0.0000000000
     19438      2856  TIP3      OH2            -5.8921485518       21.5975097413      -31.8663189871  TIP3      2760            0.0000000000
     19439      2856  TIP3      H1             -5.7802516849       20.6555026790      -31.6260364054  TIP3      2760            0.0000000000
     19440      2856  TIP3      H2             -5.0614209533       21.9530482527      -31.4925901501  TIP3      2760            0.0000000000
     19441      2857  TIP3      OH2             1.9649383932       23.1190623520      -29.1763788563  TIP3      2761            0.0000000000
     19442      2857  TIP3      H1              2.5934223844       22.4621810751      -29.5286064956  TIP3      2761            0.0000000000
     19443      2857  TIP3      H2              2.5418861798       23.6070381607      -28.5529699690  TIP3      2761            0.0000000000
     19444      2858  TIP3      OH2            10.5724686487       14.7839550233      -28.8396195576  TIP3      2762            0.0000000000
     19445      2858  TIP3      H1             10.6990784816       15.3832065173      -28.0699747747  TIP3      2762            0.0000000000
     19446      2858  TIP3      H2             11.3766863452       15.0160604794      -29.3280636121  TIP3      2762            0.0000000000
     19447      2859  TIP3      OH2             5.5499894851       18.0616944697      -28.6341721078  TIP3      2763            0.0000000000
     19448      2859  TIP3      H1              5.6042827678       17.1058445237      -28.4463019675  TIP3      2763            0.0000000000
     19449      2859  TIP3      H2              5.3184448200       17.9921908578      -29.5872937762  TIP3      2763            0.0000000000
     19450      2860  TIP3      OH2            -1.2493143717       15.3693943894      -32.2497516652  TIP3      2764            0.0000000000
     19451      2860  TIP3      H1             -1.3825240365       16.2932953987      -32.5463632662  TIP3      2764            0.0000000000
     19452      2860  TIP3      H2             -1.9593533828       14.9415450842      -32.7653833610  TIP3      2764            0.0000000000
     19453      2861  TIP3      OH2             5.9748493589       16.2331018883      -32.8595595019  TIP3      2765            0.0000000000
     19454      2861  TIP3      H1              6.5634986412       15.7724124646      -32.2270033721  TIP3      2765            0.0000000000
     19455      2861  TIP3      H2              6.6058848700       16.7326167825      -33.3973724703  TIP3      2765            0.0000000000
     19456      2862  TIP3      OH2            -5.3146074414       18.8500293884      -31.3157879616  TIP3      2766            0.0000000000
     19457      2862  TIP3      H1             -4.5814477226       18.6174136001      -30.7250447716  TIP3      2766            0.0000000000
     19458      2862  TIP3      H2             -5.0861069760       18.2695321512      -32.0692104099  TIP3      2766            0.0000000000
     19459      2863  TIP3      OH2            -0.1440091072       19.8832989440      -31.6677449093  TIP3      2767            0.0000000000
     19460      2863  TIP3      H1              0.7682114001       19.5536460552      -31.5208205235  TIP3      2767            0.0000000000
     19461      2863  TIP3      H2             -0.6036193867       19.0850494944      -31.9873331499  TIP3      2767            0.0000000000
     19462      2864  TIP3      OH2            10.9121348286       16.3432297075      -26.5539670429  TIP3      2768            0.0000000000
     19463      2864  TIP3      H1             10.5719211995       17.2072454935      -26.8873516257  TIP3      2768            0.0000000000
     19464      2864  TIP3      H2             10.5546665124       16.3466639207      -25.6334203249  TIP3      2768            0.0000000000
     19465      2865  TIP3      OH2            -2.6418518241       14.7660828642      -27.9837626149  TIP3      2769            0.0000000000
     19466      2865  TIP3      H1             -2.9707964092       15.2722912675      -28.7515602346  TIP3      2769            0.0000000000
     19467      2865  TIP3      H2             -3.0972859924       15.2775638303      -27.2712194921  TIP3      2769            0.0000000000
     19468      2866  TIP3      OH2             4.3144382679       24.7124246682      -34.4649952366  TIP3      2770            0.0000000000
     19469      2866  TIP3      H1              4.1791967963       24.4363129871      -35.3949911989  TIP3      2770            0.0000000000
     19470      2866  TIP3      H2              4.0103856322       25.6291691063      -34.4961140564  TIP3      2770            0.0000000000
     19471      2867  TIP3      OH2            -0.6484731681       22.1898652198      -27.8923327340  TIP3      2771            0.0000000000
     19472      2867  TIP3      H1             -1.1084744721       22.8836195829      -27.3799729142  TIP3      2771            0.0000000000
     19473      2867  TIP3      H2             -0.0674919698       22.7502413663      -28.4478626361  TIP3      2771            0.0000000000
     19474      2868  TIP3      OH2             8.2876954217       15.6393410263      -31.3605369476  TIP3      2772            0.0000000000
     19475      2868  TIP3      H1              8.8981370021       14.9126316459      -31.1845591304  TIP3      2772            0.0000000000
     19476      2868  TIP3      H2              8.6828369797       16.3658876368      -30.8284267602  TIP3      2772            0.0000000000
     19477      2869  TIP3      OH2            -3.1254273253       16.7294794436      -29.8399301736  TIP3      2773            0.0000000000
     19478      2869  TIP3      H1             -2.5447194921       17.3997069565      -29.4310537187  TIP3      2773            0.0000000000
     19479      2869  TIP3      H2             -2.6827429677       16.5702670248      -30.6865906971  TIP3      2773            0.0000000000
     19480      2870  TIP3      OH2            -1.6266911832       24.2991463867      -26.4760677137  TIP3      2774            0.0000000000
     19481      2870  TIP3      H1             -1.9465361440       24.6637499541      -27.3298610382  TIP3      2774            0.0000000000
     19482      2870  TIP3      H2             -2.4796454375       24.2682981067      -26.0294190611  TIP3      2774            0.0000000000
     19483      2871  TIP3      OH2            -5.6579826996       24.0661025588      -35.8978825572  TIP3      2775            0.0000000000
     19484      2871  TIP3      H1             -6.1817387710       24.1757730517      -36.7224434783  TIP3      2775            0.0000000000
     19485      2871  TIP3      H2             -5.1816169385       24.9180795281      -35.9770456941  TIP3      2775            0.0000000000
     19486      2872  TIP3      OH2             7.3818774690       25.1728394101      -28.2288553319  TIP3      2776            0.0000000000
     19487      2872  TIP3      H1              6.6814815943       25.3421401285      -28.8710666869  TIP3      2776            0.0000000000
     19488      2872  TIP3      H2              8.0582878343       25.8194079163      -28.4670826855  TIP3      2776            0.0000000000
     19489      2873  TIP3      OH2             7.8392336909       14.3219812065      -27.9209223789  TIP3      2777            0.0000000000
     19490      2873  TIP3      H1              7.2773484748       14.8737589317      -28.4927747586  TIP3      2777            0.0000000000
     19491      2873  TIP3      H2              8.7238309589       14.4999257070      -28.2902094323  TIP3      2777            0.0000000000
     19492      2874  TIP3      OH2             0.8085397338       12.0513865250      -29.8370790215  TIP3      2778            0.0000000000
     19493      2874  TIP3      H1              0.5107413855       11.2202248400      -30.2333373685  TIP3      2778            0.0000000000
     19494      2874  TIP3      H2             -0.0590307608       12.5184028760      -29.8038645124  TIP3      2778            0.0000000000
     19495      2875  TIP3      OH2             7.1348161559       25.4595836056      -34.2247108565  TIP3      2779            0.0000000000
     19496      2875  TIP3      H1              7.0982542567       24.7298464460      -34.8799553916  TIP3      2779            0.0000000000
     19497      2875  TIP3      H2              7.1852626383       24.9116725930      -33.4254920373  TIP3      2779            0.0000000000
     19498      2876  TIP3      OH2             8.9892104474       24.2538952082      -25.5030121466  TIP3      2780            0.0000000000
     19499      2876  TIP3      H1              9.1160272375       23.5165424216      -26.1383470575  TIP3      2780            0.0000000000
     19500      2876  TIP3      H2              8.2984330223       24.7379523831      -26.0072215738  TIP3      2780            0.0000000000
     19501      2877  TIP3      OH2             3.5067479932       20.9116505167      -35.7573565175  TIP3      2781            0.0000000000
     19502      2877  TIP3      H1              2.8847441063       21.4776548228      -36.2474360420  TIP3      2781            0.0000000000
     19503      2877  TIP3      H2              4.2879069140       20.8719047835      -36.3582045605  TIP3      2781            0.0000000000
     19504      2878  TIP3      OH2             3.7755272800       19.5758843313      -38.6306435950  TIP3      2782            0.0000000000
     19505      2878  TIP3      H1              4.6644809990       19.9413788451      -38.4480629435  TIP3      2782            0.0000000000
     19506      2878  TIP3      H2              3.9764949312       18.6439804731      -38.7945904961  TIP3      2782            0.0000000000
     19507      2879  TIP3      OH2            11.0442062776       20.5919342370      -27.8365945549  TIP3      2783            0.0000000000
     19508      2879  TIP3      H1             10.3089314549       21.2435123752      -27.7603730398  TIP3      2783            0.0000000000
     19509      2879  TIP3      H2             11.6464678696       21.0735239246      -28.4561257992  TIP3      2783            0.0000000000
     19510      2880  TIP3      OH2             6.9777957872       20.6038748420      -34.4627387567  TIP3      2784            0.0000000000
     19511      2880  TIP3      H1              6.3236761639       21.0678661033      -33.8843944148  TIP3      2784            0.0000000000
     19512      2880  TIP3      H2              7.7722605835       20.5591952434      -33.8808606600  TIP3      2784            0.0000000000
     19513      2881  TIP3      OH2             7.2723572614       19.5772976914      -25.7862838512  TIP3      2785            0.0000000000
     19514      2881  TIP3      H1              7.0807439682       20.4768866767      -25.4790044299  TIP3      2785            0.0000000000
     19515      2881  TIP3      H2              6.5002251858       19.4187439453      -26.3468745308  TIP3      2785            0.0000000000
     19516      2882  TIP3      OH2            -1.7414513118       21.5864573036      -33.0811140704  TIP3      2786            0.0000000000
     19517      2882  TIP3      H1             -1.7406746783       21.1756533640      -33.9679827578  TIP3      2786            0.0000000000
     19518      2882  TIP3      H2             -1.2292951861       20.9653217795      -32.5222794177  TIP3      2786            0.0000000000
     19519      2883  TIP3      OH2            -0.3574318924       24.3311610740      -30.2997352733  TIP3      2787            0.0000000000
     19520      2883  TIP3      H1             -0.3952181353       24.9229298295      -31.0804742082  TIP3      2787            0.0000000000
     19521      2883  TIP3      H2              0.5379408144       23.9610079359      -30.3580207748  TIP3      2787            0.0000000000
     19522      2884  TIP3      OH2            -1.4597654198       20.2241057404      -29.4361518665  TIP3      2788            0.0000000000
     19523      2884  TIP3      H1             -1.0106583037       20.3327405104      -30.3085971575  TIP3      2788            0.0000000000
     19524      2884  TIP3      H2             -1.0733645201       20.9517148682      -28.8915168317  TIP3      2788            0.0000000000
     19525      2885  TIP3      OH2            -0.3660037141       24.9628491350      -24.1616336870  TIP3      2789            0.0000000000
     19526      2885  TIP3      H1             -1.0520900619       25.5838856267      -23.8790166074  TIP3      2789            0.0000000000
     19527      2885  TIP3      H2             -0.7005006698       24.6878253497      -25.0378781283  TIP3      2789            0.0000000000
     19528      2886  TIP3      OH2             5.8215068258       20.5244872217      -36.8588340937  TIP3      2790            0.0000000000
     19529      2886  TIP3      H1              6.2849768784       20.5694637456      -35.9862700373  TIP3      2790            0.0000000000
     19530      2886  TIP3      H2              6.3939421366       21.0330530699      -37.4886598508  TIP3      2790            0.0000000000
     19531      2887  TIP3      OH2            10.1966560755       11.9812652053      -37.0944993354  TIP3      2791            0.0000000000
     19532      2887  TIP3      H1              9.2260275666       12.1258502286      -37.1007185907  TIP3      2791            0.0000000000
     19533      2887  TIP3      H2             10.5457062740       12.8682145277      -37.3000529641  TIP3      2791            0.0000000000
     19534      2888  TIP3      OH2            -2.4504926426       20.5260404302      -35.7544745248  TIP3      2792            0.0000000000
     19535      2888  TIP3      H1             -2.9590261372       21.3577138407      -35.8042449617  TIP3      2792            0.0000000000
     19536      2888  TIP3      H2             -2.8944527643       19.9616871482      -36.4144036014  TIP3      2792            0.0000000000
     19537      2889  TIP3      OH2            -1.5758276663       13.0675308794      -29.6065442262  TIP3      2793            0.0000000000
     19538      2889  TIP3      H1             -2.4403410868       13.1429352622      -30.0666036944  TIP3      2793            0.0000000000
     19539      2889  TIP3      H2             -1.6898943301       13.7897825356      -28.9475525345  TIP3      2793            0.0000000000
     19540      2890  TIP3      OH2             2.9650131702       12.1967486451      -25.6423570957  TIP3      2794            0.0000000000
     19541      2890  TIP3      H1              3.0393324962       12.8493073554      -24.9300087386  TIP3      2794            0.0000000000
     19542      2890  TIP3      H2              2.0850360545       12.4182223003      -26.0172155657  TIP3      2794            0.0000000000
     19543      2891  TIP3      OH2             6.4032953479       16.9726905464      -25.0662778248  TIP3      2795            0.0000000000
     19544      2891  TIP3      H1              6.1142424615       16.9519588763      -24.1353706987  TIP3      2795            0.0000000000
     19545      2891  TIP3      H2              6.7738996128       17.8707616932      -25.1288590758  TIP3      2795            0.0000000000
     19546      2892  TIP3      OH2             6.8452323812       21.6274746083      -38.9521528299  TIP3      2796            0.0000000000
     19547      2892  TIP3      H1              6.5242706756       21.8338065590      -39.8344457514  TIP3      2796            0.0000000000
     19548      2892  TIP3      H2              7.5581043711       22.2894945591      -38.8624513868  TIP3      2796            0.0000000000
     19549      2893  TIP3      OH2             3.1133805766       15.4854539749      -38.4338514913  TIP3      2797            0.0000000000
     19550      2893  TIP3      H1              2.4945966583       15.3903448498      -37.6885605795  TIP3      2797            0.0000000000
     19551      2893  TIP3      H2              2.6671767458       14.9536786964      -39.1130667292  TIP3      2797            0.0000000000
     19552      2894  TIP3      OH2            -1.1509442372       17.8790978727      -28.2328337853  TIP3      2798            0.0000000000
     19553      2894  TIP3      H1             -1.8822493764       17.9712471584      -27.5851817617  TIP3      2798            0.0000000000
     19554      2894  TIP3      H2             -1.0858266986       18.8190658800      -28.5284179277  TIP3      2798            0.0000000000
     19555      2895  TIP3      OH2            -1.7347730052       17.9516970095      -33.0169238344  TIP3      2799            0.0000000000
     19556      2895  TIP3      H1             -2.5326470743       18.2904891735      -33.4389402317  TIP3      2799            0.0000000000
     19557      2895  TIP3      H2             -1.1657600204       17.9116322435      -33.8265994071  TIP3      2799            0.0000000000
     19558      2896  TIP3      OH2             4.3278617696       18.7315759310      -34.3836087226  TIP3      2800            0.0000000000
     19559      2896  TIP3      H1              4.0299270594       19.5777901762      -34.8021727032  TIP3      2800            0.0000000000
     19560      2896  TIP3      H2              4.9216601126       18.4020892313      -35.0983489833  TIP3      2800            0.0000000000
     19561      2897  TIP3      OH2             3.6491001902       18.3370409791      -23.5950123448  TIP3      2801            0.0000000000
     19562      2897  TIP3      H1              3.0945579024       17.7625261756      -23.0345045369  TIP3      2801            0.0000000000
     19563      2897  TIP3      H2              4.3625796319       18.5701655352      -22.9717725155  TIP3      2801            0.0000000000
     19564      2898  TIP3      OH2             5.1294907366       18.4833540006      -31.2893943264  TIP3      2802            0.0000000000
     19565      2898  TIP3      H1              4.9399884301       19.2261856527      -31.8959196525  TIP3      2802            0.0000000000
     19566      2898  TIP3      H2              5.2134301651       17.7387567671      -31.9232294134  TIP3      2802            0.0000000000
     19567      2899  TIP3      OH2            -0.5067135417       16.1424672770      -39.3635773588  TIP3      2803            0.0000000000
     19568      2899  TIP3      H1             -0.7711555145       15.5436599287      -38.6354245303  TIP3      2803            0.0000000000
     19569      2899  TIP3      H2             -0.8636354895       16.9875102067      -39.0579481483  TIP3      2803            0.0000000000
     19570      2900  TIP3      OH2            -7.1483617303       15.4089020695      -32.5064194307  TIP3      2804            0.0000000000
     19571      2900  TIP3      H1             -6.4799060111       15.3629895548      -31.7869699942  TIP3      2804            0.0000000000
     19572      2900  TIP3      H2             -6.5910189769       15.5770256783      -33.2836101964  TIP3      2804            0.0000000000
     19573      2901  TIP3      OH2            -5.9227349560       15.8681059540      -37.4564544100  TIP3      2805            0.0000000000
     19574      2901  TIP3      H1             -5.1247706508       16.3924587195      -37.6484237753  TIP3      2805            0.0000000000
     19575      2901  TIP3      H2             -6.5246537539       16.5972412235      -37.2061340260  TIP3      2805            0.0000000000
     19576      2902  TIP3      OH2             4.0951716453       19.9242927664      -27.2651542184  TIP3      2806            0.0000000000
     19577      2902  TIP3      H1              4.7847501150       19.3713973997      -27.6918256554  TIP3      2806            0.0000000000
     19578      2902  TIP3      H2              3.5667589425       19.2272538186      -26.8206340764  TIP3      2806            0.0000000000
     19579      2903  TIP3      OH2             1.5326888600       15.7612686261      -32.1694946242  TIP3      2807            0.0000000000
     19580      2903  TIP3      H1              0.5695019981       15.6868929838      -32.0043527862  TIP3      2807            0.0000000000
     19581      2903  TIP3      H2              1.9040245801       15.1841481838      -31.4698009599  TIP3      2807            0.0000000000
     19582      2904  TIP3      OH2            -4.5367906987       16.6221871692      -33.1202819906  TIP3      2808            0.0000000000
     19583      2904  TIP3      H1             -4.8612775060       17.2152967584      -33.8364392093  TIP3      2808            0.0000000000
     19584      2904  TIP3      H2             -3.9950373624       15.9524175155      -33.5899185236  TIP3      2808            0.0000000000
     19585      2905  TIP3      OH2            -0.6541143632       17.8800534652      -35.4965199241  TIP3      2809            0.0000000000
     19586      2905  TIP3      H1              0.3150949742       17.8936678438      -35.5891742778  TIP3      2809            0.0000000000
     19587      2905  TIP3      H2             -0.9356005836       18.5004152561      -36.1812266476  TIP3      2809            0.0000000000
     19588      2906  TIP3      OH2             5.6162721277       15.4080031338      -29.3209030322  TIP3      2810            0.0000000000
     19589      2906  TIP3      H1              5.0850343535       15.2034845413      -28.5234149098  TIP3      2810            0.0000000000
     19590      2906  TIP3      H2              5.5725588703       14.5845081800      -29.8322210508  TIP3      2810            0.0000000000
     19591      2907  TIP3      OH2            -1.6903568862       19.0908420229      -38.3761010944  TIP3      2811            0.0000000000
     19592      2907  TIP3      H1             -1.8475544161       19.0079116170      -39.3347262394  TIP3      2811            0.0000000000
     19593      2907  TIP3      H2             -0.7382893539       19.2861670651      -38.3111561928  TIP3      2811            0.0000000000
     19594      2908  TIP3      OH2             2.3523059902       18.9281631267      -30.7475036055  TIP3      2812            0.0000000000
     19595      2908  TIP3      H1              3.0408332473       18.3540175359      -31.1301325680  TIP3      2812            0.0000000000
     19596      2908  TIP3      H2              2.0479941581       18.3542343276      -30.0326617486  TIP3      2812            0.0000000000
     19597      2909  TIP3      OH2            -3.0332340658       14.5717226221      -34.1049943355  TIP3      2813            0.0000000000
     19598      2909  TIP3      H1             -3.5840407306       13.9504485957      -33.5776753445  TIP3      2813            0.0000000000
     19599      2909  TIP3      H2             -2.5563430178       13.9432934355      -34.6693787118  TIP3      2813            0.0000000000
     19600      2910  TIP3      OH2             1.2932255619       16.4266636190      -28.4562046528  TIP3      2814            0.0000000000
     19601      2910  TIP3      H1              0.4898784863       16.9891595169      -28.4215788190  TIP3      2814            0.0000000000
     19602      2910  TIP3      H2              1.8276166158       16.8400083057      -27.7600821516  TIP3      2814            0.0000000000
     19603      2911  TIP3      OH2             1.8155140909       23.3909289539      -36.0835755608  TIP3      2815            0.0000000000
     19604      2911  TIP3      H1              1.0447501856       22.8650108925      -36.3739034593  TIP3      2815            0.0000000000
     19605      2911  TIP3      H2              1.5337928236       23.6128314628      -35.1626869013  TIP3      2815            0.0000000000
     19606      2912  TIP3      OH2             9.1719041598       22.4226960399      -27.6176445127  TIP3      2816            0.0000000000
     19607      2912  TIP3      H1              9.4996325616       23.1500299555      -28.1954833096  TIP3      2816            0.0000000000
     19608      2912  TIP3      H2              8.3216674617       22.2373688220      -28.0591664571  TIP3      2816            0.0000000000
     19609      2913  TIP3      OH2             5.7402650475       15.6619750736      -37.6304370972  TIP3      2817            0.0000000000
     19610      2913  TIP3      H1              4.8109152400       15.6467904052      -37.9554427828  TIP3      2817            0.0000000000
     19611      2913  TIP3      H2              5.8712338264       16.5976045613      -37.3641947164  TIP3      2817            0.0000000000
     19612      2914  TIP3      OH2             2.8142360730       23.3550039928      -24.8818635820  TIP3      2818            0.0000000000
     19613      2914  TIP3      H1              2.0123260773       22.9221991894      -25.2242279826  TIP3      2818            0.0000000000
     19614      2914  TIP3      H2              2.6370112879       24.3043321624      -24.9788391720  TIP3      2818            0.0000000000
     19615      2915  TIP3      OH2             6.1444357067       17.9242342831      -36.2974409968  TIP3      2819            0.0000000000
     19616      2915  TIP3      H1              6.9289522802       17.9536867131      -35.7066828110  TIP3      2819            0.0000000000
     19617      2915  TIP3      H2              6.1372961286       18.8258299301      -36.6708588681  TIP3      2819            0.0000000000
     19618      2916  TIP3      OH2            -3.3114944215       22.2410332253      -30.3883880129  TIP3      2820            0.0000000000
     19619      2916  TIP3      H1             -2.6922386964       22.4536695834      -31.1051295869  TIP3      2820            0.0000000000
     19620      2916  TIP3      H2             -2.9038374519       21.4617343905      -29.9609683086  TIP3      2820            0.0000000000
     19621      2917  TIP3      OH2             4.0054704516       24.7110513993      -37.2344799406  TIP3      2821            0.0000000000
     19622      2917  TIP3      H1              3.7117459046       24.9035914471      -38.1350823596  TIP3      2821            0.0000000000
     19623      2917  TIP3      H2              3.2444454246       24.1934518747      -36.8983884081  TIP3      2821            0.0000000000
     19624      2918  TIP3      OH2             5.4779907512       25.3804548237      -24.8650221667  TIP3      2822            0.0000000000
     19625      2918  TIP3      H1              5.0620944256       26.0697683326      -25.4153014106  TIP3      2822            0.0000000000
     19626      2918  TIP3      H2              5.4280003693       25.8576422164      -24.0032721214  TIP3      2822            0.0000000000
     19627      2919  TIP3      OH2            11.2158481203       17.9106261468      -36.6941509481  TIP3      2823            0.0000000000
     19628      2919  TIP3      H1             10.4749726339       17.7615648790      -37.3345893884  TIP3      2823            0.0000000000
     19629      2919  TIP3      H2             11.4464392344       18.8342665145      -36.9401680578  TIP3      2823            0.0000000000
     19630      2920  TIP3      OH2            11.2250746114       23.9029017690      -23.9512644959  TIP3      2824            0.0000000000
     19631      2920  TIP3      H1             10.2910465723       23.9924471657      -24.2219437988  TIP3      2824            0.0000000000
     19632      2920  TIP3      H2             11.6535187819       23.7407864610      -24.8172694555  TIP3      2824            0.0000000000
     19633      2921  TIP3      OH2             6.7937692134       21.6166639503      -29.7363892806  TIP3      2825            0.0000000000
     19634      2921  TIP3      H1              5.9295689482       21.7475006214      -30.1585006687  TIP3      2825            0.0000000000
     19635      2921  TIP3      H2              7.0054812798       20.6965785681      -30.0074416830  TIP3      2825            0.0000000000
     19636      2922  TIP3      OH2            -1.3723787702      -26.3960956927      -32.5553683987  TIP3      2826            0.0000000000
     19637      2922  TIP3      H1             -0.7366326871      -25.6968227585      -32.8287074710  TIP3      2826            0.0000000000
     19638      2922  TIP3      H2             -1.9107128026      -26.4801569097      -33.3502334215  TIP3      2826            0.0000000000
     19639      2923  TIP3      OH2            -4.6031862562       21.0543522629      -39.0995335139  TIP3      2827            0.0000000000
     19640      2923  TIP3      H1             -3.9464020092       21.5036558647      -38.5256605912  TIP3      2827            0.0000000000
     19641      2923  TIP3      H2             -5.3847336736       21.5472464192      -38.8167435560  TIP3      2827            0.0000000000
     19642      2924  TIP3      OH2             0.7363067071       23.9783467469      -33.5770963518  TIP3      2828            0.0000000000
     19643      2924  TIP3      H1             -0.0015021408       24.6023368944      -33.5359282635  TIP3      2828            0.0000000000
     19644      2924  TIP3      H2              0.5112515582       23.3257626830      -32.9022969411  TIP3      2828            0.0000000000
     19645      2925  TIP3      OH2             4.2511729330       23.7996309275      -27.5733574427  TIP3      2829            0.0000000000
     19646      2925  TIP3      H1              4.5572054455       23.6092937538      -26.6625873131  TIP3      2829            0.0000000000
     19647      2925  TIP3      H2              4.8745114806       23.2747309427      -28.1018157495  TIP3      2829            0.0000000000
     19648      2926  TIP3      OH2             6.9608286376       24.6446097649      -38.9028790428  TIP3      2830            0.0000000000
     19649      2926  TIP3      H1              7.3616651486       25.4769960400      -38.6122225062  TIP3      2830            0.0000000000
     19650      2926  TIP3      H2              6.3219059923       24.4954930913      -38.1869824103  TIP3      2830            0.0000000000
     19651      2927  TIP3      OH2            -4.2321153380       15.9333681820      -26.1553986473  TIP3      2831            0.0000000000
     19652      2927  TIP3      H1             -4.9920342525       16.5012323025      -26.3582163479  TIP3      2831            0.0000000000
     19653      2927  TIP3      H2             -4.5944650349       15.2888405276      -25.5239582495  TIP3      2831            0.0000000000
     19654      2928  TIP3      OH2             7.6601815946       23.2309239764      -35.8907019044  TIP3      2832            0.0000000000
     19655      2928  TIP3      H1              7.3800307016       22.3211492671      -35.7108637420  TIP3      2832            0.0000000000
     19656      2928  TIP3      H2              8.6006446586       23.1152102475      -36.0760329652  TIP3      2832            0.0000000000
     19657      2929  TIP3      OH2            -0.1550691046       25.9941967661      -36.6579343016  TIP3      2833            0.0000000000
     19658      2929  TIP3      H1              0.3602450349       25.1793670318      -36.7310378528  TIP3      2833            0.0000000000
     19659      2929  TIP3      H2              0.5443372929       26.6776279740      -36.6736421310  TIP3      2833            0.0000000000
     19660      2930  TIP3      OH2            -3.6049147745       22.8348130559      -37.3785038681  TIP3      2834            0.0000000000
     19661      2930  TIP3      H1             -4.3363639353       23.1929189302      -36.8261091346  TIP3      2834            0.0000000000
     19662      2930  TIP3      H2             -3.1751445469       23.6606708636      -37.6856043913  TIP3      2834            0.0000000000
     19663      2931  TIP3      OH2             4.5828320053       15.4499427504      -26.6779212751  TIP3      2835            0.0000000000
     19664      2931  TIP3      H1              5.1966117585       15.8660401097      -26.0411263684  TIP3      2835            0.0000000000
     19665      2931  TIP3      H2              4.1650614216       14.8185109051      -26.0857197855  TIP3      2835            0.0000000000
     19666      2932  TIP3      OH2             4.6552120699       15.1129357352      -35.0692024779  TIP3      2836            0.0000000000
     19667      2932  TIP3      H1              5.1533369645       15.4231856242      -35.8489953636  TIP3      2836            0.0000000000
     19668      2932  TIP3      H2              5.1121077344       15.5674172283      -34.3318921982  TIP3      2836            0.0000000000
     19669      2933  TIP3      OH2             2.2907475521       16.8491988660      -34.5214620378  TIP3      2837            0.0000000000
     19670      2933  TIP3      H1              3.0057506586       17.4990577137      -34.3605571069  TIP3      2837            0.0000000000
     19671      2933  TIP3      H2              2.1508686336       16.4175047723      -33.6447132804  TIP3      2837            0.0000000000
     19672      2934  TIP3      OH2             2.9356756712       17.7432801990      -26.1701332613  TIP3      2838            0.0000000000
     19673      2934  TIP3      H1              2.9438722287       18.0815675405      -25.2465164670  TIP3      2838            0.0000000000
     19674      2934  TIP3      H2              3.7205068762       17.1675816983      -26.1535733382  TIP3      2838            0.0000000000
     19675      2935  TIP3      OH2             2.8557222327       13.4031876871      -34.0263128915  TIP3      2839            0.0000000000
     19676      2935  TIP3      H1              2.4641135243       13.9897135638      -33.3429836365  TIP3      2839            0.0000000000
     19677      2935  TIP3      H2              3.5925416248       13.9759249833      -34.3655205952  TIP3      2839            0.0000000000
     19678      2936  TIP3      OH2            -1.3945723400       14.7334119639      -36.9550091076  TIP3      2840            0.0000000000
     19679      2936  TIP3      H1             -1.5390430342       15.4763871692      -36.3562712883  TIP3      2840            0.0000000000
     19680      2936  TIP3      H2             -0.5163940827       14.4137662448      -36.6521596746  TIP3      2840            0.0000000000
     19681      2937  TIP3      OH2             9.0990923103       16.0318387363      -24.6008497323  TIP3      2841            0.0000000000
     19682      2937  TIP3      H1              8.1823764328       16.1568332048      -24.2966801102  TIP3      2841            0.0000000000
     19683      2937  TIP3      H2              8.9297724960       15.7121742666      -25.4994250720  TIP3      2841            0.0000000000
     19684      2938  TIP3      OH2             7.6435106743       19.2594900351      -30.6696180444  TIP3      2842            0.0000000000
     19685      2938  TIP3      H1              6.7978868511       18.7759658134      -30.6981777172  TIP3      2842            0.0000000000
     19686      2938  TIP3      H2              8.2122750935       18.6267388946      -30.1917384120  TIP3      2842            0.0000000000
     19687      2939  TIP3      OH2            -2.7691294177       25.2334704286      -38.5444500011  TIP3      2843            0.0000000000
     19688      2939  TIP3      H1             -2.3252545402       25.6819400352      -37.8062946711  TIP3      2843            0.0000000000
     19689      2939  TIP3      H2             -2.0330542036       24.7339699273      -38.9636315647  TIP3      2843            0.0000000000
     19690      2940  TIP3      OH2            -4.7269309528       18.3434267043      -38.4526845184  TIP3      2844            0.0000000000
     19691      2940  TIP3      H1             -4.2120752306       19.1547035850      -38.6567466962  TIP3      2844            0.0000000000
     19692      2940  TIP3      H2             -5.6279105366       18.6981579294      -38.4286829045  TIP3      2844            0.0000000000
     19693      2941  TIP3      OH2            -4.1501573226       12.9454280049      -30.4632695402  TIP3      2845            0.0000000000
     19694      2941  TIP3      H1             -4.1621514881       12.6325435077      -31.3983000845  TIP3      2845            0.0000000000
     19695      2941  TIP3      H2             -4.3494971609       12.0886131540      -30.0295805200  TIP3      2845            0.0000000000
     19696      2942  TIP3      OH2            -0.5103542317       23.6031516801      -38.8289724604  TIP3      2846            0.0000000000
     19697      2942  TIP3      H1             -0.4945684027       22.9005866338      -38.1382571170  TIP3      2846            0.0000000000
     19698      2942  TIP3      H2             -0.0752347415       23.1624023240      -39.5641883797  TIP3      2846            0.0000000000
     19699      2943  TIP3      OH2             6.5669817240       22.9618214080      -25.3254360211  TIP3      2847            0.0000000000
     19700      2943  TIP3      H1              7.3487150455       23.1984706187      -24.8002106743  TIP3      2847            0.0000000000
     19701      2943  TIP3      H2              5.9385926101       23.6306210532      -24.9790906928  TIP3      2847            0.0000000000
     19702      2944  TIP3      OH2            -0.1558696581       21.6720720801      -36.9910849069  TIP3      2848            0.0000000000
     19703      2944  TIP3      H1             -0.9441786069       21.2921525473      -36.5543342211  TIP3      2848            0.0000000000
     19704      2944  TIP3      H2              0.3012916638       20.8420844642      -37.2500421839  TIP3      2848            0.0000000000
     19705      2945  TIP3      OH2             1.0766930043       19.4647859056      -37.9835428858  TIP3      2849            0.0000000000
     19706      2945  TIP3      H1              0.9813200863       19.5389380247      -38.9639228128  TIP3      2849            0.0000000000
     19707      2945  TIP3      H2              2.0582972211       19.3880379108      -37.9388669770  TIP3      2849            0.0000000000
     19708      2946  TIP3      OH2             9.4786764810       22.2950114744      -38.9714896323  TIP3      2850            0.0000000000
     19709      2946  TIP3      H1             10.3162052259       22.1026874473      -39.4395655053  TIP3      2850            0.0000000000
     19710      2946  TIP3      H2              9.7524499079       23.0333273239      -38.3996849335  TIP3      2850            0.0000000000
     19711      2947  TIP3      OH2            -0.2176267310       16.9977242002      -24.5978116075  TIP3      2851            0.0000000000
     19712      2947  TIP3      H1             -0.2537650299       16.2202533975      -25.1901323917  TIP3      2851            0.0000000000
     19713      2947  TIP3      H2             -0.4117626829       17.7175539707      -25.2117648126  TIP3      2851            0.0000000000
     19714      2948  TIP3      OH2            -0.1131229503       15.0497023852      -26.6851358868  TIP3      2852            0.0000000000
     19715      2948  TIP3      H1              0.5501877564       15.3892855560      -27.3257627063  TIP3      2852            0.0000000000
     19716      2948  TIP3      H2             -0.9436081676       15.2836039041      -27.1487722289  TIP3      2852            0.0000000000
     19717      2949  TIP3      OH2             1.2407726555       21.2938639371      -26.0060740665  TIP3      2853            0.0000000000
     19718      2949  TIP3      H1              2.0282857546       21.2710815683      -26.5703759794  TIP3      2853            0.0000000000
     19719      2949  TIP3      H2              0.5302368772       21.4902537001      -26.6365842933  TIP3      2853            0.0000000000
     19720      2950  TIP3      OH2             0.4603588418       12.3805819845      -26.6192325858  TIP3      2854            0.0000000000
     19721      2950  TIP3      H1              0.1254368830       13.3048195053      -26.5083060877  TIP3      2854            0.0000000000
     19722      2950  TIP3      H2             -0.2624261480       11.9868209516      -27.1325085819  TIP3      2854            0.0000000000
     19723      2951  TIP3      OH2             1.8011835448       16.4949086335      -22.4659206079  TIP3      2855            0.0000000000
     19724      2951  TIP3      H1              1.2307493973       16.7568551479      -21.7219631995  TIP3      2855            0.0000000000
     19725      2951  TIP3      H2              1.1981918461       16.5959742531      -23.2238612930  TIP3      2855            0.0000000000
     19726      2952  TIP3      OH2             4.4148949112       15.2195884953      -23.4733602883  TIP3      2856            0.0000000000
     19727      2952  TIP3      H1              3.5323485540       15.3376047623      -23.0884189248  TIP3      2856            0.0000000000
     19728      2952  TIP3      H2              4.9763006064       15.4516515366      -22.7095167375  TIP3      2856            0.0000000000
     19729      2953  TIP3      OH2            -4.2312307589       15.9238173166      -22.4333742074  TIP3      2857            0.0000000000
     19730      2953  TIP3      H1             -3.9983740082       15.0414837161      -22.7494158710  TIP3      2857            0.0000000000
     19731      2953  TIP3      H2             -3.6481940229       16.0206549733      -21.6461678926  TIP3      2857            0.0000000000
     19732      2954  TIP3      OH2             0.5997900592       11.8916566459      -23.8374786186  TIP3      2858            0.0000000000
     19733      2954  TIP3      H1              1.1277172252       11.0913723617      -23.6884524496  TIP3      2858            0.0000000000
     19734      2954  TIP3      H2              0.5900230266       11.9522989476      -24.8209979034  TIP3      2858            0.0000000000
     19735      2955  TIP3      OH2             0.6235787670       13.7212412879      -21.2387830203  TIP3      2859            0.0000000000
     19736      2955  TIP3      H1              0.6040398197       13.2225216520      -22.0704327066  TIP3      2859            0.0000000000
     19737      2955  TIP3      H2              0.2581744904       14.5693876486      -21.5126726157  TIP3      2859            0.0000000000
     19738      2956  TIP3      OH2            -6.0816154765       24.4229328869      -38.5384333431  TIP3      2860            0.0000000000
     19739      2956  TIP3      H1             -5.3214568745       24.9784756170      -38.2883135670  TIP3      2860            0.0000000000
     19740      2956  TIP3      H2             -6.0742144055       24.5432923371      -39.5060495028  TIP3      2860            0.0000000000
     19741      2957  TIP3      OH2            10.9210221031       22.8194174550      -36.0781857140  TIP3      2861            0.0000000000
     19742      2957  TIP3      H1             11.2582009190       23.6173771065      -35.6467184644  TIP3      2861            0.0000000000
     19743      2957  TIP3      H2             10.9772788198       22.1598289291      -35.3505557892  TIP3      2861            0.0000000000
     19744      2958  TIP3      OH2            11.0416729380       21.0929933822      -33.9654248801  TIP3      2862            0.0000000000
     19745      2958  TIP3      H1             10.2086928877       20.6938692947      -33.6378831423  TIP3      2862            0.0000000000
     19746      2958  TIP3      H2             11.5748613737       21.0312767295      -33.1531455121  TIP3      2862            0.0000000000
     19747      2959  TIP3      OH2            10.4033050187       24.2220832215      -29.2847649266  TIP3      2863            0.0000000000
     19748      2959  TIP3      H1             10.9414532167       23.4801648537      -29.6024285035  TIP3      2863            0.0000000000
     19749      2959  TIP3      H2             11.0548170679       24.9301955314      -29.1793005977  TIP3      2863            0.0000000000
     19750      2960  TIP3      OH2            11.3784461905       20.5338190161      -37.6000814807  TIP3      2864            0.0000000000
     19751      2960  TIP3      H1             10.4556044960       20.5540241341      -37.8859165794  TIP3      2864            0.0000000000
     19752      2960  TIP3      H2             11.3954819932       21.4004148329      -37.1377656551  TIP3      2864            0.0000000000
     19753      2961  TIP3      OH2             9.2908336901       17.7416573585      -38.5945801079  TIP3      2865            0.0000000000
     19754      2961  TIP3      H1              9.2704022256       18.2294334713      -39.4459018327  TIP3      2865            0.0000000000
     19755      2961  TIP3      H2              9.3115974750       16.8057896756      -38.8673977751  TIP3      2865            0.0000000000
     19756      2962  TIP3      OH2             8.9666998470       19.7443137752      -32.9623953423  TIP3      2866            0.0000000000
     19757      2962  TIP3      H1              8.8623716109       18.8209021837      -33.2423774225  TIP3      2866            0.0000000000
     19758      2962  TIP3      H2              8.6451895720       19.6769247998      -32.0348716902  TIP3      2866            0.0000000000
     19759      2963  TIP3      OH2             9.0683610374       14.9927260093      -39.0048553881  TIP3      2867            0.0000000000
     19760      2963  TIP3      H1              9.9558265559       14.6661418105      -38.7423614648  TIP3      2867            0.0000000000
     19761      2963  TIP3      H2              8.5286420061       14.5713824826      -38.3181458972  TIP3      2867            0.0000000000
     19762      2964  TIP3      OH2             8.4662826391       17.4229826985      -34.8910547868  TIP3      2868            0.0000000000
     19763      2964  TIP3      H1              8.7947185112       16.4981379581      -34.9061070867  TIP3      2868            0.0000000000
     19764      2964  TIP3      H2              9.1215726620       17.8190718024      -35.4849053952  TIP3      2868            0.0000000000
     19765      2965  TIP3      OH2             9.3459061555       17.4607663542      -29.5912829410  TIP3      2869            0.0000000000
     19766      2965  TIP3      H1             10.3101219531       17.6948733639      -29.6357262604  TIP3      2869            0.0000000000
     19767      2965  TIP3      H2              9.1963694475       17.6750669202      -28.6442056159  TIP3      2869            0.0000000000
     19768      2966  TIP3      OH2             9.4495951053       18.4939096236      -27.1241763820  TIP3      2870            0.0000000000
     19769      2966  TIP3      H1              8.6243328630       18.7887786597      -26.6861885770  TIP3      2870            0.0000000000
     19770      2966  TIP3      H2              9.8954307666       19.3367335812      -27.3548294653  TIP3      2870            0.0000000000
     19771      2967  TIP3      OH2            -6.4736637880       16.4714457843      -23.8100882506  TIP3      2871            0.0000000000
     19772      2967  TIP3      H1             -5.5793094492       16.4180092031      -23.3892974720  TIP3      2871            0.0000000000
     19773      2967  TIP3      H2             -6.8584155591       15.6926954942      -23.3661584506  TIP3      2871            0.0000000000
     19774      2968  TIP3      OH2             9.3088831496       14.7805759152      -35.3277808935  TIP3      2872            0.0000000000
     19775      2968  TIP3      H1              9.4549511332       14.5553328145      -34.3911154947  TIP3      2872            0.0000000000
     19776      2968  TIP3      H2              8.8043967173       13.9829578403      -35.6086583688  TIP3      2872            0.0000000000
     19777      2969  TIP3      OH2            -5.8202330904       15.2076666698      -30.0279009429  TIP3      2873            0.0000000000
     19778      2969  TIP3      H1             -5.2037366258       14.4498319228      -30.1765784840  TIP3      2873            0.0000000000
     19779      2969  TIP3      H2             -5.1905091296       15.9349034073      -29.8996338119  TIP3      2873            0.0000000000
     19780      2970  TIP3      OH2            -7.1366837406       18.4667838877      -29.4342709563  TIP3      2874            0.0000000000
     19781      2970  TIP3      H1             -6.4614493591       18.6257847861      -30.1288961181  TIP3      2874            0.0000000000
     19782      2970  TIP3      H2             -7.1572999169       19.3228215409      -28.9599088768  TIP3      2874            0.0000000000
     19783      2971  TIP3      OH2            11.5008368767       14.0789751389      -38.1965401972  TIP3      2875            0.0000000000
     19784      2971  TIP3      H1             11.8907558973       13.6670595828      -39.0030596063  TIP3      2875            0.0000000000
     19785      2971  TIP3      H2             12.1522338090       14.7874263013      -37.9681761739  TIP3      2875            0.0000000000
     19786      2972  TIP3      OH2            -7.0588285483       14.6010729010      -35.2190518615  TIP3      2876            0.0000000000
     19787      2972  TIP3      H1             -7.4751347023       13.7721903856      -35.4766085703  TIP3      2876            0.0000000000
     19788      2972  TIP3      H2             -6.6049181323       14.9058792747      -36.0310320406  TIP3      2876            0.0000000000
     19789      2973  TIP3      OH2            -6.8128346455       13.0137404133      -27.0125756192  TIP3      2877            0.0000000000
     19790      2973  TIP3      H1             -7.4560975759       12.6516569955      -26.3762524034  TIP3      2877            0.0000000000
     19791      2973  TIP3      H2             -7.3267192201       13.7350544580      -27.4241152336  TIP3      2877            0.0000000000
     19792      2974  TIP3      OH2            10.1685674393       12.2559434919      -25.1973198226  TIP3      2878            0.0000000000
     19793      2974  TIP3      H1              9.2533473573       12.3214063625      -25.5168915497  TIP3      2878            0.0000000000
     19794      2974  TIP3      H2             10.4501487011       11.4005302643      -25.5871902721  TIP3      2878            0.0000000000
     19795      2975  TIP3      OH2             2.7350645912       13.3736229991      -31.0903171436  TIP3      2879            0.0000000000
     19796      2975  TIP3      H1              1.9804443188       12.8871408333      -30.6718537473  TIP3      2879            0.0000000000
     19797      2975  TIP3      H2              3.2962169337       12.6321220306      -31.3619876388  TIP3      2879            0.0000000000
     19798      2976  TIP3      OH2             8.7527190488       11.9722823724      -30.9816248722  TIP3      2880            0.0000000000
     19799      2976  TIP3      H1              9.3829726883       12.5281710012      -31.4887775685  TIP3      2880            0.0000000000
     19800      2976  TIP3      H2              7.8847083942       12.3545763653      -31.2674013586  TIP3      2880            0.0000000000
     19801      2977  TIP3      OH2            10.2103805089       13.4633181445      -32.6609377424  TIP3      2881            0.0000000000
     19802      2977  TIP3      H1             10.8414954826       12.8479254327      -33.0946053071  TIP3      2881            0.0000000000
     19803      2977  TIP3      H2             10.8091338292       14.2509247339      -32.5740013720  TIP3      2881            0.0000000000
     19804      2978  TIP3      OH2            -4.2316797130       12.1343889495      -33.0913210670  TIP3      2882            0.0000000000
     19805      2978  TIP3      H1             -5.0571207625       12.0143285788      -33.5965981545  TIP3      2882            0.0000000000
     19806      2978  TIP3      H2             -3.8513030027       11.2299456855      -33.1594315133  TIP3      2882            0.0000000000
     19807      2979  TIP3      OH2            -5.0507717663       12.1753543461      -37.1041244762  TIP3      2883            0.0000000000
     19808      2979  TIP3      H1             -4.7782546246       12.8951289597      -37.7269137246  TIP3      2883            0.0000000000
     19809      2979  TIP3      H2             -5.8820224806       12.5041260352      -36.7317435436  TIP3      2883            0.0000000000
     19810      2980  TIP3      OH2             0.0220925013       12.2370106404      -32.8653073786  TIP3      2884            0.0000000000
     19811      2980  TIP3      H1              0.7302738366       12.1866107929      -33.5194932350  TIP3      2884            0.0000000000
     19812      2980  TIP3      H2             -0.0751285019       13.1892421570      -32.7243288584  TIP3      2884            0.0000000000
     19813      2981  TIP3      OH2             6.1495973802       12.6807721704      -31.8511039037  TIP3      2885            0.0000000000
     19814      2981  TIP3      H1              5.5408889085       13.0203356917      -32.5191842510  TIP3      2885            0.0000000000
     19815      2981  TIP3      H2              5.6637912572       11.8707086563      -31.5527307866  TIP3      2885            0.0000000000
     19816      2982  TIP3      OH2             7.8869344831       12.5340711230      -35.9870850341  TIP3      2886            0.0000000000
     19817      2982  TIP3      H1              7.0025822847       12.8839057892      -36.1753529604  TIP3      2886            0.0000000000
     19818      2982  TIP3      H2              7.6444491587       11.8755489999      -35.3099775861  TIP3      2886            0.0000000000
     19819      2983  TIP3      OH2            -3.7055198856       13.7794955371      -38.8397773317  TIP3      2887            0.0000000000
     19820      2983  TIP3      H1             -2.9641137646       13.3174684788      -39.2614924368  TIP3      2887            0.0000000000
     19821      2983  TIP3      H2             -3.2374107852       14.3593451698      -38.2222409686  TIP3      2887            0.0000000000
     19822      2984  TIP3      OH2             1.3480505637       14.6710914513      -36.2096688824  TIP3      2888            0.0000000000
     19823      2984  TIP3      H1              1.8639334946       14.1275654556      -35.5992301358  TIP3      2888            0.0000000000
     19824      2984  TIP3      H2              1.5927529471       15.5445336995      -35.8419871658  TIP3      2888            0.0000000000
     19825      2985  TIP3      OH2            -4.3804828747       13.1153142169      -23.5064981786  TIP3      2889            0.0000000000
     19826      2985  TIP3      H1             -5.0324915400       12.3932527077      -23.5167582216  TIP3      2889            0.0000000000
     19827      2985  TIP3      H2             -3.5857715731       12.6738967686      -23.1328334906  TIP3      2889            0.0000000000
     19828      2986  TIP3      OH2            -2.3069856043       12.1655398207      -21.9022688272  TIP3      2890            0.0000000000
     19829      2986  TIP3      H1             -1.5323537730       12.1836936147      -22.4834586993  TIP3      2890            0.0000000000
     19830      2986  TIP3      H2             -1.9513957338       11.7359624040      -21.1110128311  TIP3      2890            0.0000000000
     19831      2987  TIP3      OH2            23.7854621865       22.2511405715      -33.4250409065  TIP3      2891            0.0000000000
     19832      2987  TIP3      H1             23.1775260449       22.6094173454      -32.7705988384  TIP3      2891            0.0000000000
     19833      2987  TIP3      H2             23.1942229610       21.7583318015      -34.0294134463  TIP3      2891            0.0000000000
     19834      2988  TIP3      OH2            22.3991392004       21.1325874547      -29.5535813182  TIP3      2892            0.0000000000
     19835      2988  TIP3      H1             22.3128915749       20.4695304119      -28.8414147352  TIP3      2892            0.0000000000
     19836      2988  TIP3      H2             22.2946210656       20.5960190050      -30.3501143869  TIP3      2892            0.0000000000
     19837      2989  TIP3      OH2            14.8713591590       20.5975313047      -28.0446962958  TIP3      2893            0.0000000000
     19838      2989  TIP3      H1             14.8352935318       19.8948511088      -27.3785059257  TIP3      2893            0.0000000000
     19839      2989  TIP3      H2             15.7900764544       20.9068156618      -27.9995536367  TIP3      2893            0.0000000000
     19840      2990  TIP3      OH2            15.5252069645       24.6364108197      -29.6464458628  TIP3      2894            0.0000000000
     19841      2990  TIP3      H1             15.2069019730       23.8065885149      -30.0508186683  TIP3      2894            0.0000000000
     19842      2990  TIP3      H2             16.4806033425       24.5718228248      -29.8750733095  TIP3      2894            0.0000000000
     19843      2991  TIP3      OH2            12.6502031356       18.6181763033      -34.4428404695  TIP3      2895            0.0000000000
     19844      2991  TIP3      H1             12.4552788895       19.5689539288      -34.4459251482  TIP3      2895            0.0000000000
     19845      2991  TIP3      H2             11.9885856631       18.2434648783      -35.0627788703  TIP3      2895            0.0000000000
     19846      2992  TIP3      OH2            13.1810532054       21.1995591956      -31.9171806605  TIP3      2896            0.0000000000
     19847      2992  TIP3      H1             13.3927968868       20.2441190156      -31.8039549121  TIP3      2896            0.0000000000
     19848      2992  TIP3      H2             14.0750250691       21.5955103252      -31.9816822261  TIP3      2896            0.0000000000
     19849      2993  TIP3      OH2            20.8153609558       24.0411522098      -28.5577289513  TIP3      2897            0.0000000000
     19850      2993  TIP3      H1             20.9584313032       23.7391487741      -29.4646489321  TIP3      2897            0.0000000000
     19851      2993  TIP3      H2             21.6788017776       23.7901808094      -28.1637047170  TIP3      2897            0.0000000000
     19852      2994  TIP3      OH2            23.9866897978       17.5619793561      -28.8632934687  TIP3      2898            0.0000000000
     19853      2994  TIP3      H1             24.9456816951       17.4288464968      -29.0357178633  TIP3      2898            0.0000000000
     19854      2994  TIP3      H2             23.7561969032       18.0053571912      -29.7118253485  TIP3      2898            0.0000000000
     19855      2995  TIP3      OH2            17.4049882824       15.2584469780      -32.1159120003  TIP3      2899            0.0000000000
     19856      2995  TIP3      H1             17.4864409671       16.1870867331      -32.4192454323  TIP3      2899            0.0000000000
     19857      2995  TIP3      H2             16.8629805534       14.8967818221      -32.8515034965  TIP3      2899            0.0000000000
     19858      2996  TIP3      OH2            24.5198025791       16.3748548818      -33.1699300821  TIP3      2900            0.0000000000
     19859      2996  TIP3      H1             25.2048567500       15.8414234413      -32.6906884655  TIP3      2900            0.0000000000
     19860      2996  TIP3      H2             25.0711562715       16.9539514617      -33.7222463782  TIP3      2900            0.0000000000
     19861      2997  TIP3      OH2            13.7781846396       18.5896825326      -31.3177376777  TIP3      2901            0.0000000000
     19862      2997  TIP3      H1             14.4400146841       18.2921838178      -30.6758963952  TIP3      2901            0.0000000000
     19863      2997  TIP3      H2             13.9649555600       17.9752605905      -32.0627150549  TIP3      2901            0.0000000000
     19864      2998  TIP3      OH2            18.9334300438       19.6340011870      -31.3520835297  TIP3      2902            0.0000000000
     19865      2998  TIP3      H1             19.8022675770       19.2182906235      -31.3542480972  TIP3      2902            0.0000000000
     19866      2998  TIP3      H2             18.3790867056       18.9645033673      -31.8177939879  TIP3      2902            0.0000000000
     19867      2999  TIP3      OH2            16.0313887716       14.6500268668      -28.1091685400  TIP3      2903            0.0000000000
     19868      2999  TIP3      H1             15.9250568823       15.1357249155      -28.9633615705  TIP3      2903            0.0000000000
     19869      2999  TIP3      H2             15.5942464834       15.3111021801      -27.5372394849  TIP3      2903            0.0000000000
     19870      3000  TIP3      OH2            22.8027521646       24.7803466602      -34.2934605251  TIP3      2904            0.0000000000
     19871      3000  TIP3      H1             22.8076323657       24.3482587466      -35.1710812003  TIP3      2904            0.0000000000
     19872      3000  TIP3      H2             21.9308464453       24.5182942205      -33.9494614707  TIP3      2904            0.0000000000
     19873      3001  TIP3      OH2            18.2105900136       22.6503274328      -27.9347464060  TIP3      2905            0.0000000000
     19874      3001  TIP3      H1             17.6908388124       23.3813624166      -27.5353576526  TIP3      2905            0.0000000000
     19875      3001  TIP3      H2             18.9083039198       23.1787966491      -28.3674882411  TIP3      2905            0.0000000000
     19876      3002  TIP3      OH2            15.8176396652       16.6586589312      -29.9990464012  TIP3      2906            0.0000000000
     19877      3002  TIP3      H1             16.3552944219       17.3304641132      -29.5268343741  TIP3      2906            0.0000000000
     19878      3002  TIP3      H2             16.3448252849       16.5320068015      -30.8095733896  TIP3      2906            0.0000000000
     19879      3003  TIP3      OH2            16.8459668907       24.7692220692      -26.9054248367  TIP3      2907            0.0000000000
     19880      3003  TIP3      H1             16.2302526001       25.0434479578      -27.5961397289  TIP3      2907            0.0000000000
     19881      3003  TIP3      H2             16.2403421335       24.3748187533      -26.2248125828  TIP3      2907            0.0000000000
     19882      3004  TIP3      OH2            13.5338262405       24.4033132304      -35.7166393043  TIP3      2908            0.0000000000
     19883      3004  TIP3      H1             12.9160101825       24.1264269588      -36.4180103522  TIP3      2908            0.0000000000
     19884      3004  TIP3      H2             13.7821228199       25.2433209467      -36.1575141823  TIP3      2908            0.0000000000
     19885      3005  TIP3      OH2            19.9219874436       12.1235642376      -30.6687727578  TIP3      2909            0.0000000000
     19886      3005  TIP3      H1             19.9185924501       11.1404046381      -30.5624947729  TIP3      2909            0.0000000000
     19887      3005  TIP3      H2             19.2203749706       12.3394892814      -30.0225580390  TIP3      2909            0.0000000000
     19888      3006  TIP3      OH2            22.4168317909       20.9941086585      -35.5630955225  TIP3      2910            0.0000000000
     19889      3006  TIP3      H1             21.7521224607       21.4652670452      -36.0933529106  TIP3      2910            0.0000000000
     19890      3006  TIP3      H2             23.2402256436       21.0921374568      -36.1189903213  TIP3      2910            0.0000000000
     19891      3007  TIP3      OH2            22.6794173694       19.4103552692      -38.5829216205  TIP3      2911            0.0000000000
     19892      3007  TIP3      H1             23.4639908838       19.8880091706      -38.2645667880  TIP3      2911            0.0000000000
     19893      3007  TIP3      H2             23.0912287000       18.7120802104      -39.1268497416  TIP3      2911            0.0000000000
     19894      3008  TIP3      OH2            26.2374252351       21.9117345436      -34.6242706318  TIP3      2912            0.0000000000
     19895      3008  TIP3      H1             25.3252519074       21.8881255560      -34.2547263271  TIP3      2912            0.0000000000
     19896      3008  TIP3      H2             26.6642058523       22.5192975279      -34.0099643169  TIP3      2912            0.0000000000
     19897      3009  TIP3      OH2            25.1644032595       18.9209657025      -25.6086440227  TIP3      2913            0.0000000000
     19898      3009  TIP3      H1             24.8112174519       19.6431325980      -25.0811162456  TIP3      2913            0.0000000000
     19899      3009  TIP3      H2             25.1079126771       19.2740131063      -26.5127394417  TIP3      2913            0.0000000000
     19900      3010  TIP3      OH2            17.8608904196       21.4487550969      -33.0925358510  TIP3      2914            0.0000000000
     19901      3010  TIP3      H1             17.4934494424       21.0713771276      -33.9198185520  TIP3      2914            0.0000000000
     19902      3010  TIP3      H2             18.1791454068       20.6786727653      -32.5819978064  TIP3      2914            0.0000000000
     19903      3011  TIP3      OH2            18.2006932146       24.5260672843      -30.4437357059  TIP3      2915            0.0000000000
     19904      3011  TIP3      H1             18.2882038154       25.0612563984      -31.2568840912  TIP3      2915            0.0000000000
     19905      3011  TIP3      H2             18.6206681312       25.0950349740      -29.7868957034  TIP3      2915            0.0000000000
     19906      3012  TIP3      OH2            17.4481404843       20.2963803449      -29.2783569669  TIP3      2916            0.0000000000
     19907      3012  TIP3      H1             18.0269274573       20.1751759574      -30.0675895039  TIP3      2916            0.0000000000
     19908      3012  TIP3      H2             17.9061383146       21.0420564555      -28.8555618527  TIP3      2916            0.0000000000
     19909      3013  TIP3      OH2            18.3655514115       25.3335464706      -24.4288724445  TIP3      2917            0.0000000000
     19910      3013  TIP3      H1             18.7780072949       26.1012856853      -23.9845345990  TIP3      2917            0.0000000000
     19911      3013  TIP3      H2             17.5877093573       25.7230659431      -24.8572119048  TIP3      2917            0.0000000000
     19912      3014  TIP3      OH2            24.8175580991       21.1190953025      -36.8347537699  TIP3      2918            0.0000000000
     19913      3014  TIP3      H1             25.5574962674       21.4738199232      -36.2969118165  TIP3      2918            0.0000000000
     19914      3014  TIP3      H2             25.0815432556       21.3495983362      -37.7534373900  TIP3      2918            0.0000000000
     19915      3015  TIP3      OH2            15.5212027381       19.8014579865      -25.0179615948  TIP3      2919            0.0000000000
     19916      3015  TIP3      H1             15.9102344672       19.6285021285      -24.1398070136  TIP3      2919            0.0000000000
     19917      3015  TIP3      H2             15.5018448723       20.7624065028      -24.9335516434  TIP3      2919            0.0000000000
     19918      3016  TIP3      OH2            16.4481555052       20.5713262767      -35.4555284685  TIP3      2920            0.0000000000
     19919      3016  TIP3      H1             16.0841843838       21.4652400806      -35.5761162397  TIP3      2920            0.0000000000
     19920      3016  TIP3      H2             15.6583415426       20.0610463306      -35.6398720705  TIP3      2920            0.0000000000
     19921      3017  TIP3      OH2            12.4895402056       23.4466302830      -26.4012079923  TIP3      2921            0.0000000000
     19922      3017  TIP3      H1             12.3873772404       23.4257043381      -27.3617479696  TIP3      2921            0.0000000000
     19923      3017  TIP3      H2             12.7122672852       22.5016734261      -26.2099056796  TIP3      2921            0.0000000000
     19924      3018  TIP3      OH2            14.9596847162       23.6793831644      -25.4201188971  TIP3      2922            0.0000000000
     19925      3018  TIP3      H1             14.7870604541       23.5928749852      -24.4590682689  TIP3      2922            0.0000000000
     19926      3018  TIP3      H2             14.0492183873       23.7504365750      -25.7620311009  TIP3      2922            0.0000000000
     19927      3019  TIP3      OH2            17.6389491349       12.9114671501      -29.5544847996  TIP3      2923            0.0000000000
     19928      3019  TIP3      H1             17.6363949475       13.1099314210      -30.5081685559  TIP3      2923            0.0000000000
     19929      3019  TIP3      H2             17.2441987564       13.7356377160      -29.2118943729  TIP3      2923            0.0000000000
     19930      3020  TIP3      OH2            22.4387234250       12.4833183541      -25.9796856298  TIP3      2924            0.0000000000
     19931      3020  TIP3      H1             22.7834223876       12.3655291773      -25.0665716093  TIP3      2924            0.0000000000
     19932      3020  TIP3      H2             21.4601687920       12.5166792730      -25.8479099308  TIP3      2924            0.0000000000
     19933      3021  TIP3      OH2            25.3757705050       16.0998491651      -25.3028283975  TIP3      2925            0.0000000000
     19934      3021  TIP3      H1             25.2640992235       16.1171394759      -24.3336813306  TIP3      2925            0.0000000000
     19935      3021  TIP3      H2             25.3365769961       17.0565715679      -25.4985520016  TIP3      2925            0.0000000000
     19936      3022  TIP3      OH2            21.9227761213       15.0347051379      -39.1285095754  TIP3      2926            0.0000000000
     19937      3022  TIP3      H1             21.3224149858       14.9897181349      -38.3604151222  TIP3      2926            0.0000000000
     19938      3022  TIP3      H2             21.5791074028       14.2999528354      -39.6567044299  TIP3      2926            0.0000000000
     19939      3023  TIP3      OH2            17.2699517822       17.8916084194      -28.1022824662  TIP3      2927            0.0000000000
     19940      3023  TIP3      H1             16.3820679751       17.9122135816      -27.6641834706  TIP3      2927            0.0000000000
     19941      3023  TIP3      H2             17.3394175214       18.8030058448      -28.4665718237  TIP3      2927            0.0000000000
     19942      3024  TIP3      OH2            17.4493906930       17.8782680326      -32.8414368884  TIP3      2928            0.0000000000
     19943      3024  TIP3      H1             16.6914027329       18.2223675635      -33.3436425413  TIP3      2928            0.0000000000
     19944      3024  TIP3      H2             18.0465154265       17.6831519778      -33.6080839925  TIP3      2928            0.0000000000
     19945      3025  TIP3      OH2            23.1960808059       18.8766491313      -34.2368986539  TIP3      2929            0.0000000000
     19946      3025  TIP3      H1             22.7037960813       19.5998261394      -34.6989438575  TIP3      2929            0.0000000000
     19947      3025  TIP3      H2             23.7907867424       18.5662352130      -34.9496832759  TIP3      2929            0.0000000000
     19948      3026  TIP3      OH2            22.2156038550       19.2649092514      -23.2952874496  TIP3      2930            0.0000000000
     19949      3026  TIP3      H1             21.7036156150       18.8050302680      -22.6064090509  TIP3      2930            0.0000000000
     19950      3026  TIP3      H2             23.0670769569       18.8157664425      -23.2255641520  TIP3      2930            0.0000000000
     19951      3027  TIP3      OH2            23.7958795221       18.4206970928      -31.5784626062  TIP3      2931            0.0000000000
     19952      3027  TIP3      H1             23.8831202508       19.0764923960      -32.2999124036  TIP3      2931            0.0000000000
     19953      3027  TIP3      H2             24.0244976530       17.6215061087      -32.1028305874  TIP3      2931            0.0000000000
     19954      3028  TIP3      OH2            14.7458204090       17.8690203470      -26.8936261919  TIP3      2932            0.0000000000
     19955      3028  TIP3      H1             15.1398769457       18.5139293473      -26.2687425285  TIP3      2932            0.0000000000
     19956      3028  TIP3      H2             14.1451604052       17.4089875289      -26.2913891048  TIP3      2932            0.0000000000
     19957      3029  TIP3      OH2            18.2529414109       16.1143810776      -39.6253294029  TIP3      2933            0.0000000000
     19958      3029  TIP3      H1             18.3256418718       15.4256744971      -38.9379860144  TIP3      2933            0.0000000000
     19959      3029  TIP3      H2             17.8726143536       16.8233709306      -39.0832409979  TIP3      2933            0.0000000000
     19960      3030  TIP3      OH2            11.9085276693       15.4645613072      -32.4042716781  TIP3      2934            0.0000000000
     19961      3030  TIP3      H1             12.3022444368       15.9624684025      -31.6729867286  TIP3      2934            0.0000000000
     19962      3030  TIP3      H2             12.4978321868       15.6825765270      -33.1473320866  TIP3      2934            0.0000000000
     19963      3031  TIP3      OH2            13.2050887117       15.8598678501      -37.2671105328  TIP3      2935            0.0000000000
     19964      3031  TIP3      H1             13.8511446365       16.3507717547      -37.8142127235  TIP3      2935            0.0000000000
     19965      3031  TIP3      H2             12.6181892619       16.6175880961      -37.0626372090  TIP3      2935            0.0000000000
     19966      3032  TIP3      OH2            22.9710348105       19.5861718265      -27.2913940873  TIP3      2936            0.0000000000
     19967      3032  TIP3      H1             23.6859905002       19.1646768104      -27.7914456003  TIP3      2936            0.0000000000
     19968      3032  TIP3      H2             23.0467876392       19.1874606766      -26.4048560112  TIP3      2936            0.0000000000
     19969      3033  TIP3      OH2            20.5828338300       15.9762446627      -32.0192864608  TIP3      2937            0.0000000000
     19970      3033  TIP3      H1             19.6679383575       15.6701362360      -31.9270015112  TIP3      2937            0.0000000000
     19971      3033  TIP3      H2             21.0939139082       15.2163970738      -31.6536177166  TIP3      2937            0.0000000000
     19972      3034  TIP3      OH2            14.2954809760       16.6460659746      -33.5459006799  TIP3      2938            0.0000000000
     19973      3034  TIP3      H1             13.7468672858       17.1424081476      -34.1857919920  TIP3      2938            0.0000000000
     19974      3034  TIP3      H2             14.6197193648       15.9150504973      -34.1110820014  TIP3      2938            0.0000000000
     19975      3035  TIP3      OH2            18.5241583452       17.4450491917      -35.2064563184  TIP3      2939            0.0000000000
     19976      3035  TIP3      H1             19.5050048519       17.3788598553      -35.1643120072  TIP3      2939            0.0000000000
     19977      3035  TIP3      H2             18.3659717365       17.8941735427      -36.0543049395  TIP3      2939            0.0000000000
     19978      3036  TIP3      OH2            25.0938693217       14.2466993624      -28.9618746933  TIP3      2940            0.0000000000
     19979      3036  TIP3      H1             24.2711650223       14.6115639911      -28.6197226189  TIP3      2940            0.0000000000
     19980      3036  TIP3      H2             24.8769759567       13.9445743529      -29.8581652291  TIP3      2940            0.0000000000
     19981      3037  TIP3      OH2            17.0425696292       18.7632321338      -38.4807435492  TIP3      2941            0.0000000000
     19982      3037  TIP3      H1             17.0253587609       18.7144967787      -39.4484764557  TIP3      2941            0.0000000000
     19983      3037  TIP3      H2             17.9939853639       18.8563694093      -38.2929887075  TIP3      2941            0.0000000000
     19984      3038  TIP3      OH2            15.1820962815       23.5539123573      -22.7567831085  TIP3      2942            0.0000000000
     19985      3038  TIP3      H1             16.0323037340       24.0186284409      -22.8250629008  TIP3      2942            0.0000000000
     19986      3038  TIP3      H2             15.4699124063       22.8280630564      -22.1807254535  TIP3      2942            0.0000000000
     19987      3039  TIP3      OH2            21.5477351435       17.9538056688      -30.2850063348  TIP3      2943            0.0000000000
     19988      3039  TIP3      H1             22.1834931632       18.1485282327      -31.0056286501  TIP3      2943            0.0000000000
     19989      3039  TIP3      H2             21.1149935246       17.1836530526      -30.6900366299  TIP3      2943            0.0000000000
     19990      3040  TIP3      OH2            15.9357572445       14.3518617869      -34.2023940473  TIP3      2944            0.0000000000
     19991      3040  TIP3      H1             15.2751816469       13.8297869708      -33.6931132295  TIP3      2944            0.0000000000
     19992      3040  TIP3      H2             16.4690302663       13.6227258378      -34.5521724465  TIP3      2944            0.0000000000
     19993      3041  TIP3      OH2            19.6910959828       17.1226946795      -27.2087084775  TIP3      2945            0.0000000000
     19994      3041  TIP3      H1             18.9234270060       17.5682856306      -27.6343241538  TIP3      2945            0.0000000000
     19995      3041  TIP3      H2             19.8851286915       17.7645765205      -26.4962603548  TIP3      2945            0.0000000000
     19996      3042  TIP3      OH2            20.5209954793       22.9842800241      -36.0946924687  TIP3      2946            0.0000000000
     19997      3042  TIP3      H1             19.7443395575       22.4554428008      -36.3890621665  TIP3      2946            0.0000000000
     19998      3042  TIP3      H2             20.1959100673       23.3688238895      -35.2529040618  TIP3      2946            0.0000000000
     19999      3043  TIP3      OH2            23.7636761697       15.6178162407      -37.3337241286  TIP3      2947            0.0000000000
     20000      3043  TIP3      H1             23.0403061835       15.3243437765      -37.9377816472  TIP3      2947            0.0000000000
     20001      3043  TIP3      H2             24.2715867219       16.1543331069      -37.9897501021  TIP3      2947            0.0000000000
     20002      3044  TIP3      OH2            22.2968779449       23.7139002905      -24.6454403878  TIP3      2948            0.0000000000
     20003      3044  TIP3      H1             21.4877206133       23.2717395191      -24.9330468633  TIP3      2948            0.0000000000
     20004      3044  TIP3      H2             22.1130977482       24.6210196147      -24.9648640432  TIP3      2948            0.0000000000
     20005      3045  TIP3      OH2            25.3692953937       17.5866293479      -35.8105021230  TIP3      2949            0.0000000000
     20006      3045  TIP3      H1             25.3798442414       16.7021755798      -36.2198167980  TIP3      2949            0.0000000000
     20007      3045  TIP3      H2             25.1904735923       18.0847831263      -36.6339602041  TIP3      2949            0.0000000000
     20008      3046  TIP3      OH2            15.8458084354       22.1528639855      -30.8222407019  TIP3      2950            0.0000000000
     20009      3046  TIP3      H1             16.6371194726       22.5626700804      -31.2222219874  TIP3      2950            0.0000000000
     20010      3046  TIP3      H2             16.2279078086       21.5618478236      -30.1441463944  TIP3      2950            0.0000000000
     20011      3047  TIP3      OH2            22.6446695922       24.1911685393      -37.0032310837  TIP3      2951            0.0000000000
     20012      3047  TIP3      H1             22.4633504956       24.3920538850      -37.9240652416  TIP3      2951            0.0000000000
     20013      3047  TIP3      H2             21.8092939864       23.7265157248      -36.7570199855  TIP3      2951            0.0000000000
     20014      3048  TIP3      OH2            12.4830581902       20.9164979429      -25.4521580102  TIP3      2952            0.0000000000
     20015      3048  TIP3      H1             12.6178616776       20.1357812660      -24.9093467519  TIP3      2952            0.0000000000
     20016      3048  TIP3      H2             11.9704686935       20.5425877109      -26.1901902415  TIP3      2952            0.0000000000
     20017      3049  TIP3      OH2            24.3276288530       25.9344478115      -24.0642498467  TIP3      2953            0.0000000000
     20018      3049  TIP3      H1             24.8175315652       25.7528589246      -24.8741561490  TIP3      2953            0.0000000000
     20019      3049  TIP3      H2             23.4317703818       26.0253021035      -24.4506369415  TIP3      2953            0.0000000000
     20020      3050  TIP3      OH2            25.1596840402       21.8251790234      -28.7301154158  TIP3      2954            0.0000000000
     20021      3050  TIP3      H1             24.6478153850       21.8000067239      -29.5539414935  TIP3      2954            0.0000000000
     20022      3050  TIP3      H2             26.0750866807       21.9050567299      -29.0906537316  TIP3      2954            0.0000000000
     20023      3051  TIP3      OH2            17.1584162123      -26.1111373132      -32.6447481431  TIP3      2955            0.0000000000
     20024      3051  TIP3      H1             17.5093451088      -25.3179680985      -33.1092711022  TIP3      2955            0.0000000000
     20025      3051  TIP3      H2             16.4118203768      -26.3552061760      -33.1953135608  TIP3      2955            0.0000000000
     20026      3052  TIP3      OH2            14.2047610150       21.1842133469      -39.3960555694  TIP3      2956            0.0000000000
     20027      3052  TIP3      H1             14.7929282071       21.8362106552      -38.9585818254  TIP3      2956            0.0000000000
     20028      3052  TIP3      H2             13.5138639918       21.1167763911      -38.7219187261  TIP3      2956            0.0000000000
     20029      3053  TIP3      OH2            19.5876431611       23.8996197666      -33.6375513850  TIP3      2957            0.0000000000
     20030      3053  TIP3      H1             18.9011547771       24.4701995803      -33.2506461308  TIP3      2957            0.0000000000
     20031      3053  TIP3      H2             19.3187517952       23.0156944148      -33.3069931140  TIP3      2957            0.0000000000
     20032      3054  TIP3      OH2            23.1598987867       23.2719500186      -27.4078101815  TIP3      2958            0.0000000000
     20033      3054  TIP3      H1             23.0681532726       22.8858648485      -26.5324817552  TIP3      2958            0.0000000000
     20034      3054  TIP3      H2             23.6906551238       22.5788349850      -27.8607165301  TIP3      2958            0.0000000000
     20035      3055  TIP3      OH2            25.4334145543       24.5416348681      -37.4600519599  TIP3      2959            0.0000000000
     20036      3055  TIP3      H1             25.4153794116       23.8641066775      -38.1789262265  TIP3      2959            0.0000000000
     20037      3055  TIP3      H2             24.5018096493       24.4696811413      -37.1839011672  TIP3      2959            0.0000000000
     20038      3056  TIP3      OH2            19.0480136304       25.7587389944      -36.9632993610  TIP3      2960            0.0000000000
     20039      3056  TIP3      H1             18.8590132587       25.1992600368      -36.1942206127  TIP3      2960            0.0000000000
     20040      3056  TIP3      H2             19.1477577639       26.6443141317      -36.5803116138  TIP3      2960            0.0000000000
     20041      3057  TIP3      OH2            15.2499113932       22.8339961377      -37.4830155432  TIP3      2961            0.0000000000
     20042      3057  TIP3      H1             14.4892755858       23.2696968514      -37.0521076801  TIP3      2961            0.0000000000
     20043      3057  TIP3      H2             15.6986637146       23.6088234884      -37.8772097425  TIP3      2961            0.0000000000
     20044      3058  TIP3      OH2            22.8486831648       15.0535904329      -26.6763871436  TIP3      2962            0.0000000000
     20045      3058  TIP3      H1             23.6119774962       15.2692557665      -26.1053254049  TIP3      2962            0.0000000000
     20046      3058  TIP3      H2             22.7354405900       14.0991311264      -26.4565474677  TIP3      2962            0.0000000000
     20047      3059  TIP3      OH2            23.7247918353       14.5071181058      -34.8608694884  TIP3      2963            0.0000000000
     20048      3059  TIP3      H1             23.5570612122       14.9449393336      -35.7342752226  TIP3      2963            0.0000000000
     20049      3059  TIP3      H2             23.9327807261       15.2733977709      -34.2825292188  TIP3      2963            0.0000000000
     20050      3060  TIP3      OH2            21.3107993207       16.7961971279      -34.7584730925  TIP3      2964            0.0000000000
     20051      3060  TIP3      H1             22.1170712816       17.3068109565      -34.5528151339  TIP3      2964            0.0000000000
     20052      3060  TIP3      H2             21.2756210714       16.2260432924      -33.9723631601  TIP3      2964            0.0000000000
     20053      3061  TIP3      OH2            21.7142193736       17.7922199471      -25.4916866556  TIP3      2965            0.0000000000
     20054      3061  TIP3      H1             21.5838010342       18.4799877543      -24.8018834373  TIP3      2965            0.0000000000
     20055      3061  TIP3      H2             21.8357265625       16.9961180830      -24.9374717743  TIP3      2965            0.0000000000
     20056      3062  TIP3      OH2            21.3742207221       13.4260448169      -34.1971148234  TIP3      2966            0.0000000000
     20057      3062  TIP3      H1             21.3652045846       13.7271976043      -33.2667598273  TIP3      2966            0.0000000000
     20058      3062  TIP3      H2             22.3166942079       13.6319844641      -34.4254356777  TIP3      2966            0.0000000000
     20059      3063  TIP3      OH2            17.9134021078       15.0156145799      -37.1200621386  TIP3      2967            0.0000000000
     20060      3063  TIP3      H1             17.5828166342       15.6046681595      -36.4227948326  TIP3      2967            0.0000000000
     20061      3063  TIP3      H2             18.7210574884       14.6466718805      -36.7277855074  TIP3      2967            0.0000000000
     20062      3064  TIP3      OH2            16.1225715133       25.1622103550      -38.5235276354  TIP3      2968            0.0000000000
     20063      3064  TIP3      H1             16.5817816262       25.6359540681      -37.8136142407  TIP3      2968            0.0000000000
     20064      3064  TIP3      H2             16.8339378042       24.6621866522      -38.9805006155  TIP3      2968            0.0000000000
     20065      3065  TIP3      OH2            13.9601618065       18.2535399094      -38.4564254072  TIP3      2969            0.0000000000
     20066      3065  TIP3      H1             14.7292788504       18.8556528556      -38.5853368582  TIP3      2969            0.0000000000
     20067      3065  TIP3      H2             13.2032962457       18.8328342449      -38.6398498374  TIP3      2969            0.0000000000
     20068      3066  TIP3      OH2            14.6813046305       12.7987926590      -30.5744865906  TIP3      2970            0.0000000000
     20069      3066  TIP3      H1             14.7863125530       12.7282251580      -31.5517309019  TIP3      2970            0.0000000000
     20070      3066  TIP3      H2             14.1597159106       11.9833159782      -30.4511311200  TIP3      2970            0.0000000000
     20071      3067  TIP3      OH2            18.1478939306       23.3433694123      -38.9582533645  TIP3      2971            0.0000000000
     20072      3067  TIP3      H1             18.1692799628       22.7392116403      -38.1894368050  TIP3      2971            0.0000000000
     20073      3067  TIP3      H2             18.9616241619       23.0896795292      -39.3977194895  TIP3      2971            0.0000000000
     20074      3068  TIP3      OH2            24.8547945138       22.4982715105      -24.3952063029  TIP3      2972            0.0000000000
     20075      3068  TIP3      H1             25.3304384015       23.0580721036      -25.0345873952  TIP3      2972            0.0000000000
     20076      3068  TIP3      H2             23.9618858851       22.9028445479      -24.4131432971  TIP3      2972            0.0000000000
     20077      3069  TIP3      OH2            18.6496677335       21.3674208652      -37.0638212988  TIP3      2973            0.0000000000
     20078      3069  TIP3      H1             17.8770470715       20.9000041939      -36.6856988791  TIP3      2973            0.0000000000
     20079      3069  TIP3      H2             19.0822663990       20.6096011664      -37.5120638844  TIP3      2973            0.0000000000
     20080      3070  TIP3      OH2            18.4657032441       19.4011762598      -25.3543863834  TIP3      2974            0.0000000000
     20081      3070  TIP3      H1             18.0735657939       19.9822356478      -24.6725679399  TIP3      2974            0.0000000000
     20082      3070  TIP3      H2             18.8686535892       20.0441199395      -25.9705784429  TIP3      2974            0.0000000000
     20083      3071  TIP3      OH2            19.8925976619       19.1052764121      -38.2281644395  TIP3      2975            0.0000000000
     20084      3071  TIP3      H1             19.6570629006       19.2421169953      -39.1799746248  TIP3      2975            0.0000000000
     20085      3071  TIP3      H2             20.8736802165       19.1704118165      -38.2975464347  TIP3      2975            0.0000000000
     20086      3072  TIP3      OH2            18.4455818004       16.8935463530      -24.4361737587  TIP3      2976            0.0000000000
     20087      3072  TIP3      H1             18.0897728454       16.2348849397      -25.0401272334  TIP3      2976            0.0000000000
     20088      3072  TIP3      H2             18.4873265211       17.7308983038      -24.9633633756  TIP3      2976            0.0000000000
     20089      3073  TIP3      OH2            18.4766711826       14.7621523000      -26.5310402115  TIP3      2977            0.0000000000
     20090      3073  TIP3      H1             19.0229801132       15.5258114276      -26.8291209916  TIP3      2977            0.0000000000
     20091      3073  TIP3      H2             17.6020767220       15.0100623864      -26.8497163096  TIP3      2977            0.0000000000
     20092      3074  TIP3      OH2            19.8740024872       20.6995853116      -27.2220526755  TIP3      2978            0.0000000000
     20093      3074  TIP3      H1             20.6848514879       21.2250661675      -27.1590010736  TIP3      2978            0.0000000000
     20094      3074  TIP3      H2             19.2029501028       21.3969833198      -27.3991924175  TIP3      2978            0.0000000000
     20095      3075  TIP3      OH2            16.8211337197       17.6846453416      -22.3589655547  TIP3      2979            0.0000000000
     20096      3075  TIP3      H1             17.5473340047       17.3793066032      -22.9499828604  TIP3      2979            0.0000000000
     20097      3075  TIP3      H2             16.9151707917       18.6514893657      -22.4942591316  TIP3      2979            0.0000000000
     20098      3076  TIP3      OH2            19.7886722033       12.3618704524      -25.9140083213  TIP3      2980            0.0000000000
     20099      3076  TIP3      H1             19.4762323262       13.2356035843      -26.2250456927  TIP3      2980            0.0000000000
     20100      3076  TIP3      H2             19.4483859535       11.7337773251      -26.5698467495  TIP3      2980            0.0000000000
     20101      3077  TIP3      OH2            20.4041450404       16.9684533859      -22.5584557325  TIP3      2981            0.0000000000
     20102      3077  TIP3      H1             20.0060458802       17.1407981223      -21.6861331960  TIP3      2981            0.0000000000
     20103      3077  TIP3      H2             19.6387132989       16.7043284342      -23.1115850568  TIP3      2981            0.0000000000
     20104      3078  TIP3      OH2            22.9114065851       15.8787024838      -23.2648097199  TIP3      2982            0.0000000000
     20105      3078  TIP3      H1             22.0651857110       16.1755410297      -22.8682047563  TIP3      2982            0.0000000000
     20106      3078  TIP3      H2             23.0543933923       15.0342666519      -22.8172458866  TIP3      2982            0.0000000000
     20107      3079  TIP3      OH2            25.2866299579       14.3896128975      -21.1485465156  TIP3      2983            0.0000000000
     20108      3079  TIP3      H1             24.5680821115       13.8677969768      -20.7344394761  TIP3      2983            0.0000000000
     20109      3079  TIP3      H2             25.3975488876       15.0809865019      -20.4644579814  TIP3      2983            0.0000000000
     20110      3080  TIP3      OH2            19.9544486489       12.5328065735      -23.1815976588  TIP3      2984            0.0000000000
     20111      3080  TIP3      H1             20.3808419299       11.6682852690      -23.2954797022  TIP3      2984            0.0000000000
     20112      3080  TIP3      H2             19.7182062554       12.6760495399      -24.1157586357  TIP3      2984            0.0000000000
     20113      3081  TIP3      OH2            20.8473441106       14.1158907474      -21.0974336951  TIP3      2985            0.0000000000
     20114      3081  TIP3      H1             20.3520370561       13.5815468922      -21.7581407735  TIP3      2985            0.0000000000
     20115      3081  TIP3      H2             20.2530171341       14.8855914866      -21.0385999234  TIP3      2985            0.0000000000
     20116      3082  TIP3      OH2            12.9386030617       24.3638157948      -38.4821990348  TIP3      2986            0.0000000000
     20117      3082  TIP3      H1             13.7538197039       24.8931030146      -38.4493680192  TIP3      2986            0.0000000000
     20118      3082  TIP3      H2             12.7217152736       24.4752595351      -39.4194964618  TIP3      2986            0.0000000000
     20119      3083  TIP3      OH2            12.7802573414       21.8155136573      -29.3556387191  TIP3      2987            0.0000000000
     20120      3083  TIP3      H1             12.7247977485       21.5311573462      -30.2926190907  TIP3      2987            0.0000000000
     20121      3083  TIP3      H2             13.6881729428       21.5241154436      -29.1108395561  TIP3      2987            0.0000000000
     20122      3084  TIP3      OH2            12.8158995785       16.9537379660      -23.7440399335  TIP3      2988            0.0000000000
     20123      3084  TIP3      H1             13.0161060941       16.7953335665      -22.8025478799  TIP3      2988            0.0000000000
     20124      3084  TIP3      H2             11.8640275800       17.0942864892      -23.7244282609  TIP3      2988            0.0000000000
     20125      3085  TIP3      OH2            13.5265289231       15.0505223838      -29.6893546334  TIP3      2989            0.0000000000
     20126      3085  TIP3      H1             13.8689130040       14.2630540695      -30.1625979414  TIP3      2989            0.0000000000
     20127      3085  TIP3      H2             14.1899312806       15.7168358436      -29.9325443050  TIP3      2989            0.0000000000
     20128      3086  TIP3      OH2            11.8203850017       18.3529109780      -29.5020010004  TIP3      2990            0.0000000000
     20129      3086  TIP3      H1             12.4135438507       18.3875065224      -30.2826542783  TIP3      2990            0.0000000000
     20130      3086  TIP3      H2             12.2605700038       18.9656737633      -28.8920110410  TIP3      2990            0.0000000000
     20131      3087  TIP3      OH2            12.3829252962       14.0435172296      -35.2942203065  TIP3      2991            0.0000000000
     20132      3087  TIP3      H1             11.4378209289       14.0413054456      -35.4800122770  TIP3      2991            0.0000000000
     20133      3087  TIP3      H2             12.6871824624       14.6398000235      -36.0013625622  TIP3      2991            0.0000000000
     20134      3088  TIP3      OH2            12.2503265643       12.9515313041      -26.9170128441  TIP3      2992            0.0000000000
     20135      3088  TIP3      H1             11.5483957145       12.6938706880      -26.2816201698  TIP3      2992            0.0000000000
     20136      3088  TIP3      H2             11.8074634605       13.6598774796      -27.4292825627  TIP3      2992            0.0000000000
     20137      3089  TIP3      OH2            21.9048249093       13.7575762498      -31.3529901624  TIP3      2993            0.0000000000
     20138      3089  TIP3      H1             21.4311509418       13.0095616848      -30.9314937038  TIP3      2993            0.0000000000
     20139      3089  TIP3      H2             22.7027679037       13.3074285534      -31.6983927274  TIP3      2993            0.0000000000
     20140      3090  TIP3      OH2            14.4335533828       12.1110585209      -33.1807105021  TIP3      2994            0.0000000000
     20141      3090  TIP3      H1             13.5730473071       12.0073985934      -33.6475069872  TIP3      2994            0.0000000000
     20142      3090  TIP3      H2             14.8870487883       11.2652157759      -33.4053920771  TIP3      2994            0.0000000000
     20143      3091  TIP3      OH2            13.8801798790       12.2211778292      -37.0856573310  TIP3      2995            0.0000000000
     20144      3091  TIP3      H1             14.0546996900       12.9932169300      -37.6646356903  TIP3      2995            0.0000000000
     20145      3091  TIP3      H2             13.1157238365       12.5181994188      -36.5679495332  TIP3      2995            0.0000000000
     20146      3092  TIP3      OH2            18.5283690925       12.2879697652      -33.0524082965  TIP3      2996            0.0000000000
     20147      3092  TIP3      H1             19.2005510265       12.4027786059      -33.7471525794  TIP3      2996            0.0000000000
     20148      3092  TIP3      H2             19.0747313449       12.4455080505      -32.2576991069  TIP3      2996            0.0000000000
     20149      3093  TIP3      OH2            24.2286065589       12.3979892522      -31.9135473581  TIP3      2997            0.0000000000
     20150      3093  TIP3      H1             25.1230506588       12.2162817031      -32.2587969936  TIP3      2997            0.0000000000
     20151      3093  TIP3      H2             24.0494031460       11.5969662397      -31.3790702843  TIP3      2997            0.0000000000
     20152      3094  TIP3      OH2            15.2258626150       13.9970377017      -38.8419823360  TIP3      2998            0.0000000000
     20153      3094  TIP3      H1             15.9041481400       13.4042831116      -39.1912466366  TIP3      2998            0.0000000000
     20154      3094  TIP3      H2             15.7169991159       14.6058961925      -38.2727898397  TIP3      2998            0.0000000000
     20155      3095  TIP3      OH2            20.7443280687       14.6134127220      -36.6375916255  TIP3      2999            0.0000000000
     20156      3095  TIP3      H1             20.8092476082       14.0884383320      -35.8116616393  TIP3      2999            0.0000000000
     20157      3095  TIP3      H2             20.9785937915       15.4975133260      -36.2870950062  TIP3      2999            0.0000000000
     20158      3096  TIP3      OH2            25.6685804994       11.4710353685      -21.1912063444  TIP3      3000            0.0000000000
     20159      3096  TIP3      H1             25.3454874853       11.4128355031      -20.2828687304  TIP3      3000            0.0000000000
     20160      3096  TIP3      H2             25.8290566578       12.4351499328      -21.2689993565  TIP3      3000            0.0000000000
     20161      3097  TIP3      OH2           -10.9360836259      -15.9293701420      -20.6149096719  TIP3      3001            0.0000000000
     20162      3097  TIP3      H1            -11.4593964394      -16.1771501790      -21.4042922912  TIP3      3001            0.0000000000
     20163      3097  TIP3      H2            -10.2477531262      -15.4010217523      -21.0143089607  TIP3      3001            0.0000000000
     20164      3098  TIP3      OH2           -20.4660894904      -14.4810343689      -21.3720947168  TIP3      3002            0.0000000000
     20165      3098  TIP3      H1            -19.7739003575      -14.6838774158      -20.7311639738  TIP3      3002            0.0000000000
     20166      3098  TIP3      H2            -20.2201990357      -13.5589298664      -21.5925562496  TIP3      3002            0.0000000000
     20167      3099  TIP3      OH2           -22.1672702591       -8.8164826116      -20.4732498885  TIP3      3003            0.0000000000
     20168      3099  TIP3      H1            -22.3696082604       -8.6644180067      -19.5326838755  TIP3      3003            0.0000000000
     20169      3099  TIP3      H2            -21.3366096110       -9.3305642416      -20.4623690788  TIP3      3003            0.0000000000
     20170      3100  TIP3      OH2            -0.7846227324      -22.4705996632      -20.3188590350  TIP3      3004            0.0000000000
     20171      3100  TIP3      H1             -0.2525929901      -22.1830263281      -19.5536453738  TIP3      3004            0.0000000000
     20172      3100  TIP3      H2             -0.9579632698      -21.6452599860      -20.8057564798  TIP3      3004            0.0000000000
     20173      3101  TIP3      OH2             9.7018569482      -21.9474118839      -20.3745624477  TIP3      3005            0.0000000000
     20174      3101  TIP3      H1             10.2026319164      -22.6513402010      -19.9004002504  TIP3      3005            0.0000000000
     20175      3101  TIP3      H2              8.8115017346      -22.2740308167      -20.1843259712  TIP3      3005            0.0000000000
     20176      3102  TIP3      OH2            22.2627874087       -9.6096481787      -21.2549345290  TIP3      3006            0.0000000000
     20177      3102  TIP3      H1             21.8163642991      -10.1346908375      -20.5750147747  TIP3      3006            0.0000000000
     20178      3102  TIP3      H2             22.9456858138      -10.2353818016      -21.5875038210  TIP3      3006            0.0000000000
     20179      3103  TIP3      OH2            19.3756767334      -17.9128551853      -20.9045146464  TIP3      3007            0.0000000000
     20180      3103  TIP3      H1             19.3390651893      -17.5028401292      -21.7879139770  TIP3      3007            0.0000000000
     20181      3103  TIP3      H2             20.0637847129      -17.4312620852      -20.4489069869  TIP3      3007            0.0000000000
     20182      3104  TIP3      OH2           -22.7212258843        9.9923922713      -19.9825014360  TIP3      3008            0.0000000000
     20183      3104  TIP3      H1            -23.4394899994        9.3833567465      -20.2201126749  TIP3      3008            0.0000000000
     20184      3104  TIP3      H2            -21.9396969683        9.4408528168      -20.0778879141  TIP3      3008            0.0000000000
     20185      3105  TIP3      OH2             7.5534259773        2.8910452125      -20.2556108499  TIP3      3009            0.0000000000
     20186      3105  TIP3      H1              7.1770312398        2.9222863626      -21.1504361552  TIP3      3009            0.0000000000
     20187      3105  TIP3      H2              8.2909186230        2.2712527601      -20.3541774813  TIP3      3009            0.0000000000
     20188      3106  TIP3      OH2            15.7336221296        9.9664256641      -20.8377512914  TIP3      3010            0.0000000000
     20189      3106  TIP3      H1             16.1207313784       10.8535674825      -20.8278397609  TIP3      3010            0.0000000000
     20190      3106  TIP3      H2             16.3991913455        9.4018197100      -20.4248281131  TIP3      3010            0.0000000000
     20191      3107  TIP3      OH2           -18.4229645105       25.2509892012      -20.9935611890  TIP3      3011            0.0000000000
     20192      3107  TIP3      H1            -17.5255974559       25.2456337909      -21.3593623201  TIP3      3011            0.0000000000
     20193      3107  TIP3      H2            -18.3833751764       25.9903792036      -20.3510361295  TIP3      3011            0.0000000000
     20194      3108  TIP3      OH2            -9.9803601124       18.0065599470      -20.8285543569  TIP3      3012            0.0000000000
     20195      3108  TIP3      H1             -9.3201961744       17.8710194280      -21.5243154278  TIP3      3012            0.0000000000
     20196      3108  TIP3      H2            -10.3327316110       17.1059026692      -20.7862670007  TIP3      3012            0.0000000000
     20197      3109  TIP3      OH2            -9.9906302441       15.2215530689      -20.9226478900  TIP3      3013            0.0000000000
     20198      3109  TIP3      H1             -9.4627226178       15.3147260219      -20.1012954472  TIP3      3013            0.0000000000
     20199      3109  TIP3      H2            -10.8028696887       14.8005270405      -20.6226868350  TIP3      3013            0.0000000000
     20200      3110  TIP3      OH2             0.2000616611       25.5454080810      -21.4023819231  TIP3      3014            0.0000000000
     20201      3110  TIP3      H1             -0.0674062472       24.9758921318      -22.1493562900  TIP3      3014            0.0000000000
     20202      3110  TIP3      H2             -0.0842884552       25.0156975918      -20.6401009412  TIP3      3014            0.0000000000
     20203      3111  TIP3      OH2            -4.4407313176       18.4491716807      -19.7411035426  TIP3      3015            0.0000000000
     20204      3111  TIP3      H1             -4.9525560192       19.2044791395      -20.0419780353  TIP3      3015            0.0000000000
     20205      3111  TIP3      H2             -4.9527631643       17.6744237328      -20.0243730671  TIP3      3015            0.0000000000
     20206      3112  TIP3      OH2            18.0169701280       15.5533964415      -21.1587245512  TIP3      3016            0.0000000000
     20207      3112  TIP3      H1             17.2337122023       15.1138104591      -20.7792892522  TIP3      3016            0.0000000000
     20208      3112  TIP3      H2             17.6426659629       16.4218910555      -21.3873519711  TIP3      3016            0.0000000000
     20209      3113  TIP3      OH2            18.6153988278       25.7599659703      -21.2821327044  TIP3      3017            0.0000000000
     20210      3113  TIP3      H1             19.0600940879       25.1580427637      -21.8775742594  TIP3      3017            0.0000000000
     20211      3113  TIP3      H2             19.3071534043       26.1980810357      -20.7526675135  TIP3      3017            0.0000000000
     20212      3114  TIP3      OH2            22.8677508244       24.1052091610      -20.9850116453  TIP3      3018            0.0000000000
     20213      3114  TIP3      H1             22.3904065774       24.9245183188      -20.7821510673  TIP3      3018            0.0000000000
     20214      3114  TIP3      H2             22.3738862471       23.8053954081      -21.7639680658  TIP3      3018            0.0000000000
     20215      3115  SOD       SOD           -24.5850986415       -9.0589472954      -33.8228722948  IONS      1               1.0000000000
     20216      3116  SOD       SOD            -5.6318979505       -8.4638039023       33.9955300086  IONS      2               1.0000000000
     20217      3117  SOD       SOD            15.6464007234       12.0047022574      -28.5262195367  IONS      3               1.0000000000
     20218      3118  SOD       SOD            23.1875863537      -17.4230131214      -32.1881100039  IONS      4               1.0000000000
     20219      3119  SOD       SOD            -9.4883806258       15.9860828627      -32.8685785720  IONS      5               1.0000000000
     20220      3120  SOD       SOD           -20.8993984677        6.9098906321      -25.7018880916  IONS      6               1.0000000000
     20221      3121  SOD       SOD            20.2682791052        3.2963856046       35.0973618884  IONS      7               1.0000000000
     20222      3122  SOD       SOD             5.3659012840      -15.2288504275       28.9872466220  IONS      8               1.0000000000
     20223      3123  SOD       SOD           -11.8310179998      -21.4552257319       31.8952586424  IONS      9               1.0000000000
     20224      3124  SOD       SOD             3.9001062471       -0.4126925721      -36.3796284634  IONS      10              1.0000000000
     20225      3125  SOD       SOD            22.0092015652       17.0986282075      -27.6761256889  IONS      11              1.0000000000
     20226      3126  SOD       SOD            -8.8460799992       12.5062389355       31.3769262064  IONS      12              1.0000000000
     20227      3127  SOD       SOD           -19.5604015866      -21.8762877604      -29.2495813581  IONS      13              1.0000000000
     20228      3128  SOD       SOD            23.8779357636      -25.1214612926      -34.2989585385  IONS      14              1.0000000000
     20229      3129  SOD       SOD           -11.2053160491        5.1268433753       20.0268081481  IONS      15              1.0000000000
     20230      3130  SOD       SOD             8.6402687032        3.1916663479       34.7038351751  IONS      16              1.0000000000
     20231      3131  SOD       SOD            22.4404443527       17.9087690035       23.9920879087  IONS      17              1.0000000000
     20232      3132  CLA       CLA             4.8539762316      -10.1685241738      -39.3286476435  IONS      18             -1.0000000000
     20233      3133  CLA       CLA            25.5914092159       17.2624752945      -38.9827371344  IONS      19             -1.0000000000
     20234      3134  CLA       CLA           -19.9388388799       10.6009663143       34.5196471896  IONS      20             -1.0000000000
     20235      3135  CLA       CLA            18.1172861430        7.1777430723       31.5790812498  IONS      21             -1.0000000000
     20236      3136  CLA       CLA            10.2608794207        4.2870047149       32.6831906233  IONS      22             -1.0000000000
     20237      3137  CLA       CLA            25.4374550093       22.3246372254      -39.6110987499  IONS      23             -1.0000000000
     20238      3138  CLA       CLA            16.0418395232      -11.2679163732      -35.2064861395  IONS      24             -1.0000000000
