* GENERATED BY CHARMM-GUI (HTTP://WWW.CHARMM-GUI.ORG) V3.7 ON OCT, 21. 2024. JOB
* GENERATES ION CONFORMATION USING MONTE-CARLO SIMULATION
*  DATE:    10/21/24     14: 1: 6      CREATED BY USER: apache
*
        24  EXT
         1         1  SOD       SOD           -24.4600198752       -9.6860186228      -34.9681059567  IONS      1               1.0000000000
         2         2  SOD       SOD            -4.6923536700       -8.8332585000       33.6104954000  IONS      2               1.0000000000
         3         3  SOD       SOD            14.7576279000       11.7805328000      -28.9329433000  IONS      3               1.0000000000
         4         4  SOD       SOD            22.7113310000      -17.1138480000      -31.7434658000  IONS      4               1.0000000000
         5         5  SOD       SOD           -11.5930868000       16.4335544000      -33.5414891000  IONS      5               1.0000000000
         6         6  SOD       SOD           -20.4935006000        7.6547208900      -25.7069248000  IONS      6               1.0000000000
         7         7  SOD       SOD            21.1717509000        4.0521077600       35.9416117000  IONS      7               1.0000000000
         8         8  SOD       SOD             4.3735613519      -15.0627723082       28.7620342270  IONS      8               1.0000000000
         9         9  SOD       SOD           -11.7902640609      -21.4733001094       32.6295997046  IONS      9               1.0000000000
        10        10  SOD       SOD             5.0638261100       -0.2161154920      -36.1810024000  IONS      10              1.0000000000
        11        11  SOD       SOD            22.7456040000       17.4578902000      -28.6125561000  IONS      11              1.0000000000
        12        12  SOD       SOD            -9.7586852700       12.3091159000       32.3566880000  IONS      12              1.0000000000
        13        13  SOD       SOD           -20.8865064290      -22.4191896961      -29.8598155066  IONS      13              1.0000000000
        14        14  SOD       SOD            23.4136176000      -25.5301246000      -34.1997260000  IONS      14              1.0000000000
        15        15  SOD       SOD           -10.9292583882        3.0198213637       20.5878510650  IONS      15              1.0000000000
        16        16  SOD       SOD             9.1759578400        2.6838740000       36.1448713000  IONS      16              1.0000000000
        17        17  SOD       SOD            22.8358274888       18.3454219675       24.4350532204  IONS      17              1.0000000000
        18        18  CLA       CLA             4.4774846700       -9.8319507400      -38.9985857000  IONS      18             -1.0000000000
        19        19  CLA       CLA           -25.5862643000       19.0141457000      -38.3036420000  IONS      19             -1.0000000000
        20        20  CLA       CLA           -20.5159980059       10.3712464190       33.0290017667  IONS      20             -1.0000000000
        21        21  CLA       CLA            17.4873363000        6.5670118300       31.0671226000  IONS      21             -1.0000000000
        22        22  CLA       CLA            11.7977373000        4.2160730900       32.5136780000  IONS      22             -1.0000000000
        23        23  CLA       CLA            24.9773041124       21.0206944969      -39.0729308935  IONS      23             -1.0000000000
        24        24  CLA       CLA            16.9373843000       -9.9150140900      -34.3117979000  IONS      24             -1.0000000000
