Title
81347
    1CHL1    C3    1   1.322   4.209  10.186  0.7411 -0.6587 -0.2821
    1CHL1    H3    2   1.416   4.267  10.180  0.1522  0.2118 -1.2431
    1CHL1    O3    3   1.259   4.218  10.314  0.0344  0.4170  0.2784
    1CHL1   H3'    4   1.171   4.185  10.294  0.4054 -0.6363  0.3655
    1CHL1    C4    5   1.231   4.259  10.074 -0.1885  0.6616 -0.0019
    1CHL1   H4A    6   1.138   4.200  10.079 -0.3593  0.9613  0.4297
    1CHL1   H4B    7   1.206   4.364  10.101  0.5988  1.1880 -1.2743
    1CHL1    C5    8   1.298   4.236   9.938 -0.0219  0.6844  0.2058
    1CHL1    C6    9   1.334   4.343   9.864  1.1300 -0.8318 -0.5441
    1CHL1    H6   10   1.296   4.438   9.905  2.8929 -0.7912  1.0979
    1CHL1    C7   11   1.375   4.337   9.719 -0.0997  0.2575 -0.5201
    1CHL1   H7A   12   1.301   4.383   9.650 -1.5634  0.1908  0.9735
    1CHL1   H7B   13   1.470   4.392   9.705  0.1227 -0.1628 -0.6759
    1CHL1    C8   14   1.387   4.189   9.671 -0.4060 -0.3769  0.0142
    1CHL1    H8   15   1.279   4.168   9.658 -0.5319 -1.2929  2.3042
    1CHL1   C14   16   1.482   4.180   9.563 -0.4253  0.3943  0.5544
    1CHL1   H14   17   1.580   4.190   9.613 -1.0509 -1.0995  2.1547
    1CHL1   C15   18   1.464   4.285   9.454 -0.6361 -0.7778  0.3831
    1CHL1  H15A   19   1.356   4.290   9.430 -0.4741  0.3471 -0.1227
    1CHL1  H15B   20   1.500   4.388   9.476 -2.6215  0.3469 -1.4295
    1CHL1   C16   21   1.533   4.234   9.333 -0.3433  0.2784  0.1119
    1CHL1  H16A   22   1.475   4.244   9.239 -0.3962 -1.0929 -0.0033
    1CHL1  H16B   23   1.621   4.292   9.297  1.0279 -2.2930 -0.8145
    1CHL1   C17   24   1.586   4.095   9.373 -0.0512  0.6224 -0.4797
    1CHL1   H17   25   1.686   4.114   9.419  0.3737 -1.1884 -0.6265
    1CHL1   C13   26   1.492   4.042   9.492  0.4857 -0.2857  0.9950
    1CHL1   C18   27   1.353   3.993   9.426 -0.9474 -0.0613  0.1699
    1CHL1  H18A   28   1.305   4.079   9.376  1.5503 -0.3311 -2.8693
    1CHL1  H18B   29   1.354   3.908   9.354 -0.7410 -1.4326  1.7479
    1CHL1  H18C   30   1.291   3.963   9.513  0.2437  0.1373  1.1046
    1CHL1   C12   31   1.553   3.951   9.589  0.4451  0.4611 -0.1054
    1CHL1  H12A   32   1.553   3.843   9.562 -0.4468  0.0428  1.4515
    1CHL1  H12B   33   1.653   3.987   9.621  0.0708 -0.7395  2.6123
    1CHL1   C11   34   1.474   3.950   9.724 -0.4717  0.7906  0.1913
    1CHL1  H11A   35   1.380   3.896   9.701 -0.5154  0.8334  0.2699
    1CHL1  H11B   36   1.537   3.889   9.792 -0.4243 -0.8576 -1.2927
    1CHL1    C9   37   1.437   4.090   9.777  0.1286  0.1782 -0.0790
    1CHL1    H9   38   1.535   4.131   9.809  0.7045 -0.2917 -1.1910
    1CHL1   C10   39   1.337   4.092   9.902 -1.0198  0.3395  0.1752
    1CHL1   C19   40   1.205   4.020   9.876 -0.0699 -0.3394  0.7272
    1CHL1  H19A   41   1.139   4.017   9.965 -1.1845 -0.9173 -0.1103
    1CHL1  H19B   42   1.143   4.071   9.800  0.2405  0.5983  1.0953
    1CHL1  H19C   43   1.222   3.917   9.839 -1.1464  0.0045 -0.7675
    1CHL1    C1   44   1.413   4.035  10.029  0.1860 -0.0508 -0.1688
    1CHL1   H1A   45   1.430   3.926  10.015  3.2876  0.5318 -1.3368
    1CHL1   H1B   46   1.517   4.074  10.031  0.8133 -1.6565 -0.7493
    1CHL1    C2   47   1.352   4.058  10.163 -0.2598  0.3071  0.3691
    1CHL1   H2A   48   1.427   4.029  10.239  1.1402  1.1977 -0.6580
    1CHL1   H2B   49   1.260   3.999  10.186 -0.3286  0.4011  0.3347
    1CHL1   C20   50   1.608   4.012   9.250  0.3049  0.5091 -0.3724
    1CHL1   H20   51   1.513   4.000   9.193 -0.4655  0.5740  0.8876
    1CHL1   C21   52   1.654   3.875   9.295  0.5864  0.9568 -0.6955
    1CHL1  H21A   53   1.699   3.821   9.208  1.7341  0.5945  0.1152
    1CHL1  H21B   54   1.566   3.818   9.331  3.4973 -2.3693  1.4886
    1CHL1  H21C   55   1.739   3.869   9.367  1.1853 -2.1212 -1.5492
    1CHL1   C22   56   1.702   4.076   9.147 -0.3504 -0.1569 -1.0503
    1CHL1  H22A   57   1.679   4.184   9.132 -1.4864 -0.2199  0.2254
    1CHL1  H22B   58   1.807   4.087   9.183 -1.5137  5.5740  1.2004
    1CHL1   C23   59   1.696   4.008   9.009 -0.4191 -0.0821 -0.7962
    1CHL1  H23A   60   1.732   3.903   9.014  1.2557  0.4048 -1.9846
    1CHL1  H23B   61   1.595   4.023   8.966 -0.3642  0.8148 -0.6116
    1CHL1   C24   62   1.801   4.068   8.906  0.2840 -0.7875 -0.4907
    1CHL1  H24A   63   1.770   4.173   8.890  2.6968  0.2932  1.6254
    1CHL1  H24B   64   1.902   4.075   8.951  0.1223 -1.2550 -0.0583
    1CHL1   C25   65   1.801   4.000   8.765 -0.2039  0.3494  0.6323
    1CHL1   H25   66   1.895   4.039   8.719 -0.1897 -1.2968 -0.7672
    1CHL1   C26   67   1.831   3.848   8.772  0.1813 -0.1963 -0.3959
    1CHL1  H26A   68   1.737   3.793   8.795  2.3390 -2.8825  2.5366
    1CHL1  H26B   69   1.869   3.807   8.676  0.7886 -0.7690  0.0845
    1CHL1  H26C   70   1.908   3.832   8.851  0.8516 -0.1497 -1.0325
    1CHL1   C27   71   1.677   4.039   8.684 -0.6766  0.3398 -0.7016
    1CHL1  H27A   72   1.642   4.141   8.710 -2.6803 -0.7179  0.9498
    1CHL1  H27B   73   1.694   4.033   8.575 -1.2329 -0.9532 -0.7324
    1CHL1  H27C   74   1.589   3.979   8.718 -2.3822  1.4183 -3.0810
    2CHL1    C3   75   2.306   2.132   9.996  0.5468  0.5454 -0.7356
    2CHL1    H3   76   2.393   2.081   9.949  2.2770  2.2269  0.5622
    2CHL1    O3   77   2.340   2.166  10.130 -0.0737  0.0633  0.2047
    2CHL1   H3'   78   2.264   2.210  10.168  0.2014 -1.2752  2.3486
    2CHL1    C4   79   2.271   2.250   9.908  0.3165  0.4480  0.1180
    2CHL1   H4A   80   2.197   2.312   9.963  0.8572  0.4828  0.8105
    2CHL1   H4B   81   2.361   2.316   9.904  0.1458  0.6499 -0.4333
    2CHL1    C5   82   2.225   2.217   9.764 -0.6025  0.3237  0.6806
    2CHL1    C6   83   2.289   2.270   9.660  0.0144 -0.0647  0.0466
    2CHL1    H6   84   2.356   2.353   9.687  1.8947 -1.6122  0.2178
    2CHL1    C7   85   2.259   2.250   9.517 -0.0383 -0.1803 -0.0208
    2CHL1   H7A   86   2.253   2.345   9.459  0.3926  0.1489  0.4692
    2CHL1   H7B   87   2.341   2.201   9.460  0.6664 -0.0633  0.8779
    2CHL1    C8   88   2.122   2.171   9.496 -0.3920 -0.1943 -0.0755
    2CHL1    H8   89   2.053   2.254   9.522  0.3098  0.7099 -1.0337
    2CHL1   C14   90   2.105   2.122   9.356 -0.0261  0.6230  0.7776
    2CHL1   H14   91   2.168   2.032   9.348 -0.0059  0.8392 -1.9405
    2CHL1   C15   92   2.121   2.222   9.246  0.6950 -1.2704  0.4257
    2CHL1  H15A   93   2.067   2.315   9.271  0.0741 -1.8702  1.3117
    2CHL1  H15B   94   2.230   2.236   9.225  0.6215 -2.6609 -1.0227
    2CHL1   C16   95   2.047   2.162   9.123  0.6137  0.5138  1.4558
    2CHL1  H16A   96   1.964   2.231   9.095  0.2452  0.7580  3.0734
    2CHL1  H16B   97   2.127   2.155   9.047 -0.3936 -1.2631  0.5554
    2CHL1   C17   98   1.984   2.032   9.179 -0.2793 -0.1094 -0.0583
    2CHL1   H17   99   2.062   1.955   9.165 -1.8537 -2.0114  1.3330
    2CHL1   C13  100   1.965   2.058   9.330  0.7958 -0.1367  0.5833
    2CHL1   C18  101   1.850   2.149   9.355 -0.0598  0.1130 -0.0561
    2CHL1  H18A  102   1.842   2.242   9.295  3.2724 -0.8693 -2.1634
    2CHL1  H18B  103   1.759   2.085   9.356 -1.4564  1.9934 -2.2259
    2CHL1  H18C  104   1.845   2.195   9.456 -0.6441  3.2960 -1.4725
    2CHL1   C12  105   1.954   1.930   9.425 -0.3109 -0.3996  0.3936
    2CHL1  H12A  106   1.858   1.874   9.419 -0.3256 -0.3944  0.5675
    2CHL1  H12B  107   2.041   1.868   9.395 -2.0867 -2.0171 -1.6039
    2CHL1   C11  108   1.985   1.956   9.573  0.0368  0.2477  0.3003
    2CHL1  H11A  109   1.902   2.017   9.614  1.2325  2.0579  0.1347
    2CHL1  H11B  110   1.998   1.862   9.631 -1.0683  1.2400  2.2016
    2CHL1    C9  111   2.110   2.055   9.597 -0.6499 -0.5475 -0.3738
    2CHL1    H9  112   2.206   2.000   9.603  1.0880  2.5282  1.6061
    2CHL1   C10  113   2.117   2.108   9.748  0.1752  0.2602 -0.2363
    2CHL1   C19  114   1.981   2.161   9.791  0.2598 -0.4066 -0.0877
    2CHL1  H19A  115   1.905   2.089   9.828 -2.3814  2.0260 -0.6597
    2CHL1  H19B  116   2.000   2.216   9.886  1.4000 -1.8894  0.5700
    2CHL1  H19C  117   1.933   2.227   9.717 -0.5520 -0.3639  0.4782
    2CHL1    C1  118   2.163   1.993   9.846 -0.4568 -0.3066  0.0569
    2CHL1   H1A  119   2.089   1.910   9.846  0.7678 -1.4202  0.5912
    2CHL1   H1B  120   2.258   1.950   9.808  0.1018  0.4509  0.5511
    2CHL1    C2  121   2.192   2.028   9.996 -0.2253  0.1313 -0.5375
    2CHL1   H2A  122   2.235   1.939  10.047  0.4902  1.2847  0.8777
    2CHL1   H2B  123   2.101   2.079  10.033 -1.6097 -1.6365 -1.4403
    2CHL1   C20  124   1.862   1.995   9.087 -0.4414  0.2913 -0.0660
    2CHL1   H20  125   1.791   2.081   9.091 -1.0261 -0.1831 -0.2481
    2CHL1   C21  126   1.792   1.871   9.150  0.7001  0.0822 -0.5733
    2CHL1  H21A  127   1.872   1.798   9.175 -0.5016 -0.5049  1.7644
    2CHL1  H21B  128   1.724   1.819   9.080 -1.0444  2.4179 -0.6794
    2CHL1  H21C  129   1.737   1.905   9.240 -0.8818 -2.5253 -0.5083
    2CHL1   C22  130   1.916   1.958   8.946 -0.0045 -0.2395 -0.4710
    2CHL1  H22A  131   2.000   2.023   8.912  0.2317 -0.5686 -0.5207
    2CHL1  H22B  132   1.966   1.860   8.962 -3.0690 -1.5460  1.5298
    2CHL1   C23  133   1.806   1.960   8.842 -0.6952 -0.4988  0.5414
    2CHL1  H23A  134   1.744   1.868   8.846  0.8372 -1.8585 -4.0496
    2CHL1  H23B  135   1.747   2.052   8.861 -0.7151 -0.6374  1.1446
    2CHL1   C24  136   1.857   1.979   8.692 -0.8603  0.4914 -0.4658
    2CHL1  H24A  137   1.772   1.987   8.621  0.5570  0.6935 -2.1636
    2CHL1  H24B  138   1.896   2.082   8.675 -0.4426  0.4394  0.1643
    2CHL1   C25  139   1.957   1.872   8.644 -0.2590 -0.5010  0.2929
    2CHL1   H25  140   2.037   1.868   8.721 -1.2986 -2.9231  1.2796
    2CHL1   C26  141   1.909   1.736   8.616  0.5392 -0.3584 -0.1262
    2CHL1  H26A  142   1.851   1.706   8.705 -0.5994 -0.7167 -0.9747
    2CHL1  H26B  143   1.856   1.751   8.519 -0.9792 -0.2452  0.7178
    2CHL1  H26C  144   1.991   1.664   8.593  0.7233 -0.1259 -0.2004
    2CHL1   C27  145   2.022   1.937   8.517  0.7070  0.2023 -0.6416
    2CHL1  H27A  146   1.951   1.961   8.435 -1.5023 -0.4231  1.0350
    2CHL1  H27B  147   2.075   2.031   8.545 -0.0856  0.5696 -0.3424
    2CHL1  H27C  148   2.100   1.867   8.480  0.4693  0.2832 -1.3051
    3CHL1    C3  149   2.803   1.941  10.244  0.4555  0.3617  0.1731
    3CHL1    H3  150   2.729   1.861  10.262 -0.1453  0.7942 -0.3662
    3CHL1    O3  151   2.854   1.983  10.373 -0.9597 -0.5228 -0.3739
    3CHL1   H3'  152   2.873   2.074  10.352 -2.0284 -0.3194 -0.4863
    3CHL1    C4  153   2.912   1.887  10.154 -0.4097  0.3626 -0.2984
    3CHL1   H4A  154   2.988   1.967  10.139 -0.3780  0.8388  2.1950
    3CHL1   H4B  155   2.966   1.804  10.204 -0.1756  1.3879  1.1675
    3CHL1    C5  156   2.870   1.850  10.014 -0.2628 -0.0645 -0.3737
    3CHL1    C6  157   2.894   1.732   9.969  1.0578 -0.4264 -0.0827
    3CHL1    H6  158   2.947   1.663  10.036  0.9477  0.5537  1.0343
    3CHL1    C7  159   2.854   1.677   9.835  0.7924 -0.5381  0.3275
    3CHL1   H7A  160   2.939   1.635   9.777  0.4332  0.8657 -1.2525
    3CHL1   H7B  161   2.780   1.597   9.858  0.5158 -0.1163  0.9060
    3CHL1    C8  162   2.781   1.784   9.750 -0.0543  0.1609  0.1499
    3CHL1    H8  163   2.851   1.844   9.688  1.0331  0.2726  1.4547
    3CHL1   C14  164   2.688   1.716   9.656  0.3728 -0.4341  0.0335
    3CHL1   H14  165   2.602   1.677   9.714  0.0501  0.6706  0.3165
    3CHL1   C15  166   2.741   1.597   9.577 -0.2311  0.1121 -0.1988
    3CHL1  H15A  167   2.844   1.623   9.545 -0.1299 -0.2719 -0.1900
    3CHL1  H15B  168   2.760   1.501   9.630  1.8531  1.3597  1.4046
    3CHL1   C16  169   2.652   1.579   9.460 -0.2738  0.0992 -0.1286
    3CHL1  H16A  170   2.721   1.596   9.375  1.2004  1.0303  1.2387
    3CHL1  H16B  171   2.604   1.482   9.436 -2.1191  0.9649 -0.0291
    3CHL1   C17  172   2.556   1.702   9.466 -0.1377 -0.0269 -0.6078
    3CHL1   H17  173   2.463   1.671   9.518 -0.1894  0.2824 -0.5121
    3CHL1   C13  174   2.628   1.812   9.556 -0.5069 -0.1345 -0.3920
    3CHL1   C18  175   2.740   1.875   9.468  0.1983  0.3583  0.0347
    3CHL1  H18A  176   2.696   1.927   9.380 -2.2533 -0.4975  0.7153
    3CHL1  H18B  177   2.811   1.947   9.513  1.8701 -1.5497  0.5258
    3CHL1  H18C  178   2.803   1.794   9.426 -2.2561 -1.2775 -0.5768
    3CHL1   C12  179   2.537   1.917   9.627 -0.2625  0.5604 -0.0892
    3CHL1  H12A  180   2.501   2.003   9.567 -0.7478 -0.2673 -0.9845
    3CHL1  H12B  181   2.447   1.862   9.662 -1.2734  2.6409  0.7241
    3CHL1   C11  182   2.620   1.981   9.740  0.6194  0.0177  0.6306
    3CHL1  H11A  183   2.691   2.046   9.685  0.0163  0.1578  0.0177
    3CHL1  H11B  184   2.549   2.044   9.797  0.8656  3.6375 -2.8235
    3CHL1    C9  185   2.703   1.881   9.834 -0.4333  0.2598 -0.2659
    3CHL1    H9  186   2.622   1.821   9.881  0.1691 -1.4842 -1.3702
    3CHL1   C10  187   2.785   1.947   9.938  0.4585  0.3220 -0.2991
    3CHL1   C19  188   2.882   2.048   9.880 -0.0907 -0.5368  1.0008
    3CHL1  H19A  189   2.958   1.999   9.816  0.7593 -1.3671  2.6334
    3CHL1  H19B  190   2.826   2.121   9.818  1.2840 -0.3266  0.0024
    3CHL1  H19C  191   2.933   2.109   9.957 -1.6271 -2.0777  3.3399
    3CHL1    C1  192   2.679   2.006  10.044  0.3794 -0.1014 -0.7908
    3CHL1   H1A  193   2.629   2.092   9.995  0.6783 -0.4416 -1.6949
    3CHL1   H1B  194   2.606   1.925  10.067  1.5022 -0.4874  1.5428
    3CHL1    C2  195   2.739   2.062  10.176  0.0389  1.5846  0.1495
    3CHL1   H2A  196   2.662   2.106  10.242 -0.9295  0.6188 -0.3300
    3CHL1   H2B  197   2.821   2.133  10.153  2.7866 -1.6592 -0.5510
    3CHL1   C20  198   2.505   1.742   9.325 -0.5880 -1.7088  0.6802
    3CHL1   H20  199   2.588   1.746   9.251 -2.1969  1.0254 -1.0846
    3CHL1   C21  200   2.429   1.884   9.324  0.8357  0.0915  0.3181
    3CHL1  H21A  201   2.502   1.967   9.341  2.7222 -0.9411 -2.3010
    3CHL1  H21B  202   2.350   1.881   9.401  1.3178  0.0532  0.8105
    3CHL1  H21C  203   2.390   1.900   9.221  0.2606  0.0937  0.5369
    3CHL1   C22  204   2.418   1.630   9.277 -0.2821 -0.0869  0.1101
    3CHL1  H22A  205   2.479   1.538   9.271  1.5078  1.1020 -0.5838
    3CHL1  H22B  206   2.344   1.610   9.357 -2.7816  2.1364 -1.5617
    3CHL1   C23  207   2.354   1.639   9.133  0.5529 -0.0472 -0.1073
    3CHL1  H23A  208   2.270   1.712   9.140 -0.4303 -1.1553 -0.1057
    3CHL1  H23B  209   2.418   1.693   9.061 -2.5027 -0.5125 -3.2796
    3CHL1   C24  210   2.297   1.504   9.085 -0.1711  0.2187 -0.9333
    3CHL1  H24A  211   2.381   1.431   9.086 -2.9382 -3.0955 -0.1981
    3CHL1  H24B  212   2.226   1.482   9.168  0.6796 -0.3150 -0.3387
    3CHL1   C25  213   2.225   1.497   8.953 -1.1367 -0.4879 -0.5446
    3CHL1   H25  214   2.299   1.533   8.877  2.1956  0.0267  2.7751
    3CHL1   C26  215   2.171   1.359   8.916 -0.0338  1.1029  0.1189
    3CHL1  H26A  216   2.103   1.331   9.000  1.8919  0.7596  1.6187
    3CHL1  H26B  217   2.117   1.354   8.820 -2.1729  1.2618  1.2796
    3CHL1  H26C  218   2.253   1.287   8.897 -0.2710  1.4530 -2.3145
    3CHL1   C27  219   2.102   1.601   8.944 -0.3457  0.1507  0.1059
    3CHL1  H27A  220   2.147   1.700   8.922 -0.3784  0.3203  0.8242
    3CHL1  H27B  221   2.038   1.575   8.856 -0.8855  0.8416  0.2957
    3CHL1  H27C  222   2.043   1.594   9.038 -0.7358 -2.0733 -0.2670
    4CHL1    C3  223   2.318   3.722  10.480  0.2092 -0.1543 -0.4621
    4CHL1    H3  224   2.359   3.620  10.499  2.0791  0.7085  0.2502
    4CHL1    O3  225   2.284   3.779  10.610  0.0445 -0.5099  0.3965
    4CHL1   H3'  226   2.334   3.860  10.619 -0.9476  0.3092 -1.3413
    4CHL1    C4  227   2.435   3.808  10.416 -0.0607 -0.1888  0.0680
    4CHL1   H4A  228   2.409   3.914  10.438  2.1789  1.1642 -3.3344
    4CHL1   H4B  229   2.532   3.787  10.466 -1.1860 -1.9938  1.5637
    4CHL1    C5  230   2.465   3.786  10.275  0.4608  0.4468 -0.0079
    4CHL1    C6  231   2.590   3.781  10.222  0.2131  0.1393  0.2051
    4CHL1    H6  232   2.686   3.780  10.275 -0.0019  0.9383  0.6087
    4CHL1    C7  233   2.607   3.764  10.075  0.7131 -0.0054  0.0286
    4CHL1   H7A  234   2.692   3.828  10.043  1.7757 -1.5709 -0.3318
    4CHL1   H7B  235   2.629   3.657  10.055 -0.9898 -0.4230  0.3428
    4CHL1    C8  236   2.486   3.787   9.985 -0.7473  0.6649 -0.8271
    4CHL1    H8  237   2.457   3.895   9.986  0.0487  0.8649  0.9146
    4CHL1   C14  238   2.520   3.737   9.845  0.4252 -0.9710 -0.5215
    4CHL1   H14  239   2.534   3.627   9.854 -1.7787 -1.4517 -2.3449
    4CHL1   C15  240   2.642   3.787   9.782  0.5402  0.1757 -0.0884
    4CHL1  H15A  241   2.665   3.895   9.774 -1.0341  0.4713 -0.8540
    4CHL1  H15B  242   2.728   3.737   9.831  0.1563 -0.3797  0.0214
    4CHL1   C16  243   2.624   3.746   9.634 -0.8357  0.9384 -0.2775
    4CHL1  H16A  244   2.628   3.836   9.569  1.9890  2.7855  2.3102
    4CHL1  H16B  245   2.702   3.674   9.599 -0.3096  0.7308  1.2998
    4CHL1   C17  246   2.485   3.681   9.624  0.0675  0.8380 -0.2562
    4CHL1   H17  247   2.500   3.575   9.652  0.5686  1.4320  1.7704
    4CHL1   C13  248   2.408   3.743   9.745  0.5146  0.1378  0.0611
    4CHL1   C18  249   2.370   3.886   9.706 -0.2509 -1.4562 -0.5509
    4CHL1  H18A  250   2.268   3.893   9.663 -1.2782  0.8505  2.1327
    4CHL1  H18B  251   2.368   3.947   9.799  2.3208 -0.1599 -1.3058
    4CHL1  H18C  252   2.438   3.921   9.626 -0.5948  2.8722  0.9494
    4CHL1   C12  253   2.304   3.648   9.801  0.1147 -0.2405 -0.2134
    4CHL1  H12A  254   2.218   3.640   9.730 -0.2457  0.0785  0.1827
    4CHL1  H12B  255   2.347   3.547   9.814 -1.7320 -1.0652 -0.2553
    4CHL1   C11  256   2.250   3.700   9.939 -0.6408 -0.6188 -0.6783
    4CHL1  H11A  257   2.209   3.802   9.932 -2.0369 -0.9337  2.2725
    4CHL1  H11B  258   2.174   3.631   9.981  0.4385 -2.2650 -1.3748
    4CHL1    C9  259   2.370   3.717  10.044 -0.3076 -0.2491 -0.6002
    4CHL1    H9  260   2.406   3.613  10.058 -2.1508 -1.0955 -2.0037
    4CHL1   C10  261   2.335   3.764  10.186 -0.5946  0.0488  0.1922
    4CHL1   C19  262   2.271   3.905  10.166  0.1694 -0.8520  0.2403
    4CHL1  H19A  263   2.327   3.974  10.100 -2.8835 -0.6064 -2.1968
    4CHL1  H19B  264   2.169   3.893  10.123 -0.5742  0.3903  1.6054
    4CHL1  H19C  265   2.250   3.951  10.265 -3.6325 -2.9412  0.5001
    4CHL1    C1  266   2.234   3.676  10.252  0.0228  0.2074 -0.1123
    4CHL1   H1A  267   2.145   3.663  10.187 -0.9734  0.0620  1.2531
    4CHL1   H1B  268   2.277   3.574  10.259  1.3848  0.6832 -1.4593
    4CHL1    C2  269   2.199   3.711  10.398 -0.1541  0.1204  0.3036
    4CHL1   H2A  270   2.136   3.629  10.438  0.9282 -1.4857 -1.2321
    4CHL1   H2B  271   2.132   3.800  10.396  0.0205  0.2472  0.0802
    4CHL1   C20  272   2.427   3.685   9.485 -0.1848  0.4089 -0.0360
    4CHL1   H20  273   2.401   3.789   9.456 -0.5320 -0.1465 -1.7602
    4CHL1   C21  274   2.299   3.594   9.482 -0.5252 -0.7438 -0.1827
    4CHL1  H21A  275   2.299   3.492   9.525 -0.0251 -1.2623 -1.4025
    4CHL1  H21B  276   2.259   3.603   9.379 -1.8344 -0.4086  0.3384
    4CHL1  H21C  277   2.221   3.656   9.531  2.6435  1.2541  2.5165
    4CHL1   C22  278   2.521   3.634   9.369  0.3346  0.5880 -0.3457
    4CHL1  H22A  279   2.466   3.658   9.275  0.1698  1.6757  0.0243
    4CHL1  H22B  280   2.620   3.683   9.364  1.9053 -2.4552  0.1206
    4CHL1   C23  281   2.557   3.482   9.380  0.1090 -0.0927  0.4476
    4CHL1  H23A  282   2.623   3.461   9.466 -0.0088  3.5319  1.4826
    4CHL1  H23B  283   2.460   3.432   9.403 -0.0882 -0.6661 -1.5036
    4CHL1   C24  284   2.605   3.435   9.247  0.1441  0.4858  0.1632
    4CHL1  H24A  285   2.537   3.479   9.171  0.4792  1.4372  0.4117
    4CHL1  H24B  286   2.709   3.471   9.238  1.4987 -3.1781  0.4766
    4CHL1   C25  287   2.614   3.285   9.246  0.4065  0.6093  0.3330
    4CHL1   H25  288   2.524   3.236   9.289 -0.4871  0.5557 -1.5654
    4CHL1   C26  289   2.619   3.240   9.103  0.0029  0.1888 -0.0675
    4CHL1  H26A  290   2.535   3.283   9.044 -0.3193  1.3381  1.1909
    4CHL1  H26B  291   2.711   3.276   9.052  1.3859 -1.8252  0.9662
    4CHL1  H26C  292   2.616   3.130   9.092 -1.0715  0.2464 -0.4292
    4CHL1   C27  293   2.741   3.234   9.317  0.0422  0.2042  0.9055
    4CHL1  H27A  294   2.836   3.279   9.282  0.5713 -1.4556  0.1514
    4CHL1  H27B  295   2.732   3.255   9.426 -0.6163 -0.8214  1.0573
    4CHL1  H27C  296   2.752   3.125   9.302 -1.4712 -0.3573  3.5176
    5CHL1    C3  297   3.361   1.790  10.033 -0.2680  0.3586 -0.3711
    5CHL1    H3  298   3.470   1.771  10.042 -0.9662 -3.0227  2.0529
    5CHL1    O3  299   3.296   1.807  10.157  0.3392  0.4052  0.0957
    5CHL1   H3'  300   3.357   1.867  10.200  3.0163 -3.1287  1.3730
    5CHL1    C4  301   3.335   1.927   9.966 -0.4519  0.7963 -0.2168
    5CHL1   H4A  302   3.227   1.951   9.956 -0.8508 -0.7650  0.2455
    5CHL1   H4B  303   3.385   2.003  10.030  0.5261 -1.3880  1.6399
    5CHL1    C5  304   3.383   1.918   9.825  0.2159 -0.2259  0.4782
    5CHL1    C6  305   3.460   2.021   9.790 -0.0638  0.8793 -0.5336
    5CHL1    H6  306   3.479   2.100   9.864 -2.1273 -0.8125  1.9260
    5CHL1    C7  307   3.513   2.036   9.652 -0.4101 -0.1410 -0.5880
    5CHL1   H7A  308   3.525   2.144   9.627  1.0683 -0.4062 -1.0223
    5CHL1   H7B  309   3.618   2.001   9.663 -0.1820  0.7047  0.0355
    5CHL1    C8  310   3.438   1.955   9.547  0.2859 -0.0488 -0.4996
    5CHL1    H8  311   3.342   2.010   9.537  0.4204  0.6537  1.7804
    5CHL1   C14  312   3.515   1.950   9.416 -0.3744 -0.5566 -0.8860
    5CHL1   H14  313   3.606   1.896   9.451 -0.0800 -0.2555 -1.1859
    5CHL1   C15  314   3.562   2.082   9.359  0.1059  0.3134 -0.2825
    5CHL1  H15A  315   3.485   2.163   9.357  1.1068  1.2737 -0.5134
    5CHL1  H15B  316   3.647   2.123   9.417  0.1538 -1.3111  0.8114
    5CHL1   C16  317   3.598   2.044   9.210 -0.3648 -0.3064 -0.3017
    5CHL1  H16A  318   3.542   2.118   9.148 -0.1290 -0.0623 -0.2241
    5CHL1  H16B  319   3.707   2.066   9.202 -0.7125  2.2680  1.7062
    5CHL1   C17  320   3.555   1.897   9.204 -0.3412 -0.1806 -0.8396
    5CHL1   H17  321   3.645   1.837   9.230 -1.3933 -0.8427  1.3651
    5CHL1   C13  322   3.453   1.870   9.309  0.1409 -0.0170  0.1484
    5CHL1   C18  323   3.321   1.942   9.276 -0.2012 -0.4224  0.3538
    5CHL1  H18A  324   3.249   1.878   9.220  1.4747 -1.0481 -1.0890
    5CHL1  H18B  325   3.261   1.987   9.359 -2.5487 -2.5259 -0.1295
    5CHL1  H18C  326   3.341   2.029   9.212  2.5080 -1.0877  0.2544
    5CHL1   C12  327   3.432   1.722   9.362 -0.4568  0.2351 -0.8105
    5CHL1  H12A  328   3.383   1.656   9.287  0.1724 -2.1925  0.8429
    5CHL1  H12B  329   3.530   1.670   9.368 -2.2086 -3.0147  1.0945
    5CHL1   C11  330   3.354   1.721   9.492  0.3772 -0.5521  0.5674
    5CHL1  H11A  331   3.253   1.760   9.464 -0.0231 -2.1417 -0.2477
    5CHL1  H11B  332   3.355   1.617   9.530 -0.1903 -0.4391  0.9003
    5CHL1    C9  333   3.415   1.811   9.600 -0.8377  0.3943 -0.1814
    5CHL1    H9  334   3.512   1.761   9.620 -0.5263  0.2714 -1.9214
    5CHL1   C10  335   3.334   1.808   9.736  0.6928  0.0059  0.4011
    5CHL1   C19  336   3.186   1.823   9.708  0.0678 -0.1046 -0.1240
    5CHL1  H19A  337   3.151   1.732   9.654 -1.1364  2.0503 -3.1048
    5CHL1  H19B  338   3.118   1.830   9.796 -1.4176 -0.7130 -1.1836
    5CHL1  H19C  339   3.166   1.908   9.639 -1.3861  0.0158  0.4308
    5CHL1    C1  340   3.357   1.673   9.808 -0.4719  0.6915 -0.2907
    5CHL1   H1A  341   3.308   1.593   9.750  0.8651 -0.9339  0.7797
    5CHL1   H1B  342   3.467   1.653   9.806 -0.2703  1.4618  1.6137
    5CHL1    C2  343   3.305   1.679   9.952  0.5171  0.2204 -0.1618
    5CHL1   H2A  344   3.323   1.583  10.005  1.5140  1.8896  2.5726
    5CHL1   H2B  345   3.195   1.695   9.946  0.3610 -0.8520 -0.2970
    5CHL1   C20  346   3.524   1.832   9.061 -0.2084  0.0187 -0.1284
    5CHL1   H20  347   3.485   1.729   9.079  0.7105 -0.4148 -0.5854
    5CHL1   C21  348   3.653   1.806   8.987 -0.5016  0.0905  0.3916
    5CHL1  H21A  349   3.636   1.733   8.904 -2.2075  0.9478 -0.0493
    5CHL1  H21B  350   3.726   1.754   9.052  0.7371 -1.6687 -2.3208
    5CHL1  H21C  351   3.693   1.904   8.953  1.7665 -1.1770 -0.6912
    5CHL1   C22  352   3.428   1.913   8.977  0.6009  0.5606 -0.2071
    5CHL1  H22A  353   3.324   1.916   9.016  0.1329 -1.9607 -1.1822
    5CHL1  H22B  354   3.462   2.019   8.979 -2.0027  1.4655 -1.3845
    5CHL1   C23  355   3.409   1.859   8.838  0.6274 -0.6174  1.2085
    5CHL1  H23A  356   3.500   1.867   8.774 -0.2141 -2.0677 -0.2033
    5CHL1  H23B  357   3.385   1.751   8.833 -1.4853 -0.1685  1.2843
    5CHL1   C24  358   3.297   1.935   8.755 -0.1443 -0.4633 -0.1751
    5CHL1  H24A  359   3.195   1.897   8.777 -0.6142  0.6454 -0.4131
    5CHL1  H24B  360   3.292   2.040   8.791 -0.9336 -0.8214  0.7988
    5CHL1   C25  361   3.314   1.934   8.603  0.6573 -1.1657 -0.2474
    5CHL1   H25  362   3.419   1.972   8.596  0.3982 -0.1704  1.2118
    5CHL1   C26  363   3.315   1.793   8.548  0.4413  0.8799 -0.2892
    5CHL1  H26A  364   3.396   1.732   8.592 -0.0068  1.7169  1.7572
    5CHL1  H26B  365   3.219   1.736   8.552  1.7050 -1.3891 -1.2335
    5CHL1  H26C  366   3.334   1.790   8.439 -1.1559 -0.0570 -0.5547
    5CHL1   C27  367   3.224   2.037   8.528  0.0442 -0.2814 -0.0306
    5CHL1  H27A  368   3.118   2.005   8.538 -0.4227 -0.3146 -4.0765
    5CHL1  H27B  369   3.239   2.143   8.558  2.5722 -0.6408  0.0767
    5CHL1  H27C  370   3.251   2.028   8.420 -1.8745 -2.0917 -0.4075
    6CHL1    C3  371   1.185   6.101  10.413 -0.0599  0.6767  0.2097
    6CHL1    H3  372   1.287   6.066  10.382  0.5093  3.4592 -1.2233
    6CHL1    O3  373   1.191   6.083  10.554  0.0856 -0.2718  0.2258
    6CHL1   H3'  374   1.113   6.124  10.594 -1.3499 -2.2029 -0.5038
    6CHL1    C4  375   1.180   6.249  10.367 -0.2177  0.0684 -0.9987
    6CHL1   H4A  376   1.087   6.280  10.418 -0.1749  1.2910 -1.6463
    6CHL1   H4B  377   1.259   6.309  10.417 -0.2003  0.2147 -1.2070
    6CHL1    C5  378   1.187   6.249  10.216 -0.6749 -0.1834  0.1435
    6CHL1    C6  379   1.283   6.317  10.153 -0.0748  1.1616  0.3266
    6CHL1    H6  380   1.359   6.371  10.211  0.5091 -0.6180  1.2474
    6CHL1    C7  381   1.290   6.331  10.009 -0.3078 -0.2360 -0.8147
    6CHL1   H7A  382   1.294   6.438   9.981  1.1743  0.1055  0.6194
    6CHL1   H7B  383   1.387   6.290   9.972  0.2645  0.2114  0.1659
    6CHL1    C8  384   1.167   6.276   9.920  0.5472 -0.0331 -0.4501
    6CHL1    H8  385   1.087   6.353   9.924 -0.2463 -0.8869  0.4761
    6CHL1   C14  386   1.212   6.255   9.777  0.1003  0.1740 -0.7789
    6CHL1   H14  387   1.289   6.175   9.774  1.7525  1.7152 -0.3991
    6CHL1   C15  388   1.268   6.377   9.707 -0.7499  0.8095  1.0036
    6CHL1  H15A  389   1.217   6.465   9.749 -1.9997  0.9262 -0.7236
    6CHL1  H15B  390   1.376   6.396   9.727 -0.5194 -0.4935  1.0532
    6CHL1   C16  391   1.244   6.347   9.563  0.5299  0.2909  0.0694
    6CHL1  H16A  392   1.187   6.429   9.514 -2.2844 -1.3985  0.3898
    6CHL1  H16B  393   1.334   6.332   9.500  0.8403  2.5487 -0.0619
    6CHL1   C17  394   1.162   6.213   9.559 -0.1801  0.2613 -0.9636
    6CHL1   H17  395   1.239   6.134   9.562  0.1785  0.5574 -2.1849
    6CHL1   C13  396   1.098   6.211   9.697 -0.1647  0.0477  1.1166
    6CHL1   C18  397   0.979   6.311   9.697  0.7789 -0.7375 -0.1275
    6CHL1  H18A  398   0.899   6.266   9.633 -2.4421  2.7380  1.2261
    6CHL1  H18B  399   0.930   6.332   9.794 -0.8299  0.1148 -1.0825
    6CHL1  H18C  400   1.006   6.404   9.642 -0.1894 -0.6135 -0.4054
    6CHL1   C12  401   1.054   6.072   9.754 -0.1650  0.5406 -0.0457
    6CHL1  H12A  402   0.966   6.046   9.691 -2.3295  1.5941  2.4410
    6CHL1  H12B  403   1.132   5.996   9.737 -2.4927 -2.1003  0.7188
    6CHL1   C11  404   1.019   6.074   9.897 -0.3705  0.4672 -0.3797
    6CHL1  H11A  405   0.927   6.136   9.905 -1.2259 -0.7825 -0.3620
    6CHL1  H11B  406   1.007   5.975   9.948  2.1880 -0.5091 -1.6032
    6CHL1    C9  407   1.123   6.150   9.993  0.4039 -0.2425 -0.1265
    6CHL1    H9  408   1.210   6.081   9.984  0.3759 -0.4994  1.4313
    6CHL1   C10  409   1.083   6.175  10.140  0.6585  0.0938  0.1452
    6CHL1   C19  410   0.957   6.250  10.146  0.0410  0.4485  0.1387
    6CHL1  H19A  411   0.871   6.198  10.098  0.8529 -1.6384  0.9156
    6CHL1  H19B  412   0.917   6.283  10.244 -0.2443 -0.8361  0.4584
    6CHL1  H19C  413   0.956   6.345  10.088  1.4955  0.5247  0.2197
    6CHL1    C1  414   1.070   6.030  10.204 -0.0616  0.1372 -0.1369
    6CHL1   H1A  415   0.978   5.985  10.160 -2.1195  1.9970  2.1328
    6CHL1   H1B  416   1.158   5.967  10.178  0.2488  0.9083 -1.0000
    6CHL1    C2  417   1.074   6.016  10.360 -0.0770  0.0314  0.1891
    6CHL1   H2A  418   1.067   5.911  10.397  2.3618 -0.8735 -1.7862
    6CHL1   H2B  419   0.981   6.066  10.396  1.1739  1.4484  1.4788
    6CHL1   C20  420   1.084   6.198   9.424 -0.0598 -0.4214 -1.1853
    6CHL1   H20  421   0.981   6.237   9.432 -0.7629 -2.3544 -0.7119
    6CHL1   C21  422   1.073   6.047   9.397 -0.7796  0.3536 -0.0057
    6CHL1  H21A  423   0.998   6.022   9.319  1.1672 -0.0844 -1.7740
    6CHL1  H21B  424   1.042   5.991   9.488 -1.3506  1.0839  0.2509
    6CHL1  H21C  425   1.170   6.008   9.360  0.2027  2.1670  0.5905
    6CHL1   C22  426   1.148   6.273   9.305 -0.2901  0.0814  0.0641
    6CHL1  H22A  427   1.144   6.384   9.313  4.3141  0.7858 -4.6264
    6CHL1  H22B  428   1.254   6.240   9.302  0.1301  1.5061 -1.7288
    6CHL1   C23  429   1.077   6.236   9.172 -0.2213  0.0860 -0.0156
    6CHL1  H23A  430   1.080   6.127   9.150 -2.7958 -0.3911  1.6871
    6CHL1  H23B  431   0.969   6.263   9.178  0.1297  1.6492 -0.5637
    6CHL1   C24  432   1.129   6.320   9.053 -0.2381  0.3533 -0.0444
    6CHL1  H24A  433   1.070   6.321   8.959  0.6330  0.4129 -0.5870
    6CHL1  H24B  434   1.122   6.427   9.084 -2.6622  0.0567  0.5865
    6CHL1   C25  435   1.281   6.298   9.014 -0.0968  0.1098  0.0106
    6CHL1   H25  436   1.343   6.333   9.099 -0.1231  1.6898 -0.5988
    6CHL1   C26  437   1.311   6.147   8.999  1.3269  0.1494  0.2981
    6CHL1  H26A  438   1.238   6.101   8.929  0.8671  1.5450 -0.1659
    6CHL1  H26B  439   1.417   6.126   8.976  1.9779  1.1480  2.2332
    6CHL1  H26C  440   1.287   6.100   9.097 -1.5080 -1.0527 -0.9201
    6CHL1   C27  441   1.316   6.387   8.896 -0.7027 -0.6767 -0.2310
    6CHL1  H27A  442   1.272   6.488   8.912  0.7775  0.2468 -1.8531
    6CHL1  H27B  443   1.421   6.400   8.862 -0.8426  1.0899 -0.0044
    6CHL1  H27C  444   1.260   6.345   8.810  1.1480 -0.6701 -1.4645
    7CHL1    C3  445   4.302   2.059  10.413 -0.0715  0.0404 -0.7751
    7CHL1    H3  446   4.378   1.978  10.408 -1.1705 -1.0989  0.5409
    7CHL1    O3  447   4.255   2.071  10.541  0.4141 -0.3950 -0.0704
    7CHL1   H3'  448   4.223   1.984  10.569 -1.9477  0.2329 -0.7442
    7CHL1    C4  449   4.351   2.203  10.368  0.2350  0.4667  0.1709
    7CHL1   H4A  450   4.277   2.286  10.370  0.2767  0.5707 -1.8849
    7CHL1   H4B  451   4.429   2.230  10.443  0.1524 -0.1074  0.4661
    7CHL1    C5  452   4.414   2.202  10.233  0.6970 -0.1831  0.6932
    7CHL1    C6  453   4.541   2.243  10.206  0.1353 -0.8013 -0.1249
    7CHL1    H6  454   4.597   2.285  10.291  1.2792 -2.3776 -0.0784
    7CHL1    C7  455   4.597   2.253  10.067  0.3865  0.1679  0.7437
    7CHL1   H7A  456   4.645   2.351  10.047  0.7107 -0.4207 -1.6347
    7CHL1   H7B  457   4.677   2.178  10.049  1.2979  0.9344  1.5442
    7CHL1    C8  458   4.479   2.245   9.963 -0.1292  0.2042  0.5437
    7CHL1    H8  459   4.426   2.343   9.967 -2.0372 -0.7470 -0.7136
    7CHL1   C14  460   4.531   2.232   9.826  1.2357  0.1909  0.5452
    7CHL1   H14  461   4.592   2.139   9.830  1.2633  0.2302  1.0326
    7CHL1   C15  462   4.636   2.335   9.777 -0.1444  0.9525 -0.4309
    7CHL1  H15A  463   4.636   2.434   9.828 -1.0515  0.6833  0.1114
    7CHL1  H15B  464   4.740   2.301   9.795 -0.0999  1.4487  0.3063
    7CHL1   C16  465   4.615   2.342   9.629 -0.7278 -0.4925  0.0450
    7CHL1  H16A  466   4.586   2.445   9.601 -1.1485 -1.6162 -3.8691
    7CHL1  H16B  467   4.711   2.315   9.579 -0.1312  0.3314  0.7352
    7CHL1   C17  468   4.512   2.230   9.587 -0.2060  1.1750 -0.7325
    7CHL1   H17  469   4.565   2.133   9.577 -1.4785  0.4247 -0.2636
    7CHL1   C13  470   4.432   2.213   9.710  0.6432  0.6286 -1.1186
    7CHL1   C18  471   4.329   2.326   9.703  0.3760  0.0550 -0.1052
    7CHL1  H18A  472   4.288   2.357   9.802 -0.9605  0.8656 -0.8912
    7CHL1  H18B  473   4.358   2.413   9.641 -1.5812  0.8429  0.0543
    7CHL1  H18C  474   4.240   2.287   9.649 -0.2884  0.2240  0.8529
    7CHL1   C12  475   4.370   2.071   9.738 -0.4960 -0.0261  0.3130
    7CHL1  H12A  476   4.295   2.059   9.658 -0.2714 -3.8127  0.5975
    7CHL1  H12B  477   4.449   1.994   9.726 -0.6729 -0.2563  0.6337
    7CHL1   C11  478   4.308   2.063   9.875  0.3114  0.1244  0.1404
    7CHL1  H11A  479   4.218   2.126   9.859  2.0621  2.4644 -0.8257
    7CHL1  H11B  480   4.270   1.960   9.897 -1.9752  0.6646 -1.1474
    7CHL1    C9  481   4.392   2.124   9.996  0.3225 -0.0404  0.7619
    7CHL1    H9  482   4.459   2.039  10.022  0.2513 -0.1900  0.4540
    7CHL1   C10  483   4.315   2.147  10.129  0.3540  0.4313 -0.2724
    7CHL1   C19  484   4.196   2.246  10.105  0.2521 -0.3267  0.1480
    7CHL1  H19A  485   4.113   2.210  10.040 -0.9003  2.7952 -0.2144
    7CHL1  H19B  486   4.149   2.275  10.202  1.7657 -0.1029  0.8216
    7CHL1  H19C  487   4.219   2.345  10.061 -1.1533 -1.3350 -3.0050
    7CHL1    C1  488   4.248   2.017  10.177 -0.4974  0.0910  0.9341
    7CHL1   H1A  489   4.172   1.979  10.105 -2.2868  0.6304  2.4977
    7CHL1   H1B  490   4.329   1.941  10.183  0.7585  1.5521  3.6224
    7CHL1    C2  491   4.188   2.022  10.318 -0.1663 -0.2095 -0.0804
    7CHL1   H2A  492   4.148   1.922  10.346  0.7779 -1.0067 -1.5317
    7CHL1   H2B  493   4.102   2.092  10.322 -0.5023 -0.7075  2.3320
    7CHL1   C20  494   4.445   2.258   9.452  0.5094  0.2653  0.3821
    7CHL1   H20  495   4.384   2.350   9.460  0.0182  0.1323 -1.4750
    7CHL1   C21  496   4.347   2.139   9.414  0.1314 -0.4271 -0.1368
    7CHL1  H21A  497   4.255   2.137   9.476 -0.6659  0.2329 -1.2689
    7CHL1  H21B  498   4.404   2.048   9.443 -0.7647 -0.3614  1.9546
    7CHL1  H21C  499   4.308   2.142   9.310  0.1789  1.5907 -0.1074
    7CHL1   C22  500   4.546   2.275   9.339  0.2536  0.2413 -0.5026
    7CHL1  H22A  501   4.490   2.276   9.243 -0.5450  0.2498 -0.0488
    7CHL1  H22B  502   4.603   2.369   9.354  0.8161 -0.1851  0.0669
    7CHL1   C23  503   4.646   2.156   9.336  0.3415  0.3047  0.0964
    7CHL1  H23A  504   4.709   2.147   9.427  0.9716 -0.1044 -0.3817
    7CHL1  H23B  505   4.596   2.060   9.312  0.8141  0.3671 -1.1942
    7CHL1   C24  506   4.754   2.180   9.228  0.0515 -0.6786  0.5410
    7CHL1  H24A  507   4.809   2.273   9.255 -0.6369  0.0011 -0.3703
    7CHL1  H24B  508   4.828   2.097   9.238 -0.8288 -1.4891  0.3901
    7CHL1   C25  509   4.709   2.198   9.082 -0.3795  0.2237 -0.2230
    7CHL1   H25  510   4.650   2.292   9.083  2.9290  2.3864  1.8839
    7CHL1   C26  511   4.831   2.212   8.991  0.3685  0.3724 -0.5552
    7CHL1  H26A  512   4.875   2.110   8.985 -1.7211 -0.4720 -2.2876
    7CHL1  H26B  513   4.799   2.242   8.889 -0.3279  1.1126 -0.1243
    7CHL1  H26C  514   4.910   2.280   9.030  0.6522  1.7349 -3.4005
    7CHL1   C27  515   4.611   2.093   9.028  0.7517  0.2435 -0.4832
    7CHL1  H27A  516   4.516   2.100   9.085  0.7214 -1.8341 -0.2518
    7CHL1  H27B  517   4.599   2.105   8.918 -1.4557 -0.3167 -0.3233
    7CHL1  H27C  518   4.649   1.993   9.055  1.0001  0.3608 -0.3975
    8CHL1    C3  519   4.784   3.532  10.386  0.2530 -0.1408  0.3285
    8CHL1    H3  520   4.884   3.533  10.338  0.5560  0.7776  0.9599
    8CHL1    O3  521   4.799   3.525  10.529 -0.2234 -0.4680 -0.1051
    8CHL1   H3'  522   4.716   3.502  10.570 -0.6519  0.0203 -0.7073
    8CHL1    C4  523   4.713   3.661  10.353 -0.1032 -0.3078 -0.2868
    8CHL1   H4A  524   4.610   3.663  10.395 -0.1526  3.6980 -0.3327
    8CHL1   H4B  525   4.774   3.744  10.395 -2.5181  1.0991  0.5447
    8CHL1    C5  526   4.703   3.675  10.203  0.2510 -0.2885  0.3669
    8CHL1    C6  527   4.754   3.782  10.146  0.4779  0.3528  0.0860
    8CHL1    H6  528   4.815   3.851  10.206  0.0610  1.1178 -0.3556
    8CHL1    C7  529   4.752   3.805   9.998  0.0034 -0.2486  0.1631
    8CHL1   H7A  530   4.721   3.907   9.965  1.6152  0.0275 -0.5132
    8CHL1   H7B  531   4.855   3.785   9.963  0.3053  0.9125  0.3630
    8CHL1    C8  532   4.649   3.707   9.928 -0.3094 -0.2176 -0.6353
    8CHL1    H8  533   4.546   3.744   9.941 -0.1904 -0.6074  1.5494
    8CHL1   C14  534   4.680   3.714   9.781  0.4509  0.0596  0.0560
    8CHL1   H14  535   4.786   3.683   9.769  0.6274 -0.4905  2.6309
    8CHL1   C15  536   4.677   3.853   9.704  0.8269  0.2483  0.6237
    8CHL1  H15A  537   4.579   3.904   9.716 -0.5552 -2.3004  0.7689
    8CHL1  H15B  538   4.761   3.921   9.730  0.2827  0.4086  1.9821
    8CHL1   C16  539   4.687   3.806   9.565  0.2995  0.2133  0.3405
    8CHL1  H16A  540   4.609   3.857   9.504  1.2821 -0.0791 -1.2148
    8CHL1  H16B  541   4.781   3.834   9.512  0.5942 -2.1327 -0.4668
    8CHL1   C17  542   4.665   3.651   9.553  0.4452 -0.6793  0.6530
    8CHL1   H17  543   4.762   3.598   9.558  0.1967 -1.0919  1.2381
    8CHL1   C13  544   4.601   3.612   9.686 -0.0391  0.0303  0.3895
    8CHL1   C18  545   4.451   3.645   9.696  0.1894  0.5112 -0.1195
    8CHL1  H18A  546   4.435   3.750   9.664 -0.8969 -0.2761 -2.2297
    8CHL1  H18B  547   4.386   3.575   9.641 -3.1408  4.6843 -1.7412
    8CHL1  H18C  548   4.423   3.642   9.804 -2.1560  1.5039 -0.6822
    8CHL1   C12  549   4.625   3.472   9.738  0.9117 -0.3917  0.0366
    8CHL1  H12A  550   4.567   3.397   9.680  0.4596  0.7360 -0.9848
    8CHL1  H12B  551   4.733   3.447   9.733  1.1517  0.2191  1.8506
    8CHL1   C11  552   4.591   3.455   9.890  0.0114  0.6178 -0.1029
    8CHL1  H11A  553   4.481   3.463   9.905 -0.5101 -3.1857 -1.3745
    8CHL1  H11B  554   4.606   3.352   9.930 -0.3593  1.0401  1.1576
    8CHL1    C9  555   4.661   3.562   9.978 -0.4460  0.3453  0.0969
    8CHL1    H9  556   4.768   3.540   9.961 -0.2124  2.2175 -0.9927
    8CHL1   C10  557   4.634   3.555  10.127  0.3172 -0.1672  0.3497
    8CHL1   C19  558   4.481   3.567  10.149 -0.3545  0.0441 -0.0540
    8CHL1  H19A  559   4.422   3.496  10.086 -1.4519  1.3241 -0.4782
    8CHL1  H19B  560   4.461   3.548  10.256  1.7484 -2.3277 -0.0139
    8CHL1  H19C  561   4.441   3.668  10.128 -2.4883 -0.6681  0.4875
    8CHL1    C1  562   4.681   3.420  10.186 -0.2964 -0.9168  0.7322
    8CHL1   H1A  563   4.594   3.353  10.170 -0.0942 -0.7433 -1.1361
    8CHL1   H1B  564   4.775   3.391  10.135 -0.6494  0.1253 -0.5177
    8CHL1    C2  565   4.694   3.419  10.341  0.5633  0.0090  0.0363
    8CHL1   H2A  566   4.735   3.320  10.371 -0.7544 -0.7865 -0.7322
    8CHL1   H2B  567   4.600   3.442  10.395 -0.1244 -0.6654 -0.8647
    8CHL1   C20  568   4.594   3.610   9.422  0.0127 -0.4918  0.2875
    8CHL1   H20  569   4.498   3.666   9.412  0.1738  0.0474  1.6453
    8CHL1   C21  570   4.553   3.468   9.426  0.4639  0.6874  0.2128
    8CHL1  H21A  571   4.641   3.402   9.440 -0.2976 -0.3511  0.1342
    8CHL1  H21B  572   4.509   3.439   9.328  0.0547 -0.1741  0.6518
    8CHL1  H21C  573   4.477   3.440   9.501 -0.4738 -3.2506 -2.0401
    8CHL1   C22  574   4.687   3.650   9.298 -0.0003 -0.0240 -0.5563
    8CHL1  H22A  575   4.730   3.752   9.298  0.0988 -0.0635  0.3651
    8CHL1  H22B  576   4.774   3.582   9.289  1.3091  1.7644 -1.4594
    8CHL1   C23  577   4.604   3.632   9.165 -0.7862  0.2377 -0.0203
    8CHL1  H23A  578   4.608   3.524   9.139  1.4181  0.6215 -1.4101
    8CHL1  H23B  579   4.500   3.673   9.170 -0.5181  1.2546 -2.0275
    8CHL1   C24  580   4.664   3.705   9.046 -0.1886  0.2086  0.0921
    8CHL1  H24A  581   4.714   3.800   9.071 -1.3272  1.0005 -0.5837
    8CHL1  H24B  582   4.739   3.634   9.004  2.2744  2.3588  0.7459
    8CHL1   C25  583   4.561   3.741   8.936 -0.6052 -0.6000 -1.0733
    8CHL1   H25  584   4.481   3.792   8.994  1.2805  2.4009 -0.9883
    8CHL1   C26  585   4.615   3.840   8.831 -0.7558  0.1624  0.1625
    8CHL1  H26A  586   4.723   3.832   8.806 -0.3492  1.5980  1.3667
    8CHL1  H26B  587   4.581   3.822   8.727 -0.4324  1.0146 -0.0903
    8CHL1  H26C  588   4.609   3.946   8.863 -0.3754 -0.2586  1.6984
    8CHL1   C27  589   4.494   3.616   8.881 -0.0276 -0.3835 -0.1419
    8CHL1  H27A  590   4.573   3.545   8.848 -1.8081 -3.0617  1.1958
    8CHL1  H27B  591   4.427   3.567   8.955 -0.6030 -0.1548 -0.5057
    8CHL1  H27C  592   4.423   3.644   8.800 -1.9542  2.5715  2.4207
    9CHL1    C3  593   0.354   0.319   9.986 -0.4245 -0.6699 -0.1694
    9CHL1    H3  594   0.249   0.335   9.953 -0.1682 -0.4035 -0.8830
    9CHL1    O3  595   0.357   0.342  10.123  0.0695 -0.1111 -0.3351
    9CHL1   H3'  596   0.443   0.318  10.156  0.0040  0.5675  0.3421
    9CHL1    C4  597   0.397   0.177   9.943 -0.6376  0.6359  0.0828
    9CHL1   H4A  598   0.498   0.143   9.975 -0.6930  0.5692  0.1852
    9CHL1   H4B  599   0.332   0.107   9.998  0.1526 -0.4325 -0.3098
    9CHL1    C5  600   0.380   0.164   9.797  0.0106  0.3250  0.2646
    9CHL1    C6  601   0.302   0.068   9.750  0.1221  0.3364 -0.1780
    9CHL1    H6  602   0.254  -0.004   9.818 -0.8174  0.3930 -0.7832
    9CHL1    C7  603   0.285   0.040   9.604 -0.3319  0.2005  0.4930
    9CHL1   H7A  604   0.280  -0.070   9.587 -0.4483 -0.1364  2.5804
    9CHL1   H7B  605   0.189   0.080   9.566 -1.0341 -0.7377  1.2477
    9CHL1    C8  606   0.384   0.109   9.513  0.0748 -0.8391  0.0073
    9CHL1    H8  607   0.483   0.058   9.512  0.3369 -0.3303  0.0538
    9CHL1   C14  608   0.335   0.106   9.362  0.2728 -0.0331  0.4316
    9CHL1   H14  609   0.238   0.161   9.364 -0.8249 -1.9091  0.1509
    9CHL1   C15  610   0.300  -0.025   9.291 -0.5193  0.3056 -0.6067
    9CHL1  H15A  611   0.362  -0.113   9.320 -1.3847 -0.2832 -0.5485
    9CHL1  H15B  612   0.195  -0.037   9.324 -0.1578  1.0314  0.8709
    9CHL1   C16  613   0.319   0.004   9.140 -0.1725 -0.2239  0.2441
    9CHL1  H16A  614   0.402  -0.061   9.104 -0.8721  0.1645 -2.1572
    9CHL1  H16B  615   0.222  -0.003   9.087 -1.1791  4.6039  1.1891
    9CHL1   C17  616   0.370   0.156   9.136 -0.6223  0.1631  0.8057
    9CHL1   H17  617   0.283   0.225   9.135  0.2685  1.2846 -0.8118
    9CHL1   C13  618   0.436   0.180   9.274  0.0728  0.3036  0.0862
    9CHL1   C18  619   0.577   0.115   9.274 -0.5293  0.5466  0.0786
    9CHL1  H18A  620   0.589   0.010   9.240 -1.4226  0.9179 -1.4264
    9CHL1  H18B  621   0.636   0.182   9.209  0.0274  0.7213  0.7603
    9CHL1  H18C  622   0.631   0.122   9.371  1.2572 -1.2257 -0.7601
    9CHL1   C12  623   0.441   0.332   9.315 -0.2956  0.3286  0.5628
    9CHL1  H12A  624   0.508   0.388   9.246 -0.8183 -1.1940 -1.2471
    9CHL1  H12B  625   0.340   0.377   9.322 -0.1400  0.7931 -0.1001
    9CHL1   C11  626   0.497   0.342   9.460  0.2793 -0.0382  0.1496
    9CHL1  H11A  627   0.606   0.324   9.454  0.3130  0.2798 -0.2184
    9CHL1  H11B  628   0.480   0.448   9.489 -0.2213  0.7098 -2.7221
    9CHL1    C9  629   0.412   0.250   9.560  0.0587 -1.2779  0.0829
    9CHL1    H9  630   0.315   0.303   9.549  2.4185  3.2102 -0.7118
    9CHL1   C10  631   0.454   0.262   9.708  0.5646 -1.1551 -0.0219
    9CHL1   C19  632   0.604   0.241   9.722  0.2695  0.1753 -0.4974
    9CHL1  H19A  633   0.634   0.152   9.663 -0.3919 -1.0552  0.9896
    9CHL1  H19B  634   0.643   0.337   9.681 -1.1475  1.2556  0.6534
    9CHL1  H19C  635   0.641   0.241   9.827  0.1070  1.0126 -0.4430
    9CHL1    C1  636   0.420   0.410   9.757  0.6204  0.1197 -0.0064
    9CHL1   H1A  637   0.486   0.481   9.704 -0.9816  0.9210 -0.9863
    9CHL1   H1B  638   0.313   0.435   9.738  0.4648 -1.2423 -1.1038
    9CHL1    C2  639   0.435   0.426   9.906 -0.4010  0.2803 -0.3967
    9CHL1   H2A  640   0.405   0.532   9.922  0.4921  0.2576  1.5303
    9CHL1   H2B  641   0.542   0.414   9.933  0.0002  0.0500 -2.0502
    9CHL1   C20  642   0.452   0.199   9.012 -0.2625  0.0573 -0.4394
    9CHL1   H20  643   0.559   0.171   9.028 -0.6133 -0.3065  1.3652
    9CHL1   C21  644   0.438   0.356   8.994  0.8040 -0.4020 -0.2360
    9CHL1  H21A  645   0.519   0.400   9.056  1.6266 -1.2185 -0.7252
    9CHL1  H21B  646   0.338   0.393   9.026 -0.1982 -1.9120 -1.5086
    9CHL1  H21C  647   0.472   0.395   8.896 -0.7869  2.3170  0.2481
    9CHL1   C22  648   0.398   0.138   8.874  0.4455  0.0913  0.3748
    9CHL1  H22A  649   0.288   0.149   8.863  0.3195 -2.2705 -1.2354
    9CHL1  H22B  650   0.453   0.191   8.794  0.4991  2.6807  2.0679
    9CHL1   C23  651   0.433  -0.012   8.836 -0.0740 -0.0405 -0.3696
    9CHL1  H23A  652   0.542  -0.026   8.852  0.2832  0.0632 -2.5195
    9CHL1  H23B  653   0.374  -0.082   8.898  1.4347 -0.6618  0.3838
    9CHL1   C24  654   0.404  -0.046   8.683  0.2346  0.0413 -0.9362
    9CHL1  H24A  655   0.373  -0.152   8.667  0.6153 -0.2275  0.0892
    9CHL1  H24B  656   0.321   0.025   8.661  1.2733  1.5728 -0.0277
    9CHL1   C25  657   0.536  -0.022   8.596 -0.1552  0.1889  0.2830
    9CHL1   H25  658   0.590   0.066   8.637 -0.8030  0.6845  0.0949
    9CHL1   C26  659   0.623  -0.146   8.598 -0.8497 -0.0363  0.3736
    9CHL1  H26A  660   0.721  -0.129   8.548 -1.1837 -0.4470 -0.4270
    9CHL1  H26B  661   0.636  -0.171   8.705 -0.3809 -0.7046  0.1657
    9CHL1  H26C  662   0.579  -0.233   8.545 -0.0330  0.7867 -1.7211
    9CHL1   C27  663   0.507   0.010   8.448  0.6625 -0.4036  0.1307
    9CHL1  H27A  664   0.416   0.072   8.432  0.4019 -1.3772 -2.4107
    9CHL1  H27B  665   0.601   0.041   8.399  2.4778 -0.2965  3.4934
    9CHL1  H27C  666   0.476  -0.091   8.414  2.3164 -1.0971  0.6214
   10CHL1    C3  667   6.659   3.979  10.209 -0.3820  0.4105  0.0106
   10CHL1    H3  668   6.770   3.970  10.201 -0.4501  0.6389 -1.3052
   10CHL1    O3  669   6.613   3.974  10.343  0.0584  0.2673  0.1688
   10CHL1   H3'  670   6.569   3.888  10.339 -1.5644  1.0550  0.4709
   10CHL1    C4  671   6.616   4.125  10.155 -0.3215  0.1250 -0.0820
   10CHL1   H4A  672   6.506   4.137  10.165 -0.4439 -1.6951  1.0409
   10CHL1   H4B  673   6.656   4.201  10.225 -1.9419 -0.7250  1.8330
   10CHL1    C5  674   6.667   4.144  10.009  0.3112 -0.4147 -0.1170
   10CHL1    C6  675   6.761   4.236   9.973 -0.2472  0.6081 -0.3726
   10CHL1    H6  676   6.805   4.308  10.044  0.1074  0.8580 -0.8418
   10CHL1    C7  677   6.783   4.255   9.824 -0.1001 -0.3730 -0.4484
   10CHL1   H7A  678   6.791   4.359   9.786  0.5709 -0.3101 -0.1480
   10CHL1   H7B  679   6.882   4.209   9.805  0.1321 -0.7545  1.5884
   10CHL1    C8  680   6.680   4.185   9.728  0.1970 -0.0486  1.0262
   10CHL1    H8  681   6.581   4.237   9.737 -1.3832 -2.6390 -0.7269
   10CHL1   C14  682   6.730   4.187   9.579 -0.2096 -1.0138  0.2131
   10CHL1   H14  683   6.829   4.139   9.591 -0.0647 -0.9746 -0.7733
   10CHL1   C15  684   6.753   4.320   9.510 -0.2145  0.3100  0.2098
   10CHL1  H15A  685   6.660   4.382   9.515 -1.7368 -1.8021 -1.4522
   10CHL1  H15B  686   6.841   4.369   9.559  0.5806  0.2456 -1.1489
   10CHL1   C16  687   6.764   4.278   9.364 -0.3600 -0.0478  0.4796
   10CHL1  H16A  688   6.690   4.343   9.312 -1.2897 -0.6773  1.0077
   10CHL1  H16B  689   6.868   4.308   9.336 -0.5717  2.8155  2.4819
   10CHL1   C17  690   6.733   4.125   9.350  0.1213 -0.1562  0.0915
   10CHL1   H17  691   6.833   4.079   9.366 -1.0040 -2.0883  1.8826
   10CHL1   C13  692   6.653   4.102   9.479 -0.0554 -0.4142 -0.6594
   10CHL1   C18  693   6.505   4.163   9.469  0.3256  0.6063  0.5804
   10CHL1  H18A  694   6.458   4.112   9.382 -0.0160  1.7236  0.1149
   10CHL1  H18B  695   6.440   4.156   9.559  1.5075  0.0069  1.4132
   10CHL1  H18C  696   6.515   4.272   9.454  0.3208  0.7364  1.5090
   10CHL1   C12  697   6.653   3.954   9.529  0.1824  0.3918 -0.3000
   10CHL1  H12A  698   6.587   3.886   9.470 -0.9747  0.1054  1.3003
   10CHL1  H12B  699   6.756   3.913   9.520 -0.0568 -0.8952  2.4207
   10CHL1   C11  700   6.595   3.943   9.663 -0.2048 -0.5366 -0.6838
   10CHL1  H11A  701   6.485   3.948   9.656 -0.1973  0.7666  0.0762
   10CHL1  H11B  702   6.633   3.842   9.690  0.3595 -0.2554 -0.4024
   10CHL1    C9  703   6.664   4.043   9.773  0.8181 -0.1075 -0.3132
   10CHL1    H9  704   6.766   4.001   9.783  1.4431  1.4508 -0.1450
   10CHL1   C10  705   6.610   4.032   9.920  0.5468  0.6506  0.1408
   10CHL1   C19  706   6.461   4.060   9.905 -0.6339 -0.1530 -0.2985
   10CHL1  H19A  707   6.411   3.997   9.829  0.2135 -0.9709 -0.1848
   10CHL1  H19B  708   6.408   4.037  10.000  2.1542 -0.3491  1.2614
   10CHL1  H19C  709   6.440   4.160   9.861 -1.7179 -0.3119 -0.1621
   10CHL1    C1  710   6.630   3.892   9.974  0.1244  0.6992  0.0117
   10CHL1   H1A  711   6.589   3.818   9.903  1.0019  0.9772 -0.8022
   10CHL1   H1B  712   6.740   3.877   9.974  0.1779  1.0680 -0.9513
   10CHL1    C2  713   6.587   3.877  10.126 -0.0502  0.0206 -0.4113
   10CHL1   H2A  714   6.622   3.778  10.162  0.7870  1.2573  2.3155
   10CHL1   H2B  715   6.477   3.892  10.126 -0.5385 -3.1778  0.5189
   10CHL1   C20  716   6.693   4.085   9.212 -0.0261  0.4403 -0.0237
   10CHL1   H20  717   6.592   4.124   9.187 -0.1702 -0.5819 -1.1147
   10CHL1   C21  718   6.660   3.934   9.205 -0.3933  0.9517  0.0578
   10CHL1  H21A  719   6.741   3.872   9.248 -2.2487 -0.8087  1.1053
   10CHL1  H21B  720   6.637   3.900   9.102  0.2377 -1.3679  0.6466
   10CHL1  H21C  721   6.569   3.922   9.269 -0.3417  1.3364  0.2098
   10CHL1   C22  722   6.785   4.140   9.095 -0.3588  0.3706 -0.4686
   10CHL1  H22A  723   6.728   4.106   9.006 -2.9997 -2.9885  2.4116
   10CHL1  H22B  724   6.781   4.250   9.081 -1.6957  0.6262  1.7762
   10CHL1   C23  725   6.933   4.080   9.094  0.0975 -0.4864  0.3008
   10CHL1  H23A  726   6.990   4.120   9.181  3.6211 -1.5329 -1.4377
   10CHL1  H23B  727   6.935   3.971   9.118  0.7205 -0.7203 -0.7844
   10CHL1   C24  728   7.013   4.112   8.971  0.2933  0.0918 -0.2406
   10CHL1  H24A  729   7.107   4.054   8.974 -1.0330 -2.1379 -0.7667
   10CHL1  H24B  730   6.953   4.086   8.882  2.7070  0.7477 -2.0974
   10CHL1   C25  731   7.043   4.262   8.940  0.4951 -0.3896  0.6230
   10CHL1   H25  732   6.940   4.301   8.954  0.0278 -2.0211  1.8743
   10CHL1   C26  733   7.120   4.332   9.059 -0.6130  0.3002  0.2684
   10CHL1  H26A  734   7.223   4.293   9.070 -1.2703 -0.2515  6.9475
   10CHL1  H26B  735   7.132   4.440   9.038 -1.1944  0.1363 -0.9567
   10CHL1  H26C  736   7.068   4.321   9.157  1.3574  1.1043  1.4368
   10CHL1   C27  737   7.111   4.282   8.800  0.1606  0.1571  0.6025
   10CHL1  H27A  738   7.072   4.214   8.721 -0.8430 -0.4823  1.6307
   10CHL1  H27B  739   7.122   4.390   8.780  1.2769 -0.2169 -0.8716
   10CHL1  H27C  740   7.212   4.238   8.811  0.1150 -0.0560  0.1517
   11CHL1    C3  741   1.936   0.230  10.024  0.1251 -1.1450  0.6953
   11CHL1    H3  742   1.871   0.307   9.977  1.4445 -0.5287 -0.1787
   11CHL1    O3  743   1.906   0.185  10.156 -0.3001  0.1208 -0.3309
   11CHL1   H3'  744   1.995   0.163  10.183  0.5172 -1.0181 -3.7218
   11CHL1    C4  745   1.951   0.107   9.931  0.4281 -0.6403  0.4057
   11CHL1   H4A  746   2.026   0.033   9.965  3.2107  1.5904 -0.6745
   11CHL1   H4B  747   1.848   0.065   9.936 -0.0645  0.5864  1.0917
   11CHL1    C5  748   1.992   0.148   9.790  0.3320  0.0807  0.5261
   11CHL1    C6  749   1.909   0.113   9.683  0.1377 -0.2917 -0.9667
   11CHL1    H6  750   1.814   0.060   9.700  1.0216 -1.3257  0.9195
   11CHL1    C7  751   1.957   0.139   9.551 -0.2896 -0.1075 -0.4051
   11CHL1   H7A  752   1.952   0.048   9.487 -0.0417 -1.5282  1.5528
   11CHL1   H7B  753   1.897   0.216   9.498 -0.1495 -1.1410 -2.1012
   11CHL1    C8  754   2.100   0.190   9.535 -0.1233 -0.6032 -0.4376
   11CHL1    H8  755   2.176   0.110   9.548  1.4872  0.7963 -0.9864
   11CHL1   C14  756   2.119   0.256   9.403  0.3767  0.6384  0.1070
   11CHL1   H14  757   2.042   0.336   9.390 -3.1447 -2.7935 -1.3703
   11CHL1   C15  758   2.101   0.173   9.268  0.5253 -0.4364 -0.0192
   11CHL1  H15A  759   2.162   0.080   9.274 -1.0338 -1.3031  3.0878
   11CHL1  H15B  760   2.000   0.137   9.242  0.5828  0.5580 -1.6421
   11CHL1   C16  761   2.155   0.259   9.157  0.2351 -0.6100  0.1967
   11CHL1  H16A  762   2.211   0.191   9.089 -0.1638 -2.1886  1.4051
   11CHL1  H16B  763   2.088   0.315   9.089  2.2921  1.3896 -0.2621
   11CHL1   C17  764   2.230   0.369   9.228  0.2877 -0.1893 -0.0689
   11CHL1   H17  765   2.155   0.451   9.237  1.7983  1.0466  1.4646
   11CHL1   C13  766   2.257   0.333   9.378 -0.0716  0.2748  0.3825
   11CHL1   C18  767   2.373   0.226   9.388 -0.7557  0.3705  0.5330
   11CHL1  H18A  768   2.472   0.262   9.424  0.3535 -2.0517  0.0064
   11CHL1  H18B  769   2.345   0.135   9.445 -3.1795  0.6126 -0.2145
   11CHL1  H18C  770   2.396   0.186   9.287  2.7795  0.1798  1.3639
   11CHL1   C12  771   2.264   0.445   9.482 -0.1039 -0.3819 -0.5344
   11CHL1  H12A  772   2.365   0.492   9.486  0.3366 -1.2416 -1.2407
   11CHL1  H12B  773   2.184   0.520   9.465  0.3162  0.7913  2.3101
   11CHL1   C11  774   2.254   0.377   9.625  0.3569 -0.1652  0.6054
   11CHL1  H11A  775   2.337   0.304   9.628  0.0209 -0.5588  0.2891
   11CHL1  H11B  776   2.255   0.457   9.702 -0.6807 -0.9766  1.4772
   11CHL1    C9  777   2.133   0.292   9.646 -0.6174  0.1065  0.3223
   11CHL1    H9  778   2.050   0.366   9.647 -0.3969  0.3579  0.1192
   11CHL1   C10  779   2.121   0.230   9.785  0.3024 -0.0356  0.2558
   11CHL1   C19  780   2.238   0.138   9.816 -0.0564 -0.6600  0.1448
   11CHL1  H19A  781   2.259   0.061   9.739 -0.1885 -1.7888  1.2107
   11CHL1  H19B  782   2.326   0.205   9.830  0.3328 -1.3787  1.1507
   11CHL1  H19C  783   2.225   0.082   9.911 -1.9879 -1.0981 -0.3565
   11CHL1    C1  784   2.113   0.344   9.890  0.5044  0.0121  0.2231
   11CHL1   H1A  785   2.214   0.391   9.889  0.4900  0.0293 -2.8479
   11CHL1   H1B  786   2.036   0.419   9.860 -1.1250 -1.0234  1.6812
   11CHL1    C2  787   2.072   0.299  10.039  0.1896  0.4080  0.2325
   11CHL1   H2A  788   2.063   0.390  10.102  0.5767 -0.1875  1.1551
   11CHL1   H2B  789   2.153   0.231  10.073  0.6389  0.5719 -0.5012
   11CHL1   C20  790   2.346   0.425   9.135  0.3618  0.1456  0.0269
   11CHL1   H20  791   2.421   0.344   9.142  0.1295 -0.3777 -3.1325
   11CHL1   C21  792   2.403   0.556   9.193  0.4607  0.9046 -0.2529
   11CHL1  H21A  793   2.484   0.590   9.125  0.5273 -2.4167 -1.9204
   11CHL1  H21B  794   2.454   0.541   9.290 -2.1560  2.5560  1.4560
   11CHL1  H21C  795   2.324   0.633   9.206 -0.0002  0.5323 -0.8610
   11CHL1   C22  796   2.306   0.438   8.977 -0.3404 -0.4902 -0.4921
   11CHL1  H22A  797   2.404   0.450   8.927  1.3417 -2.9722  2.1127
   11CHL1  H22B  798   2.273   0.335   8.954 -1.1143 -0.5773  0.9399
   11CHL1   C23  799   2.216   0.548   8.919 -0.3273  0.5192  0.5941
   11CHL1  H23A  800   2.113   0.542   8.962 -0.8470  1.5639 -0.4627
   11CHL1  H23B  801   2.261   0.644   8.952 -0.5791  0.5372  0.8895
   11CHL1   C24  802   2.203   0.527   8.770  0.7138 -0.3415 -1.2057
   11CHL1  H24A  803   2.309   0.534   8.738  0.8163  2.2111 -0.4004
   11CHL1  H24B  804   2.179   0.420   8.750  0.9441 -0.8633  1.1863
   11CHL1   C25  805   2.103   0.609   8.694 -0.3372  0.1388  0.4561
   11CHL1   H25  806   2.004   0.605   8.744 -1.8596 -1.0282 -2.4890
   11CHL1   C26  807   2.145   0.753   8.666 -0.1064 -0.2095 -0.5453
   11CHL1  H26A  808   2.242   0.755   8.612  0.1989 -0.9755 -0.0470
   11CHL1  H26B  809   2.059   0.794   8.610 -1.2115  0.1478  1.3778
   11CHL1  H26C  810   2.152   0.809   8.762 -2.1773  0.8999 -1.0084
   11CHL1   C27  811   2.071   0.546   8.558 -0.5599 -0.0602  0.7736
   11CHL1  H27A  812   2.030   0.444   8.574 -1.0612 -0.2733 -1.7023
   11CHL1  H27B  813   2.001   0.620   8.515  2.2998  1.8332 -0.7963
   11CHL1  H27C  814   2.163   0.549   8.496 -0.2381 -0.7671  1.1985
   12CHL1    C3  815   5.415   3.546  10.315  0.6937  0.5386 -0.2358
   12CHL1    H3  816   5.401   3.656  10.314  4.5765  1.1743  2.5863
   12CHL1    O3  817   5.453   3.500  10.446 -0.3565 -0.1363  0.5020
   12CHL1   H3'  818   5.397   3.556  10.500 -0.9293  0.1735 -0.3928
   12CHL1    C4  819   5.292   3.472  10.261  0.1346 -0.0524 -0.2977
   12CHL1   H4A  820   5.312   3.364  10.277  2.0292  0.2627 -0.4360
   12CHL1   H4B  821   5.210   3.496  10.332 -1.8355 -1.2513 -2.0994
   12CHL1    C5  822   5.249   3.494  10.121 -0.2568  0.4436 -0.8678
   12CHL1    C6  823   5.128   3.547  10.087  0.2773 -0.2225 -0.2696
   12CHL1    H6  824   5.055   3.587  10.159  0.2357  0.6360 -0.7761
   12CHL1    C7  825   5.090   3.574   9.941 -0.3469  0.0968  0.1472
   12CHL1   H7A  826   4.982   3.553   9.925 -0.2519 -0.7663  0.5828
   12CHL1   H7B  827   5.101   3.683   9.926 -1.1375  0.1634  0.0293
   12CHL1    C8  828   5.180   3.486   9.849 -0.6845 -0.5859 -0.4275
   12CHL1    H8  829   5.157   3.378   9.857 -0.5589 -0.6312 -0.6870
   12CHL1   C14  830   5.160   3.542   9.704 -0.1011  0.4675  0.2102
   12CHL1   H14  831   5.183   3.651   9.705 -0.0606  0.4627  0.0099
   12CHL1   C15  832   5.015   3.530   9.646  0.0104  0.1465 -0.2968
   12CHL1  H15A  833   4.971   3.432   9.673  1.1797 -0.4717 -0.6148
   12CHL1  H15B  834   4.951   3.613   9.684  1.1062  0.7976  0.1341
   12CHL1   C16  835   5.033   3.540   9.491  0.5627  0.4458 -0.5474
   12CHL1  H16A  836   5.001   3.451   9.433  2.8419 -0.3155 -0.6793
   12CHL1  H16B  837   4.987   3.633   9.449  2.0916  1.5166  0.0899
   12CHL1   C17  838   5.187   3.556   9.480 -0.4535 -0.1066 -0.7545
   12CHL1   H17  839   5.205   3.664   9.502 -4.6317 -0.0049  2.7313
   12CHL1   C13  840   5.255   3.490   9.600 -0.2164 -0.0231 -0.0868
   12CHL1   C18  841   5.236   3.334   9.587  0.0888  0.5296  0.3280
   12CHL1  H18A  842   5.319   3.284   9.532 -0.7464 -0.2010 -0.2721
   12CHL1  H18B  843   5.235   3.278   9.683 -2.8933 -1.0582 -0.5683
   12CHL1  H18C  844   5.141   3.302   9.540  1.1741 -0.3138 -1.3568
   12CHL1   C12  845   5.396   3.536   9.637  0.0202 -0.1786  0.3589
   12CHL1  H12A  846   5.459   3.514   9.548  1.3611 -0.7859  1.4548
   12CHL1  H12B  847   5.406   3.647   9.642  2.6519 -0.3690 -0.0328
   12CHL1   C11  848   5.428   3.473   9.771 -0.0231  0.4264  0.4089
   12CHL1  H11A  849   5.429   3.362   9.761 -0.0299  0.6099 -2.1031
   12CHL1  H11B  850   5.530   3.508   9.795  0.0197 -0.9294  2.3129
   12CHL1    C9  851   5.330   3.516   9.879  0.3465 -0.3616  0.2755
   12CHL1    H9  852   5.326   3.626   9.886 -2.2836 -0.4071  0.2066
   12CHL1   C10  853   5.366   3.471  10.021 -0.6439  0.0184  0.3859
   12CHL1   C19  854   5.403   3.317  10.013 -0.0163 -0.1709  0.9571
   12CHL1  H19A  855   5.315   3.265   9.970  1.9439 -1.1505 -2.0550
   12CHL1  H19B  856   5.492   3.294   9.951 -0.2535  2.4700 -0.4160
   12CHL1  H19C  857   5.420   3.278  10.115 -1.0460 -2.4765  0.2878
   12CHL1    C1  858   5.488   3.543  10.072 -0.0270  0.0877 -1.3356
   12CHL1   H1A  859   5.577   3.532  10.007  0.6494 -0.1586 -0.3585
   12CHL1   H1B  860   5.459   3.651  10.073  0.4428  0.2143 -1.4759
   12CHL1    C2  861   5.525   3.511  10.219 -0.9366  0.0379 -0.3097
   12CHL1   H2A  862   5.618   3.568  10.241  0.1797 -1.8127 -0.1707
   12CHL1   H2B  863   5.558   3.405  10.223  1.4156  0.7301 -0.8349
   12CHL1   C20  864   5.253   3.546   9.345  0.2608 -0.5241 -0.1373
   12CHL1   H20  865   5.358   3.578   9.359  0.3869 -0.3805 -1.3949
   12CHL1   C21  866   5.176   3.648   9.260 -0.1644 -0.2229  0.0279
   12CHL1  H21A  867   5.082   3.597   9.232 -0.1687 -0.3871  0.3501
   12CHL1  H21B  868   5.234   3.672   9.168 -0.2023  2.6241  0.6837
   12CHL1  H21C  869   5.148   3.744   9.308 -0.7185 -0.0271 -0.6831
   12CHL1   C22  870   5.260   3.404   9.280 -0.1111 -0.8117  0.2775
   12CHL1  H22A  871   5.328   3.339   9.340 -2.2419 -1.4551  2.0693
   12CHL1  H22B  872   5.155   3.369   9.286 -0.1579 -0.8968 -0.9204
   12CHL1   C23  873   5.308   3.411   9.135 -0.9770  0.0914 -0.0649
   12CHL1  H23A  874   5.248   3.474   9.066  1.8952  0.6844 -2.1324
   12CHL1  H23B  875   5.409   3.458   9.136 -0.5988 -0.7153  0.0366
   12CHL1   C24  876   5.312   3.262   9.084 -0.3756  0.1150  0.2807
   12CHL1  H24A  877   5.383   3.199   9.143  1.7919  0.8630 -1.4582
   12CHL1  H24B  878   5.210   3.227   9.109 -0.7876  1.0383 -0.1096
   12CHL1   C25  879   5.350   3.242   8.934  0.8103 -0.0285 -0.5170
   12CHL1   H25  880   5.450   3.290   8.929  1.4084 -1.0517  1.2988
   12CHL1   C26  881   5.377   3.091   8.920  0.0192  0.1817 -0.5278
   12CHL1  H26A  882   5.280   3.036   8.926  1.3073 -1.9429  2.0894
   12CHL1  H26B  883   5.419   3.057   8.824  0.4291  0.9266 -0.6125
   12CHL1  H26C  884   5.451   3.054   8.994 -1.4388  1.4228  1.6455
   12CHL1   C27  885   5.240   3.279   8.840  0.1687 -0.1742 -0.0908
   12CHL1  H27A  886   5.142   3.241   8.876 -0.1771  0.8056  0.0081
   12CHL1  H27B  887   5.222   3.388   8.832  0.9984  0.0695  1.2726
   12CHL1  H27C  888   5.271   3.254   8.736 -3.2997 -1.4288 -0.8792
   13CHL1    C3  889   4.136   5.468   9.892  0.2939  0.7008  0.7385
   13CHL1    H3  890   4.051   5.531   9.923 -0.7570 -1.2503  1.9382
   13CHL1    O3  891   4.213   5.438  10.012 -0.2526 -0.2799  0.4593
   13CHL1   H3'  892   4.294   5.395   9.982 -0.6747 -2.5577  2.4953
   13CHL1    C4  893   4.092   5.334   9.838  0.6435 -0.3682  0.2105
   13CHL1   H4A  894   4.185   5.276   9.821  1.0079  0.1757  0.3468
   13CHL1   H4B  895   4.018   5.291   9.909  0.1662 -0.4606 -0.3314
   13CHL1    C5  896   4.014   5.358   9.706 -1.0255 -0.4266 -0.1597
   13CHL1    C6  897   3.889   5.307   9.700  0.7364 -0.8051 -0.7315
   13CHL1    H6  898   3.853   5.249   9.786 -0.4802 -1.4722 -1.6561
   13CHL1    C7  899   3.799   5.313   9.582 -0.5871  0.4128  0.1817
   13CHL1   H7A  900   3.771   5.210   9.548  1.8962  0.6987 -2.9577
   13CHL1   H7B  901   3.706   5.370   9.605 -0.7739  0.0989  0.2116
   13CHL1    C8  902   3.879   5.368   9.458  0.5916 -0.3269  0.1357
   13CHL1    H8  903   3.946   5.288   9.421 -1.1750 -1.2238 -1.2387
   13CHL1   C14  904   3.782   5.414   9.357  0.4405 -0.4767  0.5823
   13CHL1   H14  905   3.727   5.496   9.408  0.4080 -0.2334  0.1521
   13CHL1   C15  906   3.682   5.315   9.310  0.4100  0.5032  0.3816
   13CHL1  H15A  907   3.731   5.218   9.289 -0.5489  0.3321 -1.1663
   13CHL1  H15B  908   3.593   5.301   9.375 -1.3160  0.1688 -1.9379
   13CHL1   C16  909   3.626   5.365   9.176  0.3247  0.2991  0.1459
   13CHL1  H16A  910   3.645   5.291   9.096  3.7158  2.5481 -1.2957
   13CHL1  H16B  911   3.517   5.381   9.187  0.4306  0.5743  0.8096
   13CHL1   C17  912   3.712   5.498   9.149  1.4452  0.2087 -0.0209
   13CHL1   H17  913   3.663   5.583   9.200  2.3831  0.8065 -0.1075
   13CHL1   C13  914   3.840   5.477   9.233 -0.0819 -0.2610 -0.4576
   13CHL1   C18  915   3.933   5.378   9.154 -0.5537  0.6700 -0.7126
   13CHL1  H18A  916   4.008   5.345   9.229 -0.0063 -0.6951 -1.8456
   13CHL1  H18B  917   3.879   5.290   9.112  0.0332  0.2898 -0.6720
   13CHL1  H18C  918   3.993   5.435   9.080  1.3553  0.2311  0.4769
   13CHL1   C12  919   3.916   5.604   9.275 -0.1619  0.5378 -0.1591
   13CHL1  H12A  920   3.972   5.651   9.191  0.9288 -2.4447 -1.1459
   13CHL1  H12B  921   3.846   5.680   9.317 -0.3053 -0.0094  0.5934
   13CHL1   C11  922   4.025   5.569   9.375  0.5036  0.5693  0.1458
   13CHL1  H11A  923   4.106   5.520   9.316  0.2965  0.1832  0.1814
   13CHL1  H11B  924   4.075   5.660   9.414 -1.8518  1.4681  1.1623
   13CHL1    C9  925   3.972   5.487   9.496 -0.5086  0.1554  0.1615
   13CHL1    H9  926   3.907   5.561   9.548 -0.5727 -0.4345  0.9280
   13CHL1   C10  927   4.086   5.446   9.598  0.0148  0.0168  0.1620
   13CHL1   C19  928   4.197   5.361   9.531 -0.2098 -0.0322 -0.4527
   13CHL1  H19A  929   4.156   5.276   9.473  1.5373  0.1350 -1.9855
   13CHL1  H19B  930   4.252   5.422   9.456 -0.7070 -1.2398 -1.8138
   13CHL1  H19C  931   4.270   5.324   9.606  0.4203  1.5470 -0.2481
   13CHL1    C1  932   4.149   5.575   9.663  0.6106  0.0372  0.3974
   13CHL1   H1A  933   4.222   5.632   9.602  2.7189  0.8715  3.5808
   13CHL1   H1B  934   4.063   5.643   9.680 -0.2034 -0.1816 -2.4457
   13CHL1    C2  935   4.226   5.542   9.795 -0.5299  0.2703  0.0127
   13CHL1   H2A  936   4.267   5.636   9.838 -3.0236  0.1118  2.8759
   13CHL1   H2B  937   4.312   5.476   9.770 -1.1425 -1.0417  1.2919
   13CHL1   C20  938   3.719   5.535   9.001 -0.8165 -0.1903 -0.0103
   13CHL1   H20  939   3.759   5.445   8.950  2.2757  2.1388 -1.8038
   13CHL1   C21  940   3.823   5.645   8.966  0.3832 -0.4177 -0.3558
   13CHL1  H21A  941   3.815   5.729   9.039 -2.8889 -0.4021 -0.6263
   13CHL1  H21B  942   3.810   5.704   8.872 -1.8125 -2.0950 -1.1519
   13CHL1  H21C  943   3.925   5.608   8.986  1.1520  1.6220 -0.3252
   13CHL1   C22  944   3.585   5.567   8.930 -0.4964 -0.5124  0.0068
   13CHL1  H22A  945   3.517   5.482   8.952 -2.7230  1.2676  0.2946
   13CHL1  H22B  946   3.545   5.665   8.964 -1.0888 -0.3824 -1.0367
   13CHL1   C23  947   3.597   5.574   8.776 -0.9380  0.2114  0.5974
   13CHL1  H23A  948   3.660   5.658   8.741 -1.5838  1.6164  2.7094
   13CHL1  H23B  949   3.661   5.486   8.752 -0.6510  0.4838  0.3699
   13CHL1   C24  950   3.462   5.572   8.700 -0.2313 -0.3668  0.2391
   13CHL1  H24A  951   3.409   5.478   8.723  1.2248 -0.6289  2.5997
   13CHL1  H24B  952   3.410   5.665   8.732  1.5903 -0.1468  2.6628
   13CHL1   C25  953   3.466   5.586   8.552  0.1163  0.1395  0.1824
   13CHL1   H25  954   3.523   5.676   8.521 -0.5927  0.7051  0.5009
   13CHL1   C26  955   3.530   5.464   8.492 -0.7014  0.9466  0.1707
   13CHL1  H26A  956   3.522   5.465   8.381  1.2294 -1.1871 -0.0435
   13CHL1  H26B  957   3.634   5.452   8.528 -1.0935  0.3455  1.1072
   13CHL1  H26C  958   3.482   5.369   8.525  0.1212  0.8952  1.2457
   13CHL1   C27  959   3.322   5.589   8.500 -0.2448  0.2464  0.3236
   13CHL1  H27A  960   3.279   5.687   8.529 -0.7708 -0.2593  1.2626
   13CHL1  H27B  961   3.324   5.579   8.389  0.4203  0.6017  0.3032
   13CHL1  H27C  962   3.263   5.505   8.542  2.0259 -1.5022  0.1679
   14CHL1    C3  963   3.793   1.739  10.410  0.1076  0.0723 -0.2056
   14CHL1    H3  964   3.883   1.793  10.446 -1.2908  0.2290  3.2171
   14CHL1    O3  965   3.707   1.718  10.524  0.2129 -0.1887 -0.4885
   14CHL1   H3'  966   3.763   1.667  10.583  0.9565  0.5438 -0.5536
   14CHL1    C4  967   3.715   1.815  10.303  0.0175  0.1857 -0.3136
   14CHL1   H4A  968   3.613   1.774  10.285  0.4625 -0.0721 -2.3703
   14CHL1   H4B  969   3.688   1.914  10.345  0.9701  0.6554 -0.8008
   14CHL1    C5  970   3.782   1.834  10.168  0.2865 -0.2644  0.9074
   14CHL1    C6  971   3.793   1.951  10.112  0.4895  0.1488  0.2520
   14CHL1    H6  972   3.762   2.038  10.173 -1.4801  0.6281 -1.3688
   14CHL1    C7  973   3.875   1.973   9.985  0.3629  0.2651 -0.0956
   14CHL1   H7A  974   3.818   2.049   9.927  0.7606 -0.4813 -1.5038
   14CHL1   H7B  975   3.979   2.005  10.003  1.0856 -1.4626 -1.0902
   14CHL1    C8  976   3.876   1.844   9.900  0.0672 -0.1426 -0.5502
   14CHL1    H8  977   3.773   1.817   9.869 -1.7496  2.6513  2.6664
   14CHL1   C14  978   3.959   1.863   9.777  0.4043  0.5853 -0.2430
   14CHL1   H14  979   4.066   1.882   9.799  0.3184  1.2943 -0.4150
   14CHL1   C15  980   3.929   1.980   9.685 -1.0786 -0.5635  0.0809
   14CHL1  H15A  981   3.821   2.002   9.695 -0.9838  1.5827 -2.9323
   14CHL1  H15B  982   3.991   2.063   9.723 -2.5571  0.6445 -0.1268
   14CHL1   C16  983   3.975   1.942   9.543  0.0940  0.2351 -0.2706
   14CHL1  H16A  984   3.884   1.933   9.479 -0.4853  1.7648  0.3070
   14CHL1  H16B  985   4.041   2.019   9.499 -0.0712 -0.4952 -1.8097
   14CHL1   C17  986   4.048   1.802   9.556  0.3481  0.2076 -0.7344
   14CHL1   H17  987   4.151   1.824   9.593  0.6653 -2.0942 -0.2150
   14CHL1   C13  988   3.961   1.743   9.678  0.2654 -0.2379 -0.4626
   14CHL1   C18  989   3.822   1.700   9.632 -1.1202  0.1199  0.3240
   14CHL1  H18A  990   3.780   1.783   9.571  2.0891  3.2542  2.2080
   14CHL1  H18B  991   3.817   1.604   9.576 -1.8739  1.6788 -2.3715
   14CHL1  H18C  992   3.750   1.691   9.717  2.5908 -0.4017  3.5676
   14CHL1   C12  993   4.038   1.637   9.760 -1.2914 -0.6258 -0.0306
   14CHL1  H12A  994   4.053   1.544   9.701  1.0017 -1.9580  2.5523
   14CHL1  H12B  995   4.135   1.677   9.794 -1.5241  0.0560 -0.1545
   14CHL1   C11  996   3.962   1.596   9.892  0.4064 -0.2292  0.5915
   14CHL1  H11A  997   3.871   1.536   9.868  0.9123 -1.2043  1.0687
   14CHL1  H11B  998   4.026   1.541   9.964 -1.4293  2.0305  4.0935
   14CHL1    C9  999   3.933   1.720   9.982  0.2686  0.1927 -0.0330
   14CHL1    H9 1000   4.028   1.758  10.026  0.9558 -1.2625 -0.2464
   14CHL1   C10 1001   3.841   1.698  10.109 -0.2760  0.0910 -0.0464
   14CHL1   C19 1002   3.725   1.609  10.060  0.1046  0.7057  0.5543
   14CHL1  H19A 1003   3.762   1.513  10.018  0.3734 -0.0977  2.5973
   14CHL1  H19B 1004   3.650   1.589  10.140  1.0994  1.1862  1.6139
   14CHL1  H19C 1005   3.670   1.658   9.976  1.6774 -0.8011 -1.4106
   14CHL1    C1 1006   3.927   1.636  10.227 -0.1738  0.1838  0.2170
   14CHL1   H1A 1007   3.963   1.538  10.190 -0.0859 -0.1169  1.0744
   14CHL1   H1B 1008   4.009   1.706  10.253 -0.6655  0.0373  2.2856
   14CHL1    C2 1009   3.845   1.604  10.355 -0.1624  0.1809  0.0045
   14CHL1   H2A 1010   3.910   1.557  10.431 -0.7393 -1.7624 -0.6705
   14CHL1   H2B 1011   3.765   1.532  10.327  0.0182 -0.2177  0.5181
   14CHL1   C20 1012   4.056   1.717   9.426 -0.3211  0.2934  0.6870
   14CHL1   H20 1013   3.950   1.697   9.399  0.0668  0.9487 -1.4964
   14CHL1   C21 1014   4.136   1.588   9.451  0.3941 -0.1307  0.4712
   14CHL1  H21A 1015   4.071   1.516   9.504 -0.8935  0.4037 -0.3628
   14CHL1  H21B 1016   4.238   1.597   9.494  0.6291  2.2021 -0.4858
   14CHL1  H21C 1017   4.158   1.544   9.351  0.5702  1.9793 -0.4516
   14CHL1   C22 1018   4.111   1.799   9.308 -0.4888 -0.1747 -0.0705
   14CHL1  H22A 1019   4.109   1.907   9.335  3.2817 -0.0711 -0.0188
   14CHL1  H22B 1020   4.217   1.777   9.284 -1.2105 -1.8757 -1.8514
   14CHL1   C23 1021   4.047   1.782   9.169 -0.1245 -0.3782  0.6158
   14CHL1  H23A 1022   3.938   1.803   9.164 -0.0039  0.2175  0.5517
   14CHL1  H23B 1023   4.094   1.862   9.110  1.2635  0.3231  2.6267
   14CHL1   C24 1024   4.068   1.649   9.091 -0.1811 -0.4082  0.5424
   14CHL1  H24A 1025   4.175   1.617   9.089  0.1645  0.7074  0.6172
   14CHL1  H24B 1026   4.006   1.588   9.159 -1.4461  0.5651  0.2835
   14CHL1   C25 1027   4.024   1.660   8.946 -0.3370 -0.8742  0.3059
   14CHL1   H25 1028   3.930   1.719   8.948  0.8945  1.2544 -1.9769
   14CHL1   C26 1029   4.118   1.736   8.853 -0.3172 -0.3669 -0.3715
   14CHL1  H26A 1030   4.172   1.821   8.900  1.6796 -1.4567 -0.6251
   14CHL1  H26B 1031   4.204   1.668   8.832  0.5171  0.6703 -0.3105
   14CHL1  H26C 1032   4.071   1.784   8.764  1.0930  0.9046 -0.4613
   14CHL1   C27 1033   3.992   1.520   8.885 -0.1720 -0.6478 -0.1511
   14CHL1  H27A 1034   4.085   1.459   8.886 -1.6714 -2.9914 -0.1496
   14CHL1  H27B 1035   3.928   1.461   8.954 -1.9747  3.6386  2.0286
   14CHL1  H27C 1036   3.953   1.531   8.781 -0.9239 -1.1131  0.0740
   15CHL1    C3 1037   3.906   0.764  10.271  1.2958 -0.2512 -0.8230
   15CHL1    H3 1038   3.884   0.872  10.252 -0.0095 -0.2011  0.8120
   15CHL1    O3 1039   3.867   0.730  10.407 -0.2910  0.1820 -0.0539
   15CHL1   H3' 1040   3.870   0.816  10.448 -0.3930 -0.4220  1.2344
   15CHL1    C4 1041   3.823   0.679  10.178  0.6947 -0.3876 -0.9583
   15CHL1   H4A 1042   3.841   0.572  10.200 -0.1468  0.4161  4.2277
   15CHL1   H4B 1043   3.719   0.710  10.200  1.0182 -0.5679  0.8789
   15CHL1    C5 1044   3.854   0.710  10.035 -0.3108  0.2871 -0.4007
   15CHL1    C6 1045   3.760   0.753   9.949 -0.4006  0.9016 -0.2392
   15CHL1    H6 1046   3.655   0.771   9.978 -0.9481 -0.8040 -1.0851
   15CHL1    C7 1047   3.788   0.764   9.807 -0.7458 -0.2752 -0.2668
   15CHL1   H7A 1048   3.714   0.704   9.751 -2.7918  0.0265  2.0473
   15CHL1   H7B 1049   3.764   0.867   9.776  0.5237 -0.1178 -0.7536
   15CHL1    C8 1050   3.923   0.713   9.763 -0.0496 -0.1708 -0.1807
   15CHL1    H8 1051   3.914   0.607   9.733 -0.8778 -0.8757  2.4459
   15CHL1   C14 1052   3.968   0.772   9.624  0.0126  0.1189  0.6697
   15CHL1   H14 1053   3.996   0.876   9.653  1.6233  0.6768 -2.6677
   15CHL1   C15 1054   3.865   0.792   9.511  0.3763  0.0201  0.7123
   15CHL1  H15A 1055   3.811   0.696   9.494  1.1958  0.1133 -2.7694
   15CHL1  H15B 1056   3.792   0.873   9.531 -1.8139 -1.5905 -0.4244
   15CHL1   C16 1057   3.948   0.816   9.391 -0.3054  0.4248 -0.1944
   15CHL1  H16A 1058   3.918   0.745   9.310 -1.0377  1.9211 -1.2613
   15CHL1  H16B 1059   3.948   0.919   9.348  1.9217  1.0457  1.2216
   15CHL1   C17 1060   4.100   0.783   9.424 -0.7651  0.8528  0.7863
   15CHL1   H17 1061   4.142   0.882   9.452 -1.2970  0.6367  2.3880
   15CHL1   C13 1062   4.090   0.710   9.558  0.1351  0.4273  0.5162
   15CHL1   C18 1063   4.064   0.557   9.524  0.3618  0.3258  0.3707
   15CHL1  H18A 1064   3.980   0.537   9.454  0.3955  2.2551 -0.2506
   15CHL1  H18B 1065   4.162   0.520   9.485  1.3426  1.7056  1.4843
   15CHL1  H18C 1066   4.037   0.494   9.611 -3.0733 -0.8842 -1.4878
   15CHL1   C12 1067   4.203   0.721   9.655  0.1226  0.2944  0.6713
   15CHL1  H12A 1068   4.286   0.661   9.611 -0.8841 -0.0916 -0.7051
   15CHL1  H12B 1069   4.237   0.827   9.651 -2.2244  1.0086 -1.0058
   15CHL1   C11 1070   4.172   0.673   9.800  0.8213  1.1655  0.0768
   15CHL1  H11A 1071   4.171   0.562   9.808 -2.0706  1.2834  2.1630
   15CHL1  H11B 1072   4.245   0.720   9.868  0.7937 -0.4108  1.2172
   15CHL1    C9 1073   4.034   0.723   9.859 -0.3901 -0.1474 -0.5764
   15CHL1    H9 1074   4.052   0.831   9.876  0.3276 -0.4926  1.0200
   15CHL1   C10 1075   3.994   0.674  10.001 -0.3543  0.1180 -0.9865
   15CHL1   C19 1076   4.023   0.520  10.011  0.3754 -0.6142  0.0843
   15CHL1  H19A 1077   4.127   0.488   9.991  0.4773 -0.8332  0.9875
   15CHL1  H19B 1078   3.986   0.482  10.109 -0.9804 -1.3641 -0.6925
   15CHL1  H19C 1079   3.960   0.476   9.930  0.8192  3.7066 -2.7438
   15CHL1    C1 1080   4.091   0.741  10.101 -0.0171  0.0785 -1.0373
   15CHL1   H1A 1081   4.196   0.711  10.082  0.7097  1.9024 -0.0563
   15CHL1   H1B 1082   4.083   0.850  10.077 -0.7563  0.5273  1.1576
   15CHL1    C2 1083   4.052   0.725  10.246 -0.5553 -0.7901  0.4605
   15CHL1   H2A 1084   4.120   0.797  10.296  0.7845 -0.4957 -1.7286
   15CHL1   H2B 1085   4.052   0.620  10.283  0.3953 -1.9410 -2.6832
   15CHL1   C20 1086   4.168   0.711   9.302 -0.4446  0.8810 -0.4814
   15CHL1   H20 1087   4.126   0.608   9.296 -1.0800  1.0634  0.5804
   15CHL1   C21 1088   4.317   0.709   9.331  0.0507  0.4504 -0.6104
   15CHL1  H21A 1089   4.330   0.639   9.416 -3.1093  2.5925  1.7726
   15CHL1  H21B 1090   4.355   0.806   9.371 -0.3243  0.3685 -0.0421
   15CHL1  H21C 1091   4.379   0.662   9.252 -0.9063 -1.3495 -0.3128
   15CHL1   C22 1092   4.151   0.794   9.166 -0.4120 -0.0329  0.3124
   15CHL1  H22A 1093   4.041   0.800   9.158 -0.2862  0.0957 -1.5870
   15CHL1  H22B 1094   4.200   0.892   9.183  1.9616 -1.0822 -0.2708
   15CHL1   C23 1095   4.216   0.731   9.046  0.6505 -0.0402  0.2862
   15CHL1  H23A 1096   4.199   0.806   8.966 -2.3436  1.5220  2.2673
   15CHL1  H23B 1097   4.325   0.715   9.060  0.7307 -0.3165 -0.6589
   15CHL1   C24 1098   4.154   0.594   9.000  0.7611  0.5399  0.1040
   15CHL1  H24A 1099   4.183   0.525   9.082  1.8625  0.8630 -0.0113
   15CHL1  H24B 1100   4.044   0.608   8.990  0.9248  2.1061  0.4967
   15CHL1   C25 1101   4.213   0.542   8.860 -0.2047 -1.0492 -0.0282
   15CHL1   H25 1102   4.312   0.591   8.861 -1.6645  2.0652 -0.8903
   15CHL1   C26 1103   4.239   0.392   8.852 -0.4467 -0.3149  0.3882
   15CHL1  H26A 1104   4.326   0.379   8.921  1.2328 -1.3524 -1.8539
   15CHL1  H26B 1105   4.154   0.332   8.891 -0.5657 -0.5784 -0.2711
   15CHL1  H26C 1106   4.270   0.370   8.748  1.5166  1.3664  0.5813
   15CHL1   C27 1107   4.143   0.598   8.735  0.7344  0.4155 -0.2647
   15CHL1  H27A 1108   4.129   0.707   8.753 -0.1236  0.0103  1.5918
   15CHL1  H27B 1109   4.202   0.585   8.641  0.7547  1.1933 -0.3596
   15CHL1  H27C 1110   4.051   0.538   8.718  0.8051 -0.1344  1.2472
   16CHL1    C3 1111   4.597   0.988  10.388 -0.1284 -0.1434 -0.5934
   16CHL1    H3 1112   4.654   1.081  10.366 -2.7439  1.9014  0.9542
   16CHL1    O3 1113   4.552   0.989  10.521  0.0566  0.0058  0.1167
   16CHL1   H3' 1114   4.550   0.896  10.547 -0.0143  0.4510  1.7484
   16CHL1    C4 1115   4.474   0.990  10.304 -0.0248  0.2091  0.7546
   16CHL1   H4A 1116   4.398   0.911  10.323 -0.7631  0.4690 -1.0688
   16CHL1   H4B 1117   4.423   1.084  10.334 -0.2280 -0.9386  4.2057
   16CHL1    C5 1118   4.518   0.994  10.158  0.2761 -1.0254  0.3747
   16CHL1    C6 1119   4.494   1.104  10.079 -0.9875 -0.5168 -0.2853
   16CHL1    H6 1120   4.453   1.196  10.121 -0.8839 -0.6974  0.2141
   16CHL1    C7 1121   4.535   1.104   9.936 -0.0771  0.1751 -0.2328
   16CHL1   H7A 1122   4.441   1.126   9.881  0.3559 -2.2211 -2.0050
   16CHL1   H7B 1123   4.616   1.177   9.915  0.0547 -0.5020 -2.1425
   16CHL1    C8 1124   4.583   0.966   9.878 -0.4262 -0.3165 -0.2586
   16CHL1    H8 1125   4.487   0.913   9.858 -1.1225  0.6962  0.3582
   16CHL1   C14 1126   4.659   0.982   9.745  0.4288  0.5742 -0.1130
   16CHL1   H14 1127   4.743   1.051   9.768  0.4852  0.7641 -0.8649
   16CHL1   C15 1128   4.585   1.062   9.642  0.1467 -0.1354 -0.7837
   16CHL1  H15A 1129   4.478   1.031   9.643 -0.7503  2.7711  2.5216
   16CHL1  H15B 1130   4.588   1.171   9.662  0.3834 -0.8866  4.1201
   16CHL1   C16 1131   4.659   1.032   9.508  0.1190 -0.0023 -0.2120
   16CHL1  H16A 1132   4.574   1.003   9.443  0.7813  1.1662 -1.6574
   16CHL1  H16B 1133   4.698   1.130   9.470 -1.0619  0.0302 -1.3760
   16CHL1   C17 1134   4.761   0.922   9.546 -0.3016 -0.2506  0.4134
   16CHL1   H17 1135   4.850   0.982   9.574 -0.6075 -0.2847  1.5012
   16CHL1   C13 1136   4.711   0.857   9.682 -0.3961  0.0030 -0.0838
   16CHL1   C18 1137   4.591   0.764   9.652  0.2366 -0.0349 -0.0310
   16CHL1  H18A 1138   4.615   0.683   9.580 -3.3143 -0.5417 -0.7777
   16CHL1  H18B 1139   4.548   0.723   9.746  2.2470 -1.4604  0.2968
   16CHL1  H18C 1140   4.504   0.819   9.608  0.1244 -2.3013 -2.8172
   16CHL1   C12 1141   4.810   0.785   9.773  0.3783  0.0375 -0.9872
   16CHL1  H12A 1142   4.825   0.685   9.726  1.0939 -0.1218 -0.4411
   16CHL1  H12B 1143   4.903   0.845   9.771 -0.0826  0.7591 -0.7881
   16CHL1   C11 1144   4.744   0.763   9.915  0.1783  0.1194  0.3834
   16CHL1  H11A 1145   4.677   0.676   9.895 -0.7900  0.7911  0.6257
   16CHL1  H11B 1146   4.820   0.738   9.991 -0.2649  2.1654  1.5341
   16CHL1    C9 1147   4.675   0.888   9.975 -0.7330  0.4638  0.7978
   16CHL1    H9 1148   4.754   0.965   9.984 -1.2143  0.9875  0.5969
   16CHL1   C10 1149   4.603   0.870  10.114  0.1371 -0.2962  0.2409
   16CHL1   C19 1150   4.512   0.739  10.113 -0.4395  0.1730  0.5744
   16CHL1  H19A 1151   4.583   0.660  10.082  0.3043  1.5303 -1.2351
   16CHL1  H19B 1152   4.455   0.709  10.204 -1.9312  0.2557 -0.3071
   16CHL1  H19C 1153   4.438   0.752  10.031  0.6633  2.2713 -0.1319
   16CHL1    C1 1154   4.714   0.855  10.222  1.2171 -0.4357  0.1597
   16CHL1   H1A 1155   4.783   0.768  10.216  0.0044 -1.4166  0.1055
   16CHL1   H1B 1156   4.779   0.944  10.214 -0.3275  0.8049  0.9874
   16CHL1    C2 1157   4.683   0.863  10.373  0.3416 -1.1417 -0.4480
   16CHL1   H2A 1158   4.780   0.863  10.426  1.0273 -0.4473 -1.7000
   16CHL1   H2B 1159   4.608   0.788  10.407 -0.9715  0.5257  0.4163
   16CHL1   C20 1160   4.803   0.816   9.440  0.4143  0.0760 -0.2966
   16CHL1   H20 1161   4.778   0.711   9.468  0.3943  0.1028 -0.2169
   16CHL1   C21 1162   4.954   0.814   9.433 -0.2557  0.2196 -0.4283
   16CHL1  H21A 1163   5.007   0.822   9.530  1.4639 -0.6960 -1.2636
   16CHL1  H21B 1164   4.988   0.910   9.390  0.1234 -0.1367 -0.9365
   16CHL1  H21C 1165   4.999   0.734   9.370 -1.5986  0.4346 -1.6728
   16CHL1   C22 1166   4.743   0.845   9.299  0.0163  0.0297 -0.7947
   16CHL1  H22A 1167   4.632   0.854   9.305  0.2554  2.5161  0.5060
   16CHL1  H22B 1168   4.777   0.945   9.265 -1.4495  1.0708  0.6870
   16CHL1   C23 1169   4.779   0.746   9.186  0.2180  0.2768  0.5847
   16CHL1  H23A 1170   4.890   0.753   9.173  0.6275 -0.1420  3.5134
   16CHL1  H23B 1171   4.763   0.640   9.213 -1.5523 -0.0682 -1.7191
   16CHL1   C24 1172   4.714   0.775   9.052  0.1160  0.4977  0.2162
   16CHL1  H24A 1173   4.745   0.694   8.983  1.3329  1.1667 -0.0506
   16CHL1  H24B 1174   4.604   0.768   9.059  0.0485 -1.5318 -2.0914
   16CHL1   C25 1175   4.748   0.909   8.984 -0.1361 -0.1547 -0.0528
   16CHL1   H25 1176   4.711   0.994   9.045 -0.6924 -1.0870  0.9229
   16CHL1   C26 1177   4.893   0.930   8.959 -0.1952  0.2143  1.0067
   16CHL1  H26A 1178   4.942   0.849   8.901 -0.4762  0.3991  0.5093
   16CHL1  H26B 1179   4.898   1.021   8.896 -1.0648 -0.6325 -0.2853
   16CHL1  H26C 1180   4.951   0.940   9.054 -0.5512  2.2083  1.0352
   16CHL1   C27 1181   4.672   0.912   8.850 -0.4813 -0.2906 -0.3365
   16CHL1  H27A 1182   4.699   0.829   8.782 -2.0227 -1.0950  0.0312
   16CHL1  H27B 1183   4.563   0.913   8.869 -0.1981  1.2708  1.3568
   16CHL1  H27C 1184   4.694   1.010   8.802 -0.2546  1.3094  2.9195
   17CHL1    C3 1185   0.338   5.096  10.440  0.1143  0.2151  0.1717
   17CHL1    H3 1186   0.260   5.020  10.420  0.3997  0.2726 -1.2181
   17CHL1    O3 1187   0.344   5.133  10.574  0.6208 -0.4407 -0.3560
   17CHL1   H3' 1188   0.385   5.055  10.613 -0.2419 -1.1885 -0.9288
   17CHL1    C4 1189   0.471   5.057  10.387 -0.0806 -0.2889 -0.5485
   17CHL1   H4A 1190   0.540   5.143  10.401  2.2942 -2.1592 -0.6131
   17CHL1   H4B 1191   0.501   4.970  10.449 -0.8654  0.6114  1.1223
   17CHL1    C5 1192   0.468   5.033  10.235 -0.1328  0.2268 -0.4403
   17CHL1    C6 1193   0.504   4.920  10.176 -0.0571 -0.0408 -0.4286
   17CHL1    H6 1194   0.530   4.837  10.244 -1.5862 -0.5183 -0.4268
   17CHL1    C7 1195   0.524   4.891  10.026  0.2982 -0.2062 -1.0124
   17CHL1   H7A 1196   0.622   4.845  10.001  2.5323  5.2477 -3.1455
   17CHL1   H7B 1197   0.454   4.813   9.990 -0.3893 -1.1919  2.3061
   17CHL1    C8 1198   0.528   5.017   9.942 -0.1882 -0.3885 -0.8698
   17CHL1    H8 1199   0.622   5.071   9.968 -0.0183 -1.2939  0.4247
   17CHL1   C14 1200   0.514   4.995   9.787 -0.5444 -0.4873  0.1669
   17CHL1   H14 1201   0.419   4.938   9.792 -0.4890 -0.4762  1.4524
   17CHL1   C15 1202   0.611   4.908   9.713  0.3939 -0.2863 -0.0141
   17CHL1  H15A 1203   0.713   4.929   9.752  0.6570 -1.1386 -0.2172
   17CHL1  H15B 1204   0.586   4.802   9.737  2.3278 -0.7119  0.2393
   17CHL1   C16 1205   0.590   4.947   9.566  0.4506  0.2772 -0.0060
   17CHL1  H16A 1206   0.682   4.985   9.517  1.8647  2.3532  3.9709
   17CHL1  H16B 1207   0.569   4.851   9.514  1.2440 -2.0018  3.6627
   17CHL1   C17 1208   0.472   5.056   9.570  0.4264 -0.3308 -0.2917
   17CHL1   H17 1209   0.376   4.999   9.569 -1.7468  3.1807 -2.3475
   17CHL1   C13 1210   0.493   5.120   9.708 -0.2653 -0.1424  0.5981
   17CHL1   C18 1211   0.625   5.190   9.701 -0.0198 -0.0887  0.0424
   17CHL1  H18A 1212   0.710   5.135   9.654  0.3536  0.1609  0.4156
   17CHL1  H18B 1213   0.625   5.297   9.672  1.1620  0.4695  2.0257
   17CHL1  H18C 1214   0.655   5.203   9.807 -1.4889  1.6621  0.2731
   17CHL1   C12 1215   0.374   5.196   9.763  0.2628 -0.0395  0.1963
   17CHL1  H12A 1216   0.364   5.287   9.700  1.2567 -0.5705 -0.7614
   17CHL1  H12B 1217   0.273   5.151   9.752 -0.3632  1.4743 -0.4034
   17CHL1   C11 1218   0.396   5.235   9.905 -0.4043  0.2218 -0.4931
   17CHL1  H11A 1219   0.493   5.289   9.916  0.0216 -0.9685  1.7762
   17CHL1  H11B 1220   0.307   5.295   9.935 -1.6913 -2.0825  0.4179
   17CHL1    C9 1221   0.413   5.113   9.996 -0.3168 -0.0996 -0.4865
   17CHL1    H9 1222   0.325   5.049   9.977  0.4478 -1.0579 -0.8153
   17CHL1   C10 1223   0.431   5.152  10.150  0.0229 -0.5054 -0.1371
   17CHL1   C19 1224   0.539   5.265  10.164 -0.8395 -0.2572 -0.1956
   17CHL1  H19A 1225   0.635   5.230  10.120 -1.0036 -1.5279  0.4297
   17CHL1  H19B 1226   0.495   5.356  10.118 -0.8318  0.4699  1.2125
   17CHL1  H19C 1227   0.551   5.295  10.270  1.9760  1.8962 -1.0686
   17CHL1    C1 1228   0.291   5.201  10.207 -0.0613 -0.3351 -0.8325
   17CHL1   H1A 1229   0.257   5.297  10.163  2.3216  1.6980  1.6573
   17CHL1   H1B 1230   0.207   5.131  10.187 -0.6653  0.0515  0.3462
   17CHL1    C2 1231   0.294   5.226  10.357  0.1832  0.0316 -0.0381
   17CHL1   H2A 1232   0.192   5.258  10.388  0.6631  0.8462  0.7238
   17CHL1   H2B 1233   0.357   5.313  10.384  1.6567 -0.9397 -0.2732
   17CHL1   C20 1234   0.468   5.148   9.448 -0.0212 -0.7204  0.0144
   17CHL1   H20 1235   0.537   5.234   9.459 -0.4659 -0.2907 -0.5785
   17CHL1   C21 1236   0.326   5.200   9.428 -0.1377 -0.1038 -0.6032
   17CHL1  H21A 1237   0.313   5.290   9.493  1.7471  0.1549 -0.5494
   17CHL1  H21B 1238   0.254   5.120   9.456  0.0887 -1.0006 -2.5629
   17CHL1  H21C 1239   0.297   5.238   9.328  1.5797  0.4226 -0.9241
   17CHL1   C22 1240   0.502   5.075   9.314 -0.3455  0.3324 -0.0421
   17CHL1  H22A 1241   0.598   5.019   9.322 -1.0735 -0.8923  0.2377
   17CHL1  H22B 1242   0.414   5.013   9.287 -0.1338 -0.5330  1.2168
   17CHL1   C23 1243   0.525   5.168   9.198  0.6869 -0.5294  0.3933
   17CHL1  H23A 1244   0.436   5.227   9.168  1.4814  0.4827 -0.0309
   17CHL1  H23B 1245   0.599   5.248   9.223 -0.8728  1.3797 -0.9167
   17CHL1   C24 1246   0.561   5.095   9.064  0.1911 -0.4056 -0.1033
   17CHL1  H24A 1247   0.633   5.011   9.076  0.6831  0.0485  0.1673
   17CHL1  H24B 1248   0.464   5.072   9.017  0.3163 -0.7404 -0.1951
   17CHL1   C25 1249   0.619   5.184   8.950  0.9739  0.3946  0.1943
   17CHL1   H25 1250   0.723   5.203   8.985  0.7056 -0.2489  1.3629
   17CHL1   C26 1251   0.613   5.110   8.813  0.1759  0.1339  0.5448
   17CHL1  H26A 1252   0.675   5.019   8.824 -0.0148  0.0128  0.6241
   17CHL1  H26B 1253   0.513   5.083   8.773  0.5248  2.4491 -2.0500
   17CHL1  H26C 1254   0.663   5.182   8.745  0.5950  0.3515  1.0787
   17CHL1   C27 1255   0.559   5.328   8.945 -0.4644  0.2036 -0.6122
   17CHL1  H27A 1256   0.449   5.339   8.930 -1.0845 -2.3639  1.5620
   17CHL1  H27B 1257   0.576   5.370   9.047  0.4850 -1.1453 -0.2009
   17CHL1  H27C 1258   0.623   5.386   8.875  1.3480  0.8239  1.5064
   18CHL1    C3 1259   6.358   3.386  10.169  0.5058  0.0383  0.1167
   18CHL1    H3 1260   6.268   3.449  10.189 -0.1413 -1.1767  1.1529
   18CHL1    O3 1261   6.407   3.346  10.298 -0.3797 -0.5106 -0.1995
   18CHL1   H3' 1262   6.436   3.424  10.345 -2.9105 -0.7974  1.9446
   18CHL1    C4 1263   6.326   3.263  10.079  0.9494  0.2182  0.9824
   18CHL1   H4A 1264   6.418   3.201  10.071 -0.2745 -1.3783 -1.1212
   18CHL1   H4B 1265   6.247   3.201  10.127 -0.6869  0.7346 -0.9674
   18CHL1    C5 1266   6.300   3.287   9.939  0.2222 -0.4407 -0.0532
   18CHL1    C6 1267   6.193   3.242   9.873 -0.0646  0.3044  0.6705
   18CHL1    H6 1268   6.114   3.187   9.925  0.5127 -1.1807  0.0027
   18CHL1    C7 1269   6.158   3.282   9.732 -0.0821  0.1424  0.2061
   18CHL1   H7A 1270   6.128   3.191   9.675 -0.1508  0.4610 -0.2680
   18CHL1   H7B 1271   6.076   3.355   9.727 -0.3210 -0.1174  0.3225
   18CHL1    C8 1272   6.286   3.344   9.661  0.7000 -0.8876  0.4003
   18CHL1    H8 1273   6.355   3.261   9.632 -0.2450 -1.5154 -0.0975
   18CHL1   C14 1274   6.234   3.415   9.528  0.8365  0.3875 -0.6330
   18CHL1   H14 1275   6.163   3.497   9.551 -1.6996 -2.0028  0.3991
   18CHL1   C15 1276   6.147   3.325   9.435  0.6710 -0.0723 -0.6368
   18CHL1  H15A 1277   6.207   3.231   9.427  0.9019 -0.2473  2.6483
   18CHL1  H15B 1278   6.046   3.307   9.478  0.7485 -2.3681 -1.3502
   18CHL1   C16 1279   6.151   3.397   9.301  0.1626  0.6285  1.2142
   18CHL1  H16A 1280   6.196   3.324   9.230 -1.9201 -0.8105  1.3467
   18CHL1  H16B 1281   6.053   3.431   9.261  0.5763 -1.1425 -1.4059
   18CHL1   C17 1282   6.243   3.525   9.318  0.2372 -0.3596 -0.1901
   18CHL1   H17 1283   6.183   3.613   9.352 -1.2326 -0.4273 -2.4852
   18CHL1   C13 1284   6.335   3.479   9.433  0.5020 -0.5132 -0.2226
   18CHL1   C18 1285   6.438   3.382   9.377  0.3951 -0.3056 -0.6764
   18CHL1  H18A 1286   6.488   3.333   9.463 -1.6425 -0.5893  0.3748
   18CHL1  H18B 1287   6.389   3.305   9.314  1.6881 -1.4298 -0.3316
   18CHL1  H18C 1288   6.517   3.437   9.321  0.5114  0.9087  0.6467
   18CHL1   C12 1289   6.399   3.590   9.528 -0.5642  0.1541  0.6024
   18CHL1  H12A 1290   6.492   3.634   9.485  0.6791 -0.6302  2.4274
   18CHL1  H12B 1291   6.326   3.669   9.555 -1.5765 -0.5258 -0.0973
   18CHL1   C11 1292   6.462   3.529   9.660  0.5897  0.1012  0.3166
   18CHL1  H11A 1293   6.553   3.476   9.623  0.3126  0.7777 -1.3812
   18CHL1  H11B 1294   6.495   3.611   9.726 -1.6995  1.6827 -0.4615
   18CHL1    C9 1295   6.358   3.448   9.744  0.4134 -0.1426  0.5446
   18CHL1    H9 1296   6.287   3.530   9.770  0.7460  0.2188  0.3275
   18CHL1   C10 1297   6.403   3.386   9.875  0.0772 -0.2745  0.2945
   18CHL1   C19 1298   6.525   3.289   9.845 -0.2211  0.1995  0.4073
   18CHL1  H19A 1299   6.561   3.249   9.942  0.1660  2.8185  1.3855
   18CHL1  H19B 1300   6.491   3.202   9.784  1.7448  0.6247 -1.3282
   18CHL1  H19C 1301   6.610   3.342   9.797  0.0046  1.9741  2.6860
   18CHL1    C1 1302   6.442   3.506   9.971 -0.5906 -1.1249 -0.5027
   18CHL1   H1A 1303   6.529   3.565   9.937 -3.8379  3.1471 -1.8723
   18CHL1   H1B 1304   6.360   3.579   9.988  2.3495  1.4138  3.6294
   18CHL1    C2 1305   6.472   3.468  10.117 -0.1599 -0.1278  0.2268
   18CHL1   H2A 1306   6.495   3.563  10.168 -0.6671 -0.6683  1.4655
   18CHL1   H2B 1307   6.566   3.408  10.114 -0.3845 -0.4730  0.0048
   18CHL1   C20 1308   6.311   3.572   9.185 -0.3175  0.1493 -0.7579
   18CHL1   H20 1309   6.386   3.496   9.152 -1.5599 -0.6999 -1.6587
   18CHL1   C21 1310   6.380   3.705   9.211 -0.0738 -0.1109  0.0224
   18CHL1  H21A 1311   6.422   3.739   9.114  2.0020  0.7547  1.1788
   18CHL1  H21B 1312   6.463   3.686   9.283 -0.1027  0.3984  0.1899
   18CHL1  H21C 1313   6.324   3.787   9.261  0.2558 -0.2013  0.5612
   18CHL1   C22 1314   6.220   3.580   9.063 -0.1084 -0.0513  0.5043
   18CHL1  H22A 1315   6.182   3.478   9.040 -2.6951  0.7582  1.0431
   18CHL1  H22B 1316   6.134   3.645   9.091 -1.7183 -0.5644 -3.0060
   18CHL1   C23 1317   6.280   3.644   8.939 -0.2545  0.1215 -0.2553
   18CHL1  H23A 1318   6.260   3.754   8.944 -2.6963 -0.2771 -0.8423
   18CHL1  H23B 1319   6.386   3.613   8.942 -0.6222 -1.0749  1.8820
   18CHL1   C24 1320   6.212   3.597   8.801  0.9089 -0.4742  0.1630
   18CHL1  H24A 1321   6.232   3.488   8.791 -2.6129 -1.0334 -1.4710
   18CHL1  H24B 1322   6.105   3.627   8.801  1.5333  1.8687 -1.0301
   18CHL1   C25 1323   6.267   3.647   8.674 -0.3749  0.2031  0.1598
   18CHL1   H25 1324   6.251   3.757   8.681  1.1875  0.6627 -2.8767
   18CHL1   C26 1325   6.418   3.614   8.653  0.4172  0.1088 -0.2738
   18CHL1  H26A 1326   6.434   3.506   8.629  0.4582 -0.3667  1.7756
   18CHL1  H26B 1327   6.463   3.665   8.566  0.7642  0.4274  0.0923
   18CHL1  H26C 1328   6.470   3.653   8.743  0.7921 -0.6848 -0.1420
   18CHL1   C27 1329   6.198   3.591   8.546  0.1083  0.7157 -0.7451
   18CHL1  H27A 1330   6.248   3.639   8.459 -2.8781  2.5117 -1.5461
   18CHL1  H27B 1331   6.199   3.480   8.545  1.9486  0.7183 -1.3363
   18CHL1  H27C 1332   6.095   3.632   8.545 -0.2724  0.0007  2.6149
   19CHL1    C3 1333   3.421   0.255   9.975  0.3493 -0.4634  0.2714
   19CHL1    H3 1334   3.334   0.206   9.925 -0.3606  1.6476 -0.6352
   19CHL1    O3 1335   3.387   0.248  10.109 -0.3719  0.6249 -0.5392
   19CHL1   H3' 1336   3.463   0.285  10.155  0.2200 -1.3403  0.0918
   19CHL1    C4 1337   3.542   0.168   9.952  0.4307  0.3437 -1.0289
   19CHL1   H4A 1338   3.627   0.206  10.013  0.5374  1.6235 -1.9776
   19CHL1   H4B 1339   3.515   0.068   9.993 -1.7903  0.7114 -1.5246
   19CHL1    C5 1340   3.570   0.166   9.799  0.2120 -0.6849 -0.2358
   19CHL1    C6 1341   3.581   0.053   9.732 -0.2450  0.6867  0.0752
   19CHL1    H6 1342   3.560  -0.042   9.784 -0.6745 -1.3835 -3.7365
   19CHL1    C7 1343   3.606   0.041   9.586 -0.0182  0.5965  0.1483
   19CHL1   H7A 1344   3.682  -0.040   9.581 -1.7461 -0.9953 -1.3727
   19CHL1   H7B 1345   3.514  -0.004   9.543  1.1193 -2.0137  0.3647
   19CHL1    C8 1346   3.645   0.170   9.518 -0.1628  0.8423 -0.1620
   19CHL1    H8 1347   3.751   0.177   9.552  0.0488 -1.0976 -0.3327
   19CHL1   C14 1348   3.641   0.168   9.366  0.2134 -0.1643 -0.1688
   19CHL1   H14 1349   3.534   0.164   9.337  0.0492  2.5939 -0.0452
   19CHL1   C15 1350   3.695   0.047   9.307 -0.5075 -0.9867  0.8485
   19CHL1  H15A 1351   3.788   0.011   9.355 -0.9986 -0.9874  1.8059
   19CHL1  H15B 1352   3.634  -0.045   9.306  0.2094 -1.4632  0.8717
   19CHL1   C16 1353   3.717   0.098   9.164 -1.3105 -0.0086 -0.2150
   19CHL1  H16A 1354   3.826   0.098   9.144 -0.6091  0.1127  3.2876
   19CHL1  H16B 1355   3.664   0.029   9.094 -3.2803  0.1886  1.0394
   19CHL1   C17 1356   3.677   0.248   9.154 -0.0356 -0.3462 -0.1386
   19CHL1   H17 1357   3.571   0.263   9.125  0.4803  1.0833 -1.3766
   19CHL1   C13 1358   3.692   0.294   9.302  0.2165 -0.0486  0.8873
   19CHL1   C18 1359   3.838   0.323   9.322 -0.6053 -0.1986 -0.9820
   19CHL1  H18A 1360   3.876   0.421   9.284  2.7033 -0.5721  1.1983
   19CHL1  H18B 1361   3.870   0.314   9.427 -1.9664 -1.9364 -0.6934
   19CHL1  H18C 1362   3.907   0.253   9.271 -0.5305  0.5452 -1.9316
   19CHL1   C12 1363   3.600   0.409   9.347  0.1739 -0.1681  0.3028
   19CHL1  H12A 1364   3.640   0.504   9.305  0.0726 -0.4141 -0.3531
   19CHL1  H12B 1365   3.498   0.387   9.309  0.6730 -0.4894 -0.9053
   19CHL1   C11 1366   3.602   0.424   9.503 -0.6731 -0.6986 -0.0675
   19CHL1  H11A 1367   3.705   0.455   9.528 -0.6557 -0.0461 -0.9539
   19CHL1  H11B 1368   3.526   0.499   9.536  0.1200  0.3900 -0.6946
   19CHL1    C9 1369   3.568   0.289   9.573 -0.1772 -0.1785  0.0150
   19CHL1    H9 1370   3.460   0.270   9.557 -0.6136  1.3195  1.0487
   19CHL1   C10 1371   3.573   0.304   9.730 -0.1180 -0.1525 -0.3216
   19CHL1   C19 1372   3.707   0.377   9.770  0.6786  0.0576  0.1999
   19CHL1  H19A 1373   3.700   0.488   9.761  4.5248  0.5177  1.5743
   19CHL1  H19B 1374   3.729   0.355   9.876  0.5049  0.0714  0.2381
   19CHL1  H19C 1375   3.793   0.346   9.706 -0.2013 -0.2629 -0.8428
   19CHL1    C1 1376   3.452   0.400   9.770 -0.4912 -0.4680  0.2149
   19CHL1   H1A 1377   3.472   0.505   9.743 -1.1768 -0.4277 -0.1202
   19CHL1   H1B 1378   3.366   0.361   9.712 -0.9861 -1.2292  1.4400
   19CHL1    C2 1379   3.435   0.394   9.922  0.1782 -0.0008 -0.0045
   19CHL1   H2A 1380   3.348   0.454   9.958  0.0035 -0.1454 -0.1845
   19CHL1   H2B 1381   3.521   0.442   9.974  0.9743  0.3979 -1.6416
   19CHL1   C20 1382   3.764   0.316   9.042  0.4315  0.1096 -0.3946
   19CHL1   H20 1383   3.871   0.312   9.070  0.0552  0.7825  1.2428
   19CHL1   C21 1384   3.739   0.469   9.033  0.2100  0.0620 -0.2952
   19CHL1  H21A 1385   3.800   0.519   8.954  0.0710  0.6252 -0.0471
   19CHL1  H21B 1386   3.763   0.509   9.134  0.5429 -1.8659  0.4121
   19CHL1  H21C 1387   3.633   0.497   9.017  0.1232  0.1627  0.4204
   19CHL1   C22 1388   3.746   0.246   8.898 -0.0549 -0.2983  0.2419
   19CHL1  H22A 1389   3.764   0.137   8.909  0.3162 -0.0714  2.0206
   19CHL1  H22B 1390   3.641   0.264   8.864  0.0448 -2.8643 -1.5723
   19CHL1   C23 1391   3.851   0.298   8.799  0.5594 -0.0327  0.5314
   19CHL1  H23A 1392   3.818   0.396   8.761  0.7902  0.5916  1.8932
   19CHL1  H23B 1393   3.941   0.323   8.860 -0.0355  1.9088  0.6457
   19CHL1   C24 1394   3.887   0.196   8.693 -0.2665  0.0866  0.4035
   19CHL1  H24A 1395   3.981   0.228   8.643  0.1753 -3.5724 -1.2846
   19CHL1  H24B 1396   3.922   0.103   8.744 -0.1373 -0.5784 -0.8790
   19CHL1   C25 1397   3.765   0.173   8.597 -0.4226 -0.2874 -0.6020
   19CHL1   H25 1398   3.677   0.162   8.664  0.6996 -0.7187  0.8569
   19CHL1   C26 1399   3.753   0.285   8.504  0.2142 -0.4034 -0.5689
   19CHL1  H26A 1400   3.656   0.287   8.450  0.0445  2.0835 -0.2207
   19CHL1  H26B 1401   3.766   0.377   8.564 -1.2195  0.2652 -1.2517
   19CHL1  H26C 1402   3.841   0.283   8.437  2.2966  2.5460  1.9424
   19CHL1   C27 1403   3.785   0.042   8.520  0.1644  0.4399  0.4330
   19CHL1  H27A 1404   3.692   0.019   8.464 -0.4151  1.5009  0.9480
   19CHL1  H27B 1405   3.871   0.046   8.449  3.3162 -0.8281  3.9892
   19CHL1  H27C 1406   3.818  -0.040   8.587  1.1432  0.5970  0.1614
   20CHL1    C3 1407   5.649   0.611  10.420 -0.3894  0.2491  0.0991
   20CHL1    H3 1408   5.574   0.533  10.392 -0.2262 -0.2597  1.0352
   20CHL1    O3 1409   5.668   0.610  10.562  0.1547  0.0600  0.2832
   20CHL1   H3' 1410   5.736   0.677  10.573 -0.3542  1.2309 -2.9756
   20CHL1    C4 1411   5.792   0.597  10.353 -0.1370 -0.5968 -0.3997
   20CHL1   H4A 1412   5.852   0.672  10.409 -1.4028  0.5280 -0.5242
   20CHL1   H4B 1413   5.823   0.494  10.381  1.5413  0.2150  0.8338
   20CHL1    C5 1414   5.790   0.626  10.204 -0.1482  0.6007 -0.3792
   20CHL1    C6 1415   5.823   0.526  10.121 -0.1970 -1.1686  0.2673
   20CHL1    H6 1416   5.866   0.435  10.164  1.0687 -1.9285 -2.5146
   20CHL1    C7 1417   5.829   0.540   9.969 -0.1175  0.1473 -0.6122
   20CHL1   H7A 1418   5.926   0.493   9.943 -0.1458 -1.3652  1.9111
   20CHL1   H7B 1419   5.747   0.487   9.916 -0.6735 -0.6918  1.0577
   20CHL1    C8 1420   5.820   0.684   9.929  0.1242 -1.3350  0.8988
   20CHL1    H8 1421   5.904   0.752   9.956 -1.5529  1.1035  0.2235
   20CHL1   C14 1422   5.792   0.693   9.777  0.8108 -0.5489  0.1211
   20CHL1   H14 1423   5.697   0.638   9.759  1.3930 -1.5081 -0.0130
   20CHL1   C15 1424   5.882   0.621   9.679  0.2487 -0.1418  0.2254
   20CHL1  H15A 1425   5.985   0.620   9.719  0.5354  0.4106 -0.4983
   20CHL1  H15B 1426   5.847   0.517   9.660  1.4944 -0.6128  0.4887
   20CHL1   C16 1427   5.883   0.711   9.553  0.0810  0.1845  0.2402
   20CHL1  H16A 1428   5.984   0.757   9.544  0.3460 -0.6130 -0.9535
   20CHL1  H16B 1429   5.859   0.645   9.468 -0.8612  2.3188 -1.2092
   20CHL1   C17 1430   5.765   0.806   9.566  0.0705  0.7797 -0.0374
   20CHL1   H17 1431   5.673   0.748   9.541  0.2206  0.8914 -0.8669
   20CHL1   C13 1432   5.767   0.832   9.719  0.2517 -0.2875  0.4409
   20CHL1   C18 1433   5.891   0.924   9.752  0.5925  0.0399 -0.1109
   20CHL1  H18A 1434   5.869   1.027   9.717  0.4700 -0.2480 -0.8971
   20CHL1  H18B 1435   5.902   0.939   9.862 -0.5311 -0.8082  0.1191
   20CHL1  H18C 1436   5.982   0.876   9.710  0.0230 -2.5547  1.5115
   20CHL1   C12 1437   5.636   0.874   9.784 -0.5015  0.8204  0.2227
   20CHL1  H12A 1438   5.602   0.971   9.740 -0.0924  0.7994 -0.1434
   20CHL1  H12B 1439   5.556   0.803   9.753 -1.6817  0.7561  3.3228
   20CHL1   C11 1440   5.646   0.885   9.937  0.1724 -0.1773  0.0215
   20CHL1  H11A 1441   5.706   0.975   9.958 -0.1438  0.6114 -2.2961
   20CHL1  H11B 1442   5.545   0.903   9.980  1.1927  2.2616  1.4872
   20CHL1    C9 1443   5.704   0.756  10.001  0.5363  0.4832  0.2363
   20CHL1    H9 1444   5.617   0.690   9.981  1.9792 -1.9150  1.6777
   20CHL1   C10 1445   5.724   0.758  10.158 -0.8523  0.6829 -0.3334
   20CHL1   C19 1446   5.829   0.869  10.198  0.5301 -0.4140 -0.4379
   20CHL1  H19A 1447   5.844   0.884  10.308  2.3108  1.0292 -0.8449
   20CHL1  H19B 1448   5.931   0.857  10.156  0.8684  2.7153 -0.6045
   20CHL1  H19C 1449   5.783   0.965  10.166 -1.5324 -0.2596  2.7654
   20CHL1    C1 1450   5.583   0.769  10.227  0.0706 -0.8004 -0.5454
   20CHL1   H1A 1451   5.523   0.855  10.190  1.3921  0.3679 -0.0280
   20CHL1   H1B 1452   5.538   0.679  10.180  0.5991 -1.1005 -0.4829
   20CHL1    C2 1453   5.587   0.750  10.382  0.8630  0.0511  0.1093
   20CHL1   H2A 1454   5.482   0.750  10.415  0.5649 -0.5109 -0.8027
   20CHL1   H2B 1455   5.656   0.821  10.433  1.4228 -1.2856  1.2503
   20CHL1   C20 1456   5.779   0.923   9.470  0.3520 -0.0206 -0.6453
   20CHL1   H20 1457   5.876   0.974   9.490  0.7096 -0.1134 -2.0840
   20CHL1   C21 1458   5.670   1.029   9.490 -0.6088  0.4671  0.0793
   20CHL1  H21A 1459   5.572   0.979   9.498  0.2146 -1.1200  0.4365
   20CHL1  H21B 1460   5.649   1.103   9.409  0.5252 -1.2067 -1.8138
   20CHL1  H21C 1461   5.690   1.086   9.583  0.6678  0.5015 -0.1924
   20CHL1   C22 1462   5.793   0.876   9.324 -0.4291 -0.2363  0.0907
   20CHL1  H22A 1463   5.889   0.821   9.314  0.2631  0.6891  1.5619
   20CHL1  H22B 1464   5.711   0.807   9.293 -0.4524  0.4733 -1.5027
   20CHL1   C23 1465   5.812   0.992   9.216 -0.4619 -0.4787  0.1971
   20CHL1  H23A 1466   5.717   1.047   9.201 -0.2343  0.3385  1.7016
   20CHL1  H23B 1467   5.889   1.069   9.238 -0.8100 -0.4845  1.4614
   20CHL1   C24 1468   5.853   0.921   9.080  0.3538 -0.4375 -0.1116
   20CHL1  H24A 1469   5.944   0.863   9.105  0.4338 -0.0931  0.4001
   20CHL1  H24B 1470   5.781   0.844   9.044 -1.4736  1.4832 -0.6700
   20CHL1   C25 1471   5.882   1.013   8.965  0.1337  0.1213 -0.0158
   20CHL1   H25 1472   5.926   1.101   9.017  0.0125 -0.6897  1.4660
   20CHL1   C26 1473   5.984   0.952   8.873  0.4575  0.1566 -0.7371
   20CHL1  H26A 1474   5.936   0.870   8.815 -0.3876  1.0210 -1.2874
   20CHL1  H26B 1475   5.993   1.028   8.793  0.3424  0.4538 -0.4670
   20CHL1  H26C 1476   6.089   0.930   8.904  0.2606  1.5333  0.9686
   20CHL1   C27 1477   5.760   1.054   8.881 -0.3047  0.3396 -0.3891
   20CHL1  H27A 1478   5.676   1.095   8.941  0.9181  0.6867  1.1481
   20CHL1  H27B 1479   5.799   1.123   8.803  1.5641 -1.5046 -1.1513
   20CHL1  H27C 1480   5.722   0.968   8.822  0.5074  0.3712 -0.9753
   21CHL1    C3 1481   5.674   4.044  10.123  0.6195  0.0302 -0.0357
   21CHL1    H3 1482   5.783   4.041  10.101  0.7191 -0.8625  0.5413
   21CHL1    O3 1483   5.663   4.035  10.266  0.9117  0.4896 -0.4514
   21CHL1   H3' 1484   5.585   4.089  10.280  0.3426 -0.2187 -0.8681
   21CHL1    C4 1485   5.623   4.180  10.087  0.4783  0.0761 -0.3803
   21CHL1   H4A 1486   5.524   4.200  10.134  0.3158  0.3723 -0.8478
   21CHL1   H4B 1487   5.691   4.256  10.133 -0.6839 -0.3516  2.1480
   21CHL1    C5 1488   5.614   4.198   9.933  0.1197  0.7643  0.2852
   21CHL1    C6 1489   5.658   4.307   9.874  0.3452  0.3874  0.1292
   21CHL1    H6 1490   5.693   4.392   9.935  1.1439  0.2006 -0.0575
   21CHL1    C7 1491   5.654   4.334   9.726  0.1471  0.1318  0.5164
   21CHL1   H7A 1492   5.636   4.440   9.700 -0.9047 -0.2845 -0.4641
   21CHL1   H7B 1493   5.748   4.307   9.674  1.0110  1.5904  1.2718
   21CHL1    C8 1494   5.549   4.246   9.649 -0.6155  0.6809  0.2407
   21CHL1    H8 1495   5.444   4.268   9.676 -0.4479  1.5741  0.1760
   21CHL1   C14 1496   5.564   4.250   9.495 -0.2143  1.3902 -0.1063
   21CHL1   H14 1497   5.670   4.228   9.471 -0.6390  0.5067 -1.2508
   21CHL1   C15 1498   5.551   4.385   9.423 -0.1796 -0.2706 -0.7745
   21CHL1  H15A 1499   5.455   4.423   9.465  0.5081  0.2833  0.3115
   21CHL1  H15B 1500   5.635   4.454   9.442 -0.4553 -0.1201 -0.0955
   21CHL1   C16 1501   5.559   4.349   9.273 -0.3885  0.1673 -0.1693
   21CHL1  H16A 1502   5.464   4.387   9.229 -2.0300 -1.0258  2.1820
   21CHL1  H16B 1503   5.652   4.384   9.224  0.1346 -2.1524 -0.9381
   21CHL1   C17 1504   5.544   4.187   9.277  0.5382 -0.9975 -0.4208
   21CHL1   H17 1505   5.648   4.146   9.274  1.7627  1.8591  1.4260
   21CHL1   C13 1506   5.490   4.148   9.412  0.8500  0.6417  0.0988
   21CHL1   C18 1507   5.330   4.159   9.423  0.1440 -0.5234 -0.3084
   21CHL1  H18A 1508   5.277   4.133   9.329  0.6653 -1.2473 -0.4063
   21CHL1  H18B 1509   5.306   4.097   9.512  1.5516  1.1495  1.2587
   21CHL1  H18C 1510   5.288   4.260   9.438  4.6255  1.3687  0.3715
   21CHL1   C12 1511   5.543   4.005   9.463  0.5565  0.1205  0.3281
   21CHL1  H12A 1512   5.477   3.933   9.410 -0.5401  0.9689  0.5193
   21CHL1  H12B 1513   5.647   3.989   9.429  1.6793  1.8462  2.8409
   21CHL1   C11 1514   5.526   3.987   9.612  0.7072  0.2845 -0.0305
   21CHL1  H11A 1515   5.421   3.964   9.643  1.4096 -2.5866  0.3593
   21CHL1  H11B 1516   5.578   3.891   9.633  0.2330 -0.0450 -0.3420
   21CHL1    C9 1517   5.577   4.098   9.699  0.1775 -1.1479 -0.2592
   21CHL1    H9 1518   5.687   4.081   9.692  0.1796 -0.5300 -1.8418
   21CHL1   C10 1519   5.552   4.081   9.853 -0.7137  0.0550  0.2562
   21CHL1   C19 1520   5.405   4.085   9.889  0.1606  0.1253 -0.2409
   21CHL1  H19A 1521   5.403   4.070   9.999  0.2225 -0.4276 -0.3154
   21CHL1  H19B 1522   5.354   4.182   9.870  0.7381  1.0830  2.9082
   21CHL1  H19C 1523   5.348   4.006   9.836 -1.3000  0.4845  0.7662
   21CHL1    C1 1524   5.610   3.945   9.908  0.5184  0.2186 -0.4706
   21CHL1   H1A 1525   5.543   3.866   9.867  0.8899 -0.8930  1.0001
   21CHL1   H1B 1526   5.713   3.933   9.867  0.2064  1.2119 -1.5868
   21CHL1    C2 1527   5.601   3.929  10.060 -0.2729 -0.4100 -0.1780
   21CHL1   H2A 1528   5.641   3.832  10.097 -0.2922 -0.3597 -0.0258
   21CHL1   H2B 1529   5.495   3.934  10.092 -0.5216  0.0624 -1.0593
   21CHL1   C20 1530   5.480   4.126   9.146  0.0205  0.9407  0.1517
   21CHL1   H20 1531   5.369   4.118   9.154 -0.1082  2.2053 -0.3022
   21CHL1   C21 1532   5.529   3.981   9.119  0.4807  0.1355 -0.2866
   21CHL1  H21A 1533   5.635   3.988   9.088  0.0642  1.2244 -1.4944
   21CHL1  H21B 1534   5.469   3.939   9.035 -2.4230 -0.0833  1.8112
   21CHL1  H21C 1535   5.522   3.919   9.211 -0.5387 -1.4292 -1.3775
   21CHL1   C22 1536   5.516   4.213   9.014  1.0614  0.3018 -0.6137
   21CHL1  H22A 1537   5.479   4.318   9.019 -0.3736 -0.1011 -2.1300
   21CHL1  H22B 1538   5.627   4.211   9.009  1.1549 -0.5727  1.4274
   21CHL1   C23 1539   5.451   4.164   8.878 -0.0704 -0.0719 -0.5532
   21CHL1  H23A 1540   5.474   4.057   8.858  2.2953  0.2860  0.1232
   21CHL1  H23B 1541   5.340   4.169   8.883 -0.0561 -0.6260  0.4910
   21CHL1   C24 1542   5.494   4.266   8.763  0.0938 -0.7447  0.1527
   21CHL1  H24A 1543   5.454   4.366   8.789 -0.5403 -0.4676 -1.8075
   21CHL1  H24B 1544   5.605   4.270   8.765  0.0483 -0.0100  1.3112
   21CHL1   C25 1545   5.443   4.235   8.623 -0.6789 -0.5494 -0.4623
   21CHL1   H25 1546   5.474   4.130   8.604  0.1557 -0.3587 -0.1602
   21CHL1   C26 1547   5.293   4.227   8.607 -0.2742  0.5747  0.5239
   21CHL1  H26A 1548   5.243   4.160   8.680  1.2257  1.3885  2.3642
   21CHL1  H26B 1549   5.246   4.324   8.631 -2.1938  0.0585 -1.0828
   21CHL1  H26C 1550   5.277   4.197   8.502 -0.6495  0.1176  0.7106
   21CHL1   C27 1551   5.511   4.330   8.517 -0.9198  0.0431 -0.0564
   21CHL1  H27A 1552   5.521   4.431   8.561  0.6065 -0.1623  0.1055
   21CHL1  H27B 1553   5.612   4.287   8.501 -0.7881  0.0016  0.8630
   21CHL1  H27C 1554   5.462   4.326   8.417  0.0587  0.4941 -0.5526
   22CHL1    C3 1555   5.098   5.036  10.119 -0.0473 -0.0168  0.2587
   22CHL1    H3 1556   5.106   4.928  10.096  2.6406  0.0262  0.7682
   22CHL1    O3 1557   5.054   5.044  10.251  0.1012  0.1566  0.3088
   22CHL1   H3' 1558   5.047   5.138  10.269  1.4582  0.1969  0.7107
   22CHL1    C4 1559   5.228   5.104  10.090  0.1787 -0.2894 -1.2242
   22CHL1   H4A 1560   5.229   5.207  10.132 -0.4896 -0.0735 -1.7230
   22CHL1   H4B 1561   5.300   5.043  10.149 -1.9169 -2.3773 -0.7529
   22CHL1    C5 1562   5.269   5.089   9.944  0.2065  0.1655 -0.5294
   22CHL1    C6 1563   5.383   5.026   9.916  0.1389  0.1414 -0.3691
   22CHL1    H6 1564   5.450   5.000  10.000 -1.2310 -0.2156  0.6363
   22CHL1    C7 1565   5.435   5.026   9.770 -0.0678 -0.5562  0.6438
   22CHL1   H7A 1566   5.533   5.076   9.755 -0.3447  0.8070  3.2234
   22CHL1   H7B 1567   5.427   4.920   9.735 -0.3219 -1.1058  2.3071
   22CHL1    C8 1568   5.352   5.101   9.666 -0.6459  0.0998  0.0191
   22CHL1    H8 1569   5.383   5.208   9.661  0.7209 -0.2989 -0.2456
   22CHL1   C14 1570   5.375   5.043   9.527 -0.1331 -0.2392 -0.9813
   22CHL1   H14 1571   5.335   4.940   9.536  0.4546 -0.3434  0.6332
   22CHL1   C15 1572   5.523   5.025   9.486 -0.2329  0.2374  0.3122
   22CHL1  H15A 1573   5.580   5.116   9.517 -0.1728  0.2571  0.1438
   22CHL1  H15B 1574   5.555   4.935   9.543  1.0129  2.0684  2.6085
   22CHL1   C16 1575   5.508   5.001   9.334  0.1174 -0.3178  0.2779
   22CHL1  H16A 1576   5.563   5.073   9.270  1.5357 -0.9222  0.8110
   22CHL1  H16B 1577   5.543   4.900   9.302  0.8479 -0.2088  0.7269
   22CHL1   C17 1578   5.363   5.019   9.301  0.8823 -0.5434 -0.3773
   22CHL1   H17 1579   5.308   4.923   9.315 -3.5629  2.1247  1.5803
   22CHL1   C13 1580   5.308   5.106   9.408  0.1492 -0.0670 -0.1320
   22CHL1   C18 1581   5.361   5.257   9.396 -0.4010 -0.0764  0.3960
   22CHL1  H18A 1582   5.363   5.298   9.292  0.7264  0.3457  0.5817
   22CHL1  H18B 1583   5.294   5.317   9.461 -0.7030 -0.5477  0.5246
   22CHL1  H18C 1584   5.465   5.271   9.431 -0.7327  1.8574  0.6677
   22CHL1   C12 1585   5.153   5.101   9.434  0.1325 -0.1110 -0.3692
   22CHL1  H12A 1586   5.090   5.165   9.369  1.6989 -0.2021 -2.0130
   22CHL1  H12B 1587   5.129   4.993   9.434  0.1720 -0.1385  1.1873
   22CHL1   C11 1588   5.113   5.143   9.578  0.3789 -0.9740 -0.3989
   22CHL1  H11A 1589   5.097   5.252   9.590  2.2430 -0.8958  1.5343
   22CHL1  H11B 1590   5.007   5.108   9.587  1.3771 -3.6191  1.7643
   22CHL1    C9 1591   5.204   5.085   9.693 -0.1292 -0.0844 -0.5327
   22CHL1    H9 1592   5.186   4.975   9.704  0.7442 -0.2371 -0.5767
   22CHL1   C10 1593   5.171   5.146   9.833 -0.2464 -0.6069 -0.8713
   22CHL1   C19 1594   5.170   5.301   9.842  0.1271 -0.2784 -0.1670
   22CHL1  H19A 1595   5.267   5.336   9.803 -0.7470  0.8435 -1.3652
   22CHL1  H19B 1596   5.084   5.349   9.790  0.3441  1.2113  0.8050
   22CHL1  H19C 1597   5.167   5.345   9.944  2.1924  0.7001 -0.5029
   22CHL1    C1 1598   5.033   5.083   9.869 -0.0628 -0.5574  0.8190
   22CHL1   H1A 1599   4.949   5.119   9.807 -0.5684  2.0496  2.9174
   22CHL1   H1B 1600   5.029   4.973   9.857 -0.6636 -0.3954 -0.4722
   22CHL1    C2 1601   4.995   5.098  10.020  0.3102 -0.2809  0.0352
   22CHL1   H2A 1602   4.898   5.050  10.046 -2.4129  3.0003 -3.3915
   22CHL1   H2B 1603   4.992   5.205  10.049 -1.4587 -0.1736 -0.4568
   22CHL1   C20 1604   5.351   5.064   9.156 -0.8541 -0.5529 -0.0391
   22CHL1   H20 1605   5.405   5.158   9.137 -1.4594 -0.2439 -0.2402
   22CHL1   C21 1606   5.203   5.089   9.112 -0.0671 -0.0144  0.0913
   22CHL1  H21A 1607   5.142   5.007   9.156 -0.1335 -0.7676 -1.3684
   22CHL1  H21B 1608   5.183   5.097   9.003 -0.8666 -0.8806  0.1598
   22CHL1  H21C 1609   5.178   5.189   9.154 -1.1025  0.7106 -2.1517
   22CHL1   C22 1610   5.424   4.958   9.074 -0.1981  0.0728  0.6716
   22CHL1  H22A 1611   5.418   4.988   8.967 -1.4769  1.5872  1.1507
   22CHL1  H22B 1612   5.535   4.958   9.085 -0.0485  2.3471 -0.5544
   22CHL1   C23 1613   5.370   4.814   9.081 -0.1116 -0.1319 -0.3764
   22CHL1  H23A 1614   5.357   4.791   9.188 -0.4380  1.8014  0.0160
   22CHL1  H23B 1615   5.267   4.816   9.040  0.8281 -0.5306 -2.9014
   22CHL1   C24 1616   5.439   4.695   9.006  0.2153  0.1061 -0.1010
   22CHL1  H24A 1617   5.541   4.692   9.051 -0.2898 -2.0449  0.9774
   22CHL1  H24B 1618   5.382   4.601   9.026 -1.3201  1.0985  0.2587
   22CHL1   C25 1619   5.456   4.719   8.847 -0.4871  0.1586  0.3990
   22CHL1   H25 1620   5.444   4.825   8.818  1.0321  0.4525  0.7819
   22CHL1   C26 1621   5.599   4.673   8.806  0.2660 -0.0805  0.3019
   22CHL1  H26A 1622   5.616   4.567   8.834  1.5956 -0.3324 -1.3728
   22CHL1  H26B 1623   5.633   4.699   8.703 -0.1291 -0.2995  0.1193
   22CHL1  H26C 1624   5.663   4.748   8.857 -1.1602  0.9629  0.5917
   22CHL1   C27 1625   5.348   4.642   8.766 -0.7080 -0.1168 -0.4388
   22CHL1  H27A 1626   5.352   4.639   8.656  2.1877  2.7486 -0.4884
   22CHL1  H27B 1627   5.335   4.536   8.796  0.9607 -0.0845  0.4736
   22CHL1  H27C 1628   5.245   4.681   8.783 -1.4490 -2.7584  1.4526
   23CHL1    C3 1629   1.770   6.628  10.252  0.1341 -0.2700  0.2498
   23CHL1    H3 1630   1.782   6.734  10.219 -2.5384  0.4298  1.3802
   23CHL1    O3 1631   1.763   6.612  10.388  0.3248 -0.1146  0.2007
   23CHL1   H3' 1632   1.856   6.617  10.414  0.4009 -0.4799  0.0063
   23CHL1    C4 1633   1.638   6.578  10.186  0.2162  0.3758  0.6951
   23CHL1   H4A 1634   1.633   6.471  10.216 -1.1335 -0.1735 -1.4021
   23CHL1   H4B 1635   1.556   6.635  10.235  0.0840  0.7767  0.0068
   23CHL1    C5 1636   1.642   6.591  10.030 -0.9139  0.2128  0.3913
   23CHL1    C6 1637   1.570   6.673   9.962  0.2659 -0.4969  0.0708
   23CHL1    H6 1638   1.496   6.731  10.018 -2.3614 -0.9946 -2.7783
   23CHL1    C7 1639   1.580   6.690   9.813  0.9646 -1.1206  0.4941
   23CHL1   H7A 1640   1.477   6.696   9.772  0.4000 -1.2188  1.8675
   23CHL1   H7B 1641   1.634   6.781   9.778 -1.3233 -0.4705 -1.4037
   23CHL1    C8 1642   1.655   6.574   9.748 -0.2210  0.5857  0.1075
   23CHL1    H8 1643   1.581   6.492   9.756 -0.6886  1.0735  0.8128
   23CHL1   C14 1644   1.681   6.604   9.603  0.3691 -0.3226  0.1537
   23CHL1   H14 1645   1.746   6.694   9.596  2.1199 -1.4490  1.4467
   23CHL1   C15 1646   1.568   6.645   9.516  0.1617 -0.3082  0.5413
   23CHL1  H15A 1647   1.478   6.580   9.515  0.3513 -0.5831  1.0823
   23CHL1  H15B 1648   1.534   6.746   9.546  1.4276 -0.2108  1.6951
   23CHL1   C16 1649   1.621   6.639   9.371  0.2111 -0.0337  0.4247
   23CHL1  H16A 1650   1.548   6.589   9.303 -0.8444 -0.7806  2.0720
   23CHL1  H16B 1651   1.658   6.732   9.323 -0.6721  0.5279  0.8350
   23CHL1   C17 1652   1.754   6.556   9.383  0.3851 -0.1866  0.2509
   23CHL1   H17 1653   1.826   6.641   9.380 -1.8405  1.7920  0.7486
   23CHL1   C13 1654   1.754   6.498   9.523  1.0964 -0.0874  0.9530
   23CHL1   C18 1655   1.671   6.367   9.510 -0.2799  0.3788  0.5077
   23CHL1  H18A 1656   1.735   6.290   9.464  0.4138  1.1135  0.2317
   23CHL1  H18B 1657   1.636   6.322   9.606  4.5319  1.2992  2.8357
   23CHL1  H18C 1658   1.580   6.383   9.448  1.1648  1.1042 -1.4803
   23CHL1   C12 1659   1.890   6.477   9.601 -0.6057  0.5827  0.1174
   23CHL1  H12A 1660   1.943   6.386   9.564 -1.6871 -0.2920  0.6736
   23CHL1  H12B 1661   1.954   6.566   9.583  1.3909 -0.3417  2.3528
   23CHL1   C11 1662   1.875   6.449   9.747  0.5567 -0.0010  0.1028
   23CHL1  H11A 1663   1.829   6.348   9.752  0.9909 -0.2240 -0.3367
   23CHL1  H11B 1664   1.970   6.445   9.803  0.4542  1.5968  0.4268
   23CHL1    C9 1665   1.782   6.544   9.824 -0.4529  0.2084 -0.0881
   23CHL1    H9 1666   1.839   6.639   9.834  1.5636 -0.9346 -0.3891
   23CHL1   C10 1667   1.756   6.505   9.973 -0.2486  0.5814  0.0980
   23CHL1   C19 1668   1.723   6.353   9.997 -0.2153 -0.8001  0.9486
   23CHL1  H19A 1669   1.614   6.336   9.981  0.1360 -1.7020 -0.6460
   23CHL1  H19B 1670   1.786   6.287   9.934 -0.5703  0.3367 -0.6463
   23CHL1  H19C 1671   1.752   6.337  10.103  4.0111  1.2591  0.2018
   23CHL1    C1 1672   1.887   6.522  10.049 -0.2861  0.3283  0.1240
   23CHL1   H1A 1673   1.963   6.444  10.026 -0.1221  1.2678 -2.6082
   23CHL1   H1B 1674   1.924   6.622  10.020  0.0760  0.2610  0.3473
   23CHL1    C2 1675   1.880   6.533  10.208 -0.4239  0.6116  0.1019
   23CHL1   H2A 1676   1.978   6.570  10.246 -0.5861 -0.2774  1.3951
   23CHL1   H2B 1677   1.879   6.442  10.271  2.4484  0.9341  0.6724
   23CHL1   C20 1678   1.778   6.467   9.261  0.0095 -0.2034  0.4103
   23CHL1   H20 1679   1.704   6.385   9.258 -0.0090 -0.1392 -1.3048
   23CHL1   C21 1680   1.923   6.409   9.272 -0.2558 -0.6643  0.4003
   23CHL1  H21A 1681   1.963   6.376   9.174 -1.3041  0.5076 -0.4328
   23CHL1  H21B 1682   1.952   6.337   9.351 -1.6607 -1.3703  0.2842
   23CHL1  H21C 1683   1.983   6.500   9.294 -0.9152 -0.3658  0.9876
   23CHL1   C22 1684   1.778   6.547   9.122 -0.9146 -0.0142  0.9951
   23CHL1  H22A 1685   1.690   6.613   9.111 -1.5919 -1.0351  0.2221
   23CHL1  H22B 1686   1.872   6.607   9.124 -0.8207 -0.0696 -0.8885
   23CHL1   C23 1687   1.792   6.456   8.998 -0.7527 -0.7068  0.9330
   23CHL1  H23A 1688   1.862   6.372   9.019  1.4349 -0.0599 -3.1578
   23CHL1  H23B 1689   1.703   6.403   8.961 -0.5190 -0.5969  0.2090
   23CHL1   C24 1690   1.862   6.538   8.885  0.1881 -0.6102  0.5879
   23CHL1  H24A 1691   1.957   6.575   8.931 -0.3773  0.7776  0.6612
   23CHL1  H24B 1692   1.885   6.478   8.794  1.1470  1.5621 -0.6298
   23CHL1   C25 1693   1.784   6.661   8.842 -0.2089 -0.0399 -0.0495
   23CHL1   H25 1694   1.745   6.722   8.928 -0.4276  2.2386 -1.7159
   23CHL1   C26 1695   1.870   6.739   8.738 -0.1006  0.0465 -0.1285
   23CHL1  H26A 1696   1.820   6.835   8.714  0.1230 -0.5391 -3.2072
   23CHL1  H26B 1697   1.976   6.754   8.767 -0.2746  0.2972  0.3708
   23CHL1  H26C 1698   1.890   6.684   8.643  0.9530 -0.1658  0.2109
   23CHL1   C27 1699   1.644   6.620   8.785  0.4521 -0.0668  0.7776
   23CHL1  H27A 1700   1.592   6.568   8.868  0.4635 -1.9741 -0.3773
   23CHL1  H27B 1701   1.600   6.709   8.736 -0.3715 -0.7441  0.2710
   23CHL1  H27C 1702   1.673   6.549   8.704 -0.3497 -2.0814  2.2185
   24CHL1    C3 1703   3.014   0.579  10.089 -0.0984  1.0730  1.1018
   24CHL1    H3 1704   3.111   0.530  10.111 -0.1543 -0.0610 -1.0428
   24CHL1    O3 1705   2.916   0.585  10.191 -0.2337  0.6306  0.1009
   24CHL1   H3' 1706   2.846   0.638  10.152 -0.9336 -0.3803 -0.0059
   24CHL1    C4 1707   3.047   0.727  10.067  0.1854 -0.0647  0.4739
   24CHL1   H4A 1708   2.950   0.779  10.061 -0.0364 -0.7244 -2.0220
   24CHL1   H4B 1709   3.106   0.764  10.154  1.1382 -2.5454  0.9325
   24CHL1    C5 1710   3.129   0.745   9.936 -0.3940  1.3247  0.0228
   24CHL1    C6 1711   3.248   0.810   9.935 -0.4771 -0.5458 -0.5727
   24CHL1    H6 1712   3.297   0.838  10.029 -0.1636  1.2990 -1.2766
   24CHL1    C7 1713   3.329   0.837   9.814  1.1501 -0.2955  0.0320
   24CHL1   H7A 1714   3.362   0.944   9.810 -2.8720  1.0255  0.1328
   24CHL1   H7B 1715   3.425   0.782   9.819  1.5439  0.6148  3.9397
   24CHL1    C8 1716   3.248   0.800   9.680  0.3747 -0.3202 -0.4717
   24CHL1    H8 1717   3.168   0.877   9.668  0.4188 -0.4486 -1.7255
   24CHL1   C14 1718   3.335   0.795   9.566 -0.6445 -0.1028 -0.3779
   24CHL1   H14 1719   3.416   0.721   9.582 -1.1939 -0.3801  1.1367
   24CHL1   C15 1720   3.423   0.926   9.540 -0.1348  0.2730  0.0526
   24CHL1  H15A 1721   3.365   1.020   9.546  1.2034  1.0740  0.7458
   24CHL1  H15B 1722   3.499   0.935   9.620 -0.8695 -0.8743  0.8968
   24CHL1   C16 1723   3.476   0.912   9.399 -0.5547 -0.4832 -0.4058
   24CHL1  H16A 1724   3.432   0.993   9.336  0.1666 -1.7431 -2.5694
   24CHL1  H16B 1725   3.587   0.906   9.393 -0.3290  1.5831  1.2850
   24CHL1   C17 1726   3.408   0.783   9.338  0.5129 -0.0458 -0.2718
   24CHL1   H17 1727   3.479   0.705   9.372 -0.4263 -0.3909  0.9398
   24CHL1   C13 1728   3.279   0.763   9.433  0.0452 -0.4763 -0.2149
   24CHL1   C18 1729   3.179   0.866   9.390  0.4969  0.1325  0.1145
   24CHL1  H18A 1730   3.087   0.859   9.453 -1.3925  1.2891 -2.4561
   24CHL1  H18B 1731   3.218   0.970   9.392  2.2476 -0.5129  0.5169
   24CHL1  H18C 1732   3.142   0.839   9.289 -0.0924 -1.2354  0.6771
   24CHL1   C12 1733   3.225   0.624   9.450  0.6121 -0.1333  0.7291
   24CHL1  H12A 1734   3.159   0.597   9.365 -1.8368  4.1943  1.1517
   24CHL1  H12B 1735   3.312   0.555   9.453  1.1873  0.5444 -0.2122
   24CHL1   C11 1736   3.129   0.608   9.570  0.5758  0.0266 -0.1182
   24CHL1  H11A 1737   3.040   0.668   9.540  0.1365 -1.2187 -1.3503
   24CHL1  H11B 1738   3.101   0.503   9.595 -1.3338  0.6814  0.6154
   24CHL1    C9 1739   3.184   0.663   9.695  0.3001 -0.6048 -0.0548
   24CHL1    H9 1740   3.260   0.595   9.737 -0.7940 -1.4135  0.6380
   24CHL1   C10 1741   3.076   0.670   9.813 -0.6549  0.7333 -0.2372
   24CHL1   C19 1742   2.936   0.738   9.782 -0.7328  0.5264  0.2594
   24CHL1  H19A 1743   2.867   0.734   9.869 -1.8059 -2.2722 -0.6790
   24CHL1  H19B 1744   2.948   0.845   9.755  2.3004 -0.3643 -2.1540
   24CHL1  H19C 1745   2.890   0.692   9.692 -0.9518 -1.1591  1.2253
   24CHL1    C1 1746   3.045   0.522   9.850  0.1641  0.7968  0.0480
   24CHL1   H1A 1747   2.984   0.488   9.764  0.5675  0.7079 -0.2064
   24CHL1   H1B 1748   3.138   0.462   9.868 -0.0397  0.1554 -1.0374
   24CHL1    C2 1749   2.949   0.506   9.970 -0.2652  0.5538  0.3004
   24CHL1   H2A 1750   2.950   0.398   9.996  1.6147  0.2214 -1.0650
   24CHL1   H2B 1751   2.846   0.540   9.944  0.1613  1.5159 -0.1815
   24CHL1   C20 1752   3.393   0.779   9.194 -0.2962 -1.0497 -0.2432
   24CHL1   H20 1753   3.330   0.868   9.173 -2.1702 -1.6448  2.6884
   24CHL1   C21 1754   3.314   0.656   9.157 -0.0375 -0.4434  0.0085
   24CHL1  H21A 1755   3.205   0.673   9.167  0.4636  1.5228  2.7484
   24CHL1  H21B 1756   3.353   0.569   9.214  1.6559  0.1894 -0.1648
   24CHL1  H21C 1757   3.343   0.633   9.052  2.4507 -2.2374  1.0323
   24CHL1   C22 1758   3.525   0.781   9.112 -0.2095 -0.1964  0.4021
   24CHL1  H22A 1759   3.589   0.856   9.163 -0.8310 -1.4120  3.0460
   24CHL1  H22B 1760   3.576   0.682   9.121  0.6640  0.0229 -1.7204
   24CHL1   C23 1761   3.516   0.817   8.958 -0.2556  0.1770 -0.2125
   24CHL1  H23A 1762   3.429   0.769   8.907  1.7415 -1.5786 -2.1278
   24CHL1  H23B 1763   3.506   0.927   8.953 -0.8676  0.2559  2.4555
   24CHL1   C24 1764   3.650   0.792   8.885  0.7873 -0.2189  0.3789
   24CHL1  H24A 1765   3.728   0.825   8.956  0.1742  1.7539  0.1539
   24CHL1  H24B 1766   3.668   0.684   8.865 -2.2281 -0.4220 -1.6567
   24CHL1   C25 1767   3.665   0.873   8.759 -0.0487 -0.6113  0.5209
   24CHL1   H25 1768   3.657   0.981   8.788  0.4724 -0.3217 -0.4088
   24CHL1   C26 1769   3.798   0.831   8.692  0.4193  0.1609 -0.2101
   24CHL1  H26A 1770   3.804   0.723   8.667  4.6038  0.2063  0.3899
   24CHL1  H26B 1771   3.812   0.882   8.595  2.3872 -1.5978 -0.8805
   24CHL1  H26C 1772   3.880   0.865   8.758 -1.5618  0.1911  2.3590
   24CHL1   C27 1773   3.552   0.845   8.651 -0.4195  0.0008  0.2444
   24CHL1  H27A 1774   3.460   0.889   8.696 -2.2610 -3.7849  0.3914
   24CHL1  H27B 1775   3.578   0.887   8.552 -1.6231 -1.0143 -0.5177
   24CHL1  H27C 1776   3.546   0.736   8.634  0.2495  0.4484 -3.1974
   25CHL1    C3 1777   4.419   1.543  10.366  0.0800  0.8383  0.0530
   25CHL1    H3 1778   4.526   1.515  10.382 -0.6721 -1.8438  0.5976
   25CHL1    O3 1779   4.357   1.545  10.490  0.5826  0.2565  0.6122
   25CHL1   H3' 1780   4.415   1.481  10.533 -0.4178  0.4289  2.2566
   25CHL1    C4 1781   4.407   1.678  10.297 -0.0742  0.1512 -0.1800
   25CHL1   H4A 1782   4.301   1.711  10.288  0.7281  2.8944 -0.3065
   25CHL1   H4B 1783   4.462   1.746  10.365  1.4186 -1.0839 -0.1384
   25CHL1    C5 1784   4.474   1.679  10.161  0.0192 -0.2042  0.3459
   25CHL1    C6 1785   4.583   1.763  10.147 -0.4762 -0.2175 -0.4477
   25CHL1    H6 1786   4.605   1.839  10.224  2.6876 -0.7278 -0.7985
   25CHL1    C7 1787   4.651   1.785  10.014  1.3539  0.0205 -0.2032
   25CHL1   H7A 1788   4.667   1.893   9.993 -0.4581  0.0554 -1.5088
   25CHL1   H7B 1789   4.748   1.731  10.005  1.0766 -0.8009  1.5054
   25CHL1    C8 1790   4.564   1.721   9.901  0.0341  0.5912  0.9132
   25CHL1    H8 1791   4.481   1.789   9.874  1.1627  2.7266  2.6966
   25CHL1   C14 1792   4.649   1.719   9.772  0.5242  0.8056 -0.0865
   25CHL1   H14 1793   4.729   1.646   9.799  0.0477  0.7845  1.3485
   25CHL1   C15 1794   4.738   1.844   9.741 -0.3997 -0.5729 -0.1769
   25CHL1  H15A 1795   4.693   1.941   9.768 -2.2065 -2.0331  2.2432
   25CHL1  H15B 1796   4.833   1.829   9.796 -0.4882  1.5012  0.5548
   25CHL1   C16 1797   4.765   1.828   9.590  0.2529  0.0229  0.0602
   25CHL1  H16A 1798   4.709   1.905   9.532 -2.1678 -0.5132  1.6081
   25CHL1  H16B 1799   4.873   1.849   9.574  0.1172  1.4309  0.8844
   25CHL1   C17 1800   4.718   1.688   9.549 -0.6700  0.0395 -0.0814
   25CHL1   H17 1801   4.796   1.618   9.587 -2.4226 -1.5249  0.7554
   25CHL1   C13 1802   4.596   1.657   9.643 -0.7099 -0.0673  0.3569
   25CHL1   C18 1803   4.477   1.730   9.598  0.4413 -0.1923 -0.0801
   25CHL1  H18A 1804   4.502   1.838   9.586 -0.6999  0.0497 -0.3774
   25CHL1  H18B 1805   4.431   1.682   9.509  0.1277 -0.9392  0.4806
   25CHL1  H18C 1806   4.390   1.730   9.667 -1.0551  2.0011 -1.8837
   25CHL1   C12 1807   4.559   1.509   9.680 -1.0497 -0.4841  0.3039
   25CHL1  H12A 1808   4.502   1.460   9.598  2.7732 -2.3882 -1.3120
   25CHL1  H12B 1809   4.652   1.455   9.706 -0.3677  0.2968 -0.4915
   25CHL1   C11 1810   4.472   1.497   9.807  0.3879  0.8120  0.0948
   25CHL1  H11A 1811   4.371   1.526   9.772 -0.3340 -2.4764 -0.6289
   25CHL1  H11B 1812   4.473   1.391   9.840  0.5399  0.5051 -0.8681
   25CHL1    C9 1813   4.519   1.573   9.936  0.0065  0.6443 -0.2680
   25CHL1    H9 1814   4.617   1.532   9.968  0.5520  0.1870 -2.4532
   25CHL1   C10 1815   4.423   1.572  10.062  0.5321  0.1256 -0.0535
   25CHL1   C19 1816   4.288   1.620  10.007 -0.8716  0.2847 -0.6753
   25CHL1  H19A 1817   4.286   1.708   9.939 -2.1635 -0.5112 -1.6931
   25CHL1  H19B 1818   4.250   1.535   9.946  1.0367 -1.7142  0.8892
   25CHL1  H19C 1819   4.214   1.637  10.088  0.9800  1.1539  0.8688
   25CHL1    C1 1820   4.428   1.437  10.141 -0.4647  0.6455 -0.0771
   25CHL1   H1A 1821   4.380   1.370  10.067 -0.8204  1.7074 -0.8222
   25CHL1   H1B 1822   4.535   1.409  10.155 -0.8588 -1.3429 -0.8891
   25CHL1    C2 1823   4.362   1.435  10.284  0.0699 -0.1597  0.2815
   25CHL1   H2A 1824   4.378   1.339  10.337  0.9531  0.6098  1.4466
   25CHL1   H2B 1825   4.254   1.447  10.261 -0.6929  0.5253  3.8884
   25CHL1   C20 1826   4.705   1.676   9.388 -0.1027 -0.6290 -0.1151
   25CHL1   H20 1827   4.629   1.749   9.351  0.7682 -0.4131 -1.5182
   25CHL1   C21 1828   4.675   1.534   9.361  0.0004  0.4273  0.4784
   25CHL1  H21A 1829   4.757   1.461   9.383  0.9210  0.9551 -1.0938
   25CHL1  H21B 1830   4.644   1.527   9.255  1.1224 -0.3946  0.1997
   25CHL1  H21C 1831   4.581   1.509   9.414  0.9385 -0.7424  1.6254
   25CHL1   C22 1832   4.840   1.721   9.318  0.0032  0.4038  0.1809
   25CHL1  H22A 1833   4.864   1.824   9.350  1.4410 -0.0991  0.7670
   25CHL1  H22B 1834   4.920   1.660   9.366  1.5241  1.6795 -0.6985
   25CHL1   C23 1835   4.834   1.711   9.163  0.3707 -0.4109 -0.1270
   25CHL1  H23A 1836   4.802   1.610   9.128 -1.0369  0.3748 -1.1628
   25CHL1  H23B 1837   4.761   1.786   9.126  0.7070 -0.2817 -0.5399
   25CHL1   C24 1838   4.970   1.731   9.097 -0.4176  0.0540  0.4590
   25CHL1  H24A 1839   5.021   1.827   9.121 -0.8550  0.4931 -0.3427
   25CHL1  H24B 1840   5.040   1.665   9.153  1.5230  1.6114 -0.0899
   25CHL1   C25 1841   4.973   1.697   8.943 -0.1191  0.0504  0.1107
   25CHL1   H25 1842   4.933   1.596   8.920  0.9578  0.0362 -1.8408
   25CHL1   C26 1843   4.900   1.804   8.858 -0.6219  0.0533 -0.2522
   25CHL1  H26A 1844   4.958   1.895   8.833 -1.8139  0.1045 -3.0086
   25CHL1  H26B 1845   4.872   1.760   8.760 -0.0856  0.5899 -0.6502
   25CHL1  H26C 1846   4.804   1.833   8.906 -0.1314  0.2700  0.6073
   25CHL1   C27 1847   5.119   1.691   8.897  0.3238  0.4700  0.0987
   25CHL1  H27A 1848   5.164   1.598   8.939 -1.5226 -1.1832 -1.5025
   25CHL1  H27B 1849   5.116   1.682   8.787 -0.7268 -1.3643  0.2583
   25CHL1  H27C 1850   5.183   1.774   8.934 -0.8833  0.7326  1.6804
   26CHL1    C3 1851   5.815   4.851  10.168 -0.2822 -0.5288 -0.9595
   26CHL1    H3 1852   5.735   4.773  10.176  1.7014 -2.8032 -2.6626
   26CHL1    O3 1853   5.830   4.901  10.304  0.4669 -0.2497  0.4416
   26CHL1   H3' 1854   5.900   4.849  10.344 -0.4684 -0.5114  1.7624
   26CHL1    C4 1855   5.945   4.785  10.119 -0.5684  0.2310 -0.6709
   26CHL1   H4A 1856   6.017   4.869  10.127 -0.6980  0.2682  0.1629
   26CHL1   H4B 1857   5.976   4.705  10.189  0.8017  1.7738  0.5319
   26CHL1    C5 1858   5.941   4.740   9.976  0.0052 -0.3321 -0.6626
   26CHL1    C6 1859   5.967   4.615   9.939 -0.7597 -0.2623 -0.0954
   26CHL1    H6 1860   5.999   4.543  10.015 -1.2355  0.8888  1.2048
   26CHL1    C7 1861   5.965   4.554   9.802  0.2217  0.2623 -0.2508
   26CHL1   H7A 1862   6.059   4.498   9.782 -0.7207 -2.4466  2.4983
   26CHL1   H7B 1863   5.886   4.476   9.795 -0.1155  0.5491  0.3637
   26CHL1    C8 1864   5.955   4.670   9.697 -0.7029  0.6331 -0.1622
   26CHL1    H8 1865   6.058   4.703   9.671 -0.1999  0.1516  1.2033
   26CHL1   C14 1866   5.907   4.612   9.562 -0.4932  0.4860  0.2647
   26CHL1   H14 1867   5.808   4.570   9.586  0.4392 -1.4009  0.8577
   26CHL1   C15 1868   5.971   4.484   9.500  0.0153  0.0972  0.1380
   26CHL1  H15A 1869   6.082   4.482   9.505  0.0090 -0.4902  0.1359
   26CHL1  H15B 1870   5.932   4.391   9.547 -0.5026  0.3453  0.1979
   26CHL1   C16 1871   5.917   4.488   9.354 -0.2749  0.0263 -0.4371
   26CHL1  H16A 1872   5.991   4.454   9.278  0.5340  1.5283 -0.3385
   26CHL1  H16B 1873   5.830   4.419   9.344  0.1370 -0.7388  1.0847
   26CHL1   C17 1874   5.861   4.626   9.320  0.2635  0.3354 -0.1103
   26CHL1   H17 1875   5.750   4.627   9.317  0.2568 -0.1394 -0.0645
   26CHL1   C13 1876   5.896   4.713   9.452  0.1761 -0.2288  0.3758
   26CHL1   C18 1877   6.027   4.797   9.430  0.1690  0.4393  0.1457
   26CHL1  H18A 1878   6.008   4.876   9.354 -0.9887 -0.4359 -0.4916
   26CHL1  H18B 1879   6.062   4.854   9.519  2.5666 -0.8969  0.1026
   26CHL1  H18C 1880   6.113   4.731   9.404 -0.1824  0.3393 -0.7478
   26CHL1   C12 1881   5.784   4.814   9.489  0.0457 -0.5802 -0.0065
   26CHL1  H12A 1882   5.757   4.890   9.413  0.9120 -2.0384 -1.8275
   26CHL1  H12B 1883   5.694   4.753   9.512 -0.5508  1.2851  2.9512
   26CHL1   C11 1884   5.817   4.876   9.629 -0.5517 -0.2439  1.0507
   26CHL1  H11A 1885   5.897   4.952   9.613  0.0109 -0.8651  0.9275
   26CHL1  H11B 1886   5.726   4.934   9.659 -0.0249  0.3995  1.4168
   26CHL1    C9 1887   5.852   4.777   9.741  0.0717  0.1048  0.2397
   26CHL1    H9 1888   5.762   4.717   9.770 -0.1479 -0.4517 -1.5116
   26CHL1   C10 1889   5.888   4.848   9.881 -0.7211 -0.4384  0.5384
   26CHL1   C19 1890   5.988   4.958   9.855  0.1532 -0.0183  0.2398
   26CHL1  H19A 1891   6.011   5.006   9.953  0.6087 -2.5440  1.4137
   26CHL1  H19B 1892   6.084   4.918   9.817  0.8830  2.4442 -0.5743
   26CHL1  H19C 1893   5.943   5.035   9.789 -0.1956 -0.7546 -0.3803
   26CHL1    C1 1894   5.757   4.917   9.931  0.3332  0.5574 -0.2105
   26CHL1   H1A 1895   5.730   5.006   9.871 -1.5651  1.2381  1.6082
   26CHL1   H1B 1896   5.674   4.844   9.935  1.4572 -0.7330  0.2822
   26CHL1    C2 1897   5.773   4.973  10.076  0.1843  0.0541  0.5346
   26CHL1   H2A 1898   5.682   5.021  10.117  0.2120 -0.4666  1.2147
   26CHL1   H2B 1899   5.859   5.042  10.085  0.3616  0.0072 -0.7250
   26CHL1   C20 1900   5.899   4.677   9.178  0.2779  0.0438 -0.5169
   26CHL1   H20 1901   6.010   4.676   9.182  0.2113 -2.1384  1.9537
   26CHL1   C21 1902   5.847   4.821   9.148 -0.1759  0.6918  0.4428
   26CHL1  H21A 1903   5.894   4.905   9.204  0.3055  1.3000 -0.8504
   26CHL1  H21B 1904   5.737   4.829   9.159 -0.2812 -0.5678  0.3560
   26CHL1  H21C 1905   5.885   4.837   9.045  0.2322 -0.7516  0.3610
   26CHL1   C22 1906   5.864   4.585   9.058  0.0545  0.5325 -0.0253
   26CHL1  H22A 1907   5.869   4.478   9.087 -1.2425  0.4293 -0.1708
   26CHL1  H22B 1908   5.761   4.614   9.027  0.0720 -0.0436 -0.6432
   26CHL1   C23 1909   5.966   4.592   8.941 -0.6976 -0.0890 -0.7537
   26CHL1  H23A 1910   5.977   4.701   8.923  2.1938  0.2974  2.6988
   26CHL1  H23B 1911   6.056   4.556   8.996 -0.0783 -0.1136 -1.7760
   26CHL1   C24 1912   5.935   4.486   8.825  0.1795  0.4974  0.2638
   26CHL1  H24A 1913   5.910   4.387   8.868  1.2726 -0.1767 -0.6087
   26CHL1  H24B 1914   5.862   4.535   8.757 -0.4500  0.9470  1.2516
   26CHL1   C25 1915   6.067   4.464   8.744 -0.4781  0.0806  0.8207
   26CHL1   H25 1916   6.152   4.432   8.807 -0.7815 -3.0277 -0.2431
   26CHL1   C26 1917   6.050   4.357   8.633  0.2762  0.8074 -0.2903
   26CHL1  H26A 1918   6.148   4.358   8.580  0.6307 -0.9686  0.3014
   26CHL1  H26B 1919   6.035   4.252   8.667 -0.2406 -0.2767 -3.6688
   26CHL1  H26C 1920   5.964   4.376   8.565  0.3590 -0.5946 -0.8175
   26CHL1   C27 1921   6.114   4.594   8.673  0.4959 -0.1197  0.0635
   26CHL1  H27A 1922   6.046   4.615   8.588  2.5278  0.7891 -1.3872
   26CHL1  H27B 1923   6.108   4.685   8.737  0.0952  0.4121 -0.7257
   26CHL1  H27C 1924   6.218   4.581   8.636  1.1643 -0.0349  1.8677
   27CHL1    C3 1925   4.885   1.551  10.378  0.4675  0.2113  0.0012
   27CHL1    H3 1926   4.803   1.611  10.334 -0.0254  0.2905  0.9946
   27CHL1    O3 1927   4.874   1.557  10.517 -0.4609  0.0650 -0.0437
   27CHL1   H3' 1928   4.918   1.474  10.535 -1.9752 -1.3156 -2.4339
   27CHL1    C4 1929   4.873   1.403  10.327 -0.6219  0.1040  0.4873
   27CHL1   H4A 1930   4.945   1.342  10.385 -1.9510 -0.6173  1.4175
   27CHL1   H4B 1931   4.775   1.362  10.359 -0.5263  0.1938  0.8909
   27CHL1    C5 1932   4.904   1.390  10.179  0.0740 -0.4377 -0.0755
   27CHL1    C6 1933   4.826   1.332  10.092  0.0733  0.3009  0.3148
   27CHL1    H6 1934   4.730   1.295  10.131  0.4339  0.4031  1.3219
   27CHL1    C7 1935   4.851   1.309   9.945 -0.3654  0.0881 -0.0325
   27CHL1   H7A 1936   4.832   1.205   9.912  0.8931  0.2146 -1.1765
   27CHL1   H7B 1937   4.780   1.371   9.886 -0.8068 -0.3726  0.0149
   27CHL1    C8 1938   4.989   1.348   9.900  0.5800  0.3044  0.6943
   27CHL1    H8 1939   5.067   1.273   9.926  1.0651 -0.1257 -1.8748
   27CHL1   C14 1940   4.984   1.357   9.747  0.1870 -0.0869 -0.3252
   27CHL1   H14 1941   4.919   1.441   9.712 -1.3772 -1.1873 -0.1334
   27CHL1   C15 1942   4.933   1.232   9.671  0.3534 -0.5833  0.7843
   27CHL1  H15A 1943   4.970   1.136   9.714 -1.8989 -2.1707 -0.6870
   27CHL1  H15B 1944   4.822   1.236   9.673  0.3778 -0.0834  1.0337
   27CHL1   C16 1945   4.978   1.247   9.533  0.2509  0.2377  0.1123
   27CHL1  H16A 1946   5.025   1.151   9.503  0.3872 -0.0528  1.2597
   27CHL1  H16B 1947   4.891   1.258   9.465  1.3265  0.6209 -1.2308
   27CHL1   C17 1948   5.081   1.372   9.523 -0.7034 -0.4494 -0.5775
   27CHL1   H17 1949   5.035   1.466   9.486  2.2107  0.8486 -1.1150
   27CHL1   C13 1950   5.117   1.391   9.672 -0.4305  0.3942 -0.3174
   27CHL1   C18 1951   5.228   1.289   9.705  0.0641 -0.0673 -0.3541
   27CHL1  H18A 1952   5.234   1.251   9.809 -0.4477 -1.9184 -0.9740
   27CHL1  H18B 1953   5.215   1.199   9.641 -1.0264  1.1767 -1.9045
   27CHL1  H18C 1954   5.328   1.332   9.680 -0.0435  0.8184  0.7109
   27CHL1   C12 1955   5.150   1.524   9.735 -0.6050 -0.1259 -0.3092
   27CHL1  H12A 1956   5.243   1.561   9.687 -0.4793  1.2774  0.9869
   27CHL1  H12B 1957   5.077   1.600   9.700 -0.4809  0.8614  1.5159
   27CHL1   C11 1958   5.162   1.532   9.885 -0.4459 -0.1743 -0.4061
   27CHL1  H11A 1959   5.246   1.473   9.928 -2.1684 -0.6848  2.3572
   27CHL1  H11B 1960   5.187   1.638   9.906 -1.7567 -0.2623  1.7446
   27CHL1    C9 1961   5.034   1.480   9.958  0.4258  0.7047  0.2505
   27CHL1    H9 1962   4.953   1.551   9.933  0.6464  0.6534 -0.6272
   27CHL1   C10 1963   5.032   1.469  10.122 -0.2788  0.8816 -0.6614
   27CHL1   C19 1964   5.162   1.390  10.167  0.2759 -0.0464  0.2706
   27CHL1  H19A 1965   5.159   1.294  10.111 -1.5138  0.0883  0.1152
   27CHL1  H19B 1966   5.252   1.446  10.136 -0.6476  1.3263  0.0305
   27CHL1  H19C 1967   5.156   1.364  10.275  0.0996  0.5709  0.4094
   27CHL1    C1 1968   5.035   1.606  10.184 -0.3016 -0.6172  0.4669
   27CHL1   H1A 1969   5.133   1.655  10.165  1.0828 -1.9999  3.7927
   27CHL1   H1B 1970   4.960   1.675  10.139 -0.9059 -2.5623 -1.5980
   27CHL1    C2 1971   5.022   1.607  10.335  0.6519 -0.0834 -0.7929
   27CHL1   H2A 1972   5.027   1.705  10.388  0.1212 -1.4385  1.8987
   27CHL1   H2B 1973   5.102   1.542  10.377 -2.6387 -3.7261  0.1281
   27CHL1   C20 1974   5.191   1.351   9.419 -0.3203  0.6366  0.3973
   27CHL1   H20 1975   5.261   1.270   9.449 -0.0566  0.7485  0.0831
   27CHL1   C21 1976   5.277   1.480   9.395  0.0935 -0.4932 -0.6445
   27CHL1  H21A 1977   5.370   1.456   9.340  0.7595 -0.5939  0.5140
   27CHL1  H21B 1978   5.294   1.516   9.499  0.3969 -0.2596 -0.7781
   27CHL1  H21C 1979   5.217   1.556   9.340 -0.6748 -0.5638  0.0709
   27CHL1   C22 1980   5.131   1.300   9.277  0.1179 -0.4406 -0.2323
   27CHL1  H22A 1981   5.051   1.230   9.308 -0.4430  1.1575  2.0737
   27CHL1  H22B 1982   5.072   1.381   9.230  0.0477 -0.8096 -0.7806
   27CHL1   C23 1983   5.225   1.226   9.172  0.3157  0.0363 -0.2728
   27CHL1  H23A 1984   5.320   1.282   9.160  0.7803 -1.1935 -2.7259
   27CHL1  H23B 1985   5.253   1.127   9.215 -1.2083  0.0864  0.9064
   27CHL1   C24 1986   5.170   1.207   9.036  0.5758 -0.3827 -0.1170
   27CHL1  H24A 1987   5.073   1.153   9.043 -0.1591  1.0272  0.8577
   27CHL1  H24B 1988   5.142   1.309   9.000 -1.9054  0.3485  3.6196
   27CHL1   C25 1989   5.276   1.140   8.939 -0.1106 -1.0347  0.3987
   27CHL1   H25 1990   5.334   1.065   8.997 -2.1132 -2.8856  0.0983
   27CHL1   C26 1991   5.191   1.076   8.831 -0.8094 -0.1796  0.5280
   27CHL1  H26A 1992   5.259   1.040   8.751 -0.1290  0.0946  0.9783
   27CHL1  H26B 1993   5.119   1.000   8.868  0.0957 -0.3244  2.0308
   27CHL1  H26C 1994   5.132   1.150   8.773 -0.4484 -0.1482  0.1954
   27CHL1   C27 1995   5.384   1.238   8.882  0.1612 -0.3281  0.1406
   27CHL1  H27A 1996   5.468   1.196   8.823  0.1147  0.4263 -0.4664
   27CHL1  H27B 1997   5.333   1.313   8.819  1.3782  0.1879 -0.2439
   27CHL1  H27C 1998   5.433   1.287   8.969  2.7163  0.7944 -1.8854
   28CHL1    C3 1999   3.938   0.014  10.064  0.5782  0.0397 -0.2015
   28CHL1    H3 2000   3.840  -0.014  10.019 -1.0354  1.3097  2.3486
   28CHL1    O3 2001   3.925   0.031  10.200 -0.2110 -0.2774 -0.1780
   28CHL1   H3' 2002   4.009   0.006  10.239  0.1073  1.3422  0.2207
   28CHL1    C4 2003   4.029  -0.102  10.031 -0.0167  0.7203 -0.2189
   28CHL1   H4A 2004   4.130  -0.082  10.073 -0.0331 -1.3832  0.8968
   28CHL1   H4B 2005   3.989  -0.194  10.079  0.7972  0.1630 -0.6036
   28CHL1    C5 2006   4.030  -0.120   9.881 -0.1116  0.4110 -1.0664
   28CHL1    C6 2007   3.994  -0.234   9.822 -0.6033 -0.0490 -0.0763
   28CHL1    H6 2008   3.961  -0.318   9.885 -2.0437 -0.8910 -1.8733
   28CHL1    C7 2009   4.000  -0.265   9.677  0.1683  0.3192 -0.0664
   28CHL1   H7A 2010   4.039  -0.368   9.664 -1.1666 -0.0555 -1.1827
   28CHL1   H7B 2011   3.899  -0.258   9.633 -0.2798 -1.5905  0.6031
   28CHL1    C8 2012   4.094  -0.165   9.604  0.9587 -0.4750 -0.1325
   28CHL1    H8 2013   4.200  -0.185   9.632  1.0267 -2.3921 -1.6458
   28CHL1   C14 2014   4.068  -0.185   9.458  0.4733 -0.7887 -0.2339
   28CHL1   H14 2015   3.963  -0.157   9.436  0.9821 -0.5652 -2.4897
   28CHL1   C15 2016   4.094  -0.329   9.406 -0.1662 -0.4944 -0.1351
   28CHL1  H15A 2017   4.192  -0.366   9.445 -0.5379 -0.5255  0.7922
   28CHL1  H15B 2018   4.011  -0.391   9.446 -1.7976  0.5245 -1.9163
   28CHL1   C16 2019   4.088  -0.303   9.254  0.4930 -0.1698 -0.2931
   28CHL1  H16A 2020   4.160  -0.362   9.194  1.7343  2.0732 -1.0526
   28CHL1  H16B 2021   3.985  -0.320   9.216 -0.1140  0.9225  0.8167
   28CHL1   C17 2022   4.092  -0.144   9.233  0.1699  0.5457 -0.7464
   28CHL1   H17 2023   3.988  -0.107   9.218  0.3540  0.4192 -2.4494
   28CHL1   C13 2024   4.139  -0.086   9.367 -0.6506  0.1965  0.0767
   28CHL1   C18 2025   4.287  -0.101   9.383  0.4240 -0.5467 -0.1762
   28CHL1  H18A 2026   4.331  -0.040   9.300 -0.7998 -0.7190 -0.9592
   28CHL1  H18B 2027   4.324  -0.076   9.485  0.2154 -3.3565  0.6170
   28CHL1  H18C 2028   4.314  -0.205   9.355 -0.4336 -0.7575 -0.2104
   28CHL1   C12 2029   4.094   0.059   9.396  0.5637 -0.1416 -0.1874
   28CHL1  H12A 2030   4.150   0.131   9.334  2.3404 -0.2102  1.3169
   28CHL1  H12B 2031   3.990   0.074   9.360  0.4719 -0.5611 -0.1119
   28CHL1   C11 2032   4.106   0.092   9.542  0.0772 -0.5526 -0.1477
   28CHL1  H11A 2033   4.212   0.111   9.570 -0.1958 -0.3754  0.7806
   28CHL1  H11B 2034   4.041   0.179   9.567  0.6545 -0.0038 -0.5571
   28CHL1    C9 2035   4.062  -0.021   9.643  0.4331  0.0099 -0.6488
   28CHL1    H9 2036   3.953  -0.016   9.624  0.0215 -1.3201  1.2223
   28CHL1   C10 2037   4.076   0.003   9.798  0.7750  0.5403 -0.3775
   28CHL1   C19 2038   4.218   0.047   9.825 -0.1689 -0.0958  0.0623
   28CHL1  H19A 2039   4.292  -0.027   9.789  0.4219 -0.1664  1.3738
   28CHL1  H19B 2040   4.242   0.146   9.781  2.4749 -0.8137 -0.1847
   28CHL1  H19C 2041   4.246   0.050   9.933  0.6196 -0.8494 -0.1201
   28CHL1    C1 2042   3.984   0.121   9.840 -0.2753  0.3100  0.2386
   28CHL1   H1A 2043   4.021   0.212   9.788 -0.3718  0.9247  1.2339
   28CHL1   H1B 2044   3.883   0.097   9.800 -0.0536  0.0748 -0.1771
   28CHL1    C2 2045   3.979   0.138   9.990 -0.1106  0.1774 -0.6646
   28CHL1   H2A 2046   3.899   0.208  10.020  0.2438  0.0198  0.6426
   28CHL1   H2B 2047   4.074   0.180  10.028  2.0101 -3.6067 -1.4294
   28CHL1   C20 2048   4.169  -0.096   9.106 -0.1505  0.3503  0.8179
   28CHL1   H20 2049   4.277  -0.117   9.117 -0.4452 -3.8096 -2.6368
   28CHL1   C21 2050   4.144   0.046   9.066 -0.0960 -0.7179 -0.3014
   28CHL1  H21A 2051   4.037   0.074   9.064  0.6590  2.3113 -0.3274
   28CHL1  H21B 2052   4.187   0.071   8.967  0.4741 -0.7061 -0.0543
   28CHL1  H21C 2053   4.197   0.123   9.126 -1.0887 -1.0669  1.0501
   28CHL1   C22 2054   4.129  -0.173   8.977  0.3242  0.6579 -0.3207
   28CHL1  H22A 2055   4.197  -0.126   8.903 -0.4795 -0.9825 -2.1219
   28CHL1  H22B 2056   4.157  -0.280   8.984  0.7822  0.8097  0.2366
   28CHL1   C23 2057   3.980  -0.174   8.933  0.2848  0.1467 -0.8821
   28CHL1  H23A 2058   3.922  -0.244   8.998  0.3715 -0.2457 -1.2254
   28CHL1  H23B 2059   3.930  -0.077   8.951 -2.6971 -1.4411 -0.1647
   28CHL1   C24 2060   3.963  -0.201   8.781  0.3452  0.1808 -0.1287
   28CHL1  H24A 2061   3.853  -0.203   8.766  0.6765 -0.4625 -2.6886
   28CHL1  H24B 2062   4.015  -0.120   8.727 -0.4057 -0.0915 -1.2924
   28CHL1   C25 2063   4.035  -0.327   8.731  0.2524 -1.0732  0.3465
   28CHL1   H25 2064   4.144  -0.310   8.745  0.4499 -1.6534 -0.4928
   28CHL1   C26 2065   3.987  -0.445   8.806 -0.3895  0.1803 -0.2465
   28CHL1  H26A 2066   4.047  -0.532   8.771  0.8146  0.7523  0.3782
   28CHL1  H26B 2067   4.008  -0.434   8.914 -0.3113  0.7455 -0.3152
   28CHL1  H26C 2068   3.876  -0.458   8.804 -0.4100  0.1979  0.7379
   28CHL1   C27 2069   4.016  -0.331   8.581  0.0005 -0.0249 -1.2498
   28CHL1  H27A 2070   4.063  -0.239   8.539  1.5919 -0.2701 -0.0772
   28CHL1  H27B 2071   4.073  -0.419   8.546  2.3923  0.3544  1.4106
   28CHL1  H27C 2072   3.909  -0.349   8.558 -0.2128  1.5591 -1.5720
   29CHL1    C3 2073   5.956   4.948   6.827 -0.1481 -0.6912  0.3498
   29CHL1    H3 2074   6.027   5.027   6.860 -1.8360  1.5221 -1.2402
   29CHL1    O3 2075   5.949   4.953   6.688 -0.2361  0.1518 -0.6673
   29CHL1   H3' 2076   5.894   4.877   6.668 -0.7561  0.3565 -0.0533
   29CHL1    C4 2077   6.001   4.807   6.871  1.1741 -0.0147  0.3110
   29CHL1   H4A 2078   5.937   4.737   6.814  0.3057 -0.7658  2.1749
   29CHL1   H4B 2079   6.107   4.797   6.838  2.1662  0.8155  3.0417
   29CHL1    C5 2080   5.984   4.804   7.024 -0.2925 -0.3062  0.2047
   29CHL1    C6 2081   6.091   4.781   7.103  0.5754 -0.1528 -0.1258
   29CHL1    H6 2082   6.190   4.773   7.056 -0.6843  2.7587 -3.5063
   29CHL1    C7 2083   6.088   4.773   7.251  0.4031  0.8817  0.2706
   29CHL1   H7A 2084   6.159   4.695   7.288  1.1936  0.8799 -1.2234
   29CHL1   H7B 2085   6.127   4.871   7.285  0.5887 -0.0233  2.7749
   29CHL1    C8 2086   5.941   4.755   7.311 -0.6148 -0.5748 -0.0766
   29CHL1    H8 2087   5.906   4.651   7.289  0.0818 -1.3963  2.4866
   29CHL1   C14 2088   5.940   4.777   7.460 -0.1026  0.1216  0.3811
   29CHL1   H14 2089   5.972   4.884   7.464  1.2965 -0.2987  0.6971
   29CHL1   C15 2090   6.032   4.699   7.554 -0.0334 -0.5272  0.8889
   29CHL1  H15A 2091   6.022   4.589   7.537  0.0266 -0.3089 -0.6491
   29CHL1  H15B 2092   6.136   4.726   7.525 -0.1575  0.5619  1.4451
   29CHL1   C16 2093   5.978   4.734   7.692  0.4607  0.4643  0.5239
   29CHL1  H16A 2094   5.966   4.644   7.756 -0.7872  0.8657  0.8794
   29CHL1  H16B 2095   6.047   4.808   7.737 -0.2180  0.9646  0.7565
   29CHL1   C17 2096   5.837   4.804   7.674  0.1750 -0.2648 -0.7097
   29CHL1   H17 2097   5.879   4.907   7.669  0.0052 -0.1983 -0.7564
   29CHL1   C13 2098   5.795   4.770   7.530  0.1524  1.0084  0.1252
   29CHL1   C18 2099   5.732   4.624   7.524 -0.7416  0.4058 -0.4668
   29CHL1  H18A 2100   5.736   4.581   7.422  0.8571 -0.2945 -0.1225
   29CHL1  H18B 2101   5.791   4.558   7.590  0.5468 -1.8096 -3.7196
   29CHL1  H18C 2102   5.628   4.639   7.561 -0.3425 -0.5975  1.0998
   29CHL1   C12 2103   5.715   4.870   7.450  0.8233  0.7310  0.1522
   29CHL1  H12A 2104   5.615   4.876   7.498  0.0683 -0.3178 -1.2708
   29CHL1  H12B 2105   5.769   4.966   7.466 -2.3653  2.7338 -0.6317
   29CHL1   C11 2106   5.695   4.838   7.301 -0.0905  0.1133  0.6508
   29CHL1  H11A 2107   5.632   4.746   7.294 -0.5411  0.3775  1.1552
   29CHL1  H11B 2108   5.637   4.916   7.248 -1.6845 -0.9745  0.7619
   29CHL1    C9 2109   5.838   4.843   7.236 -0.6472 -1.1691 -0.3101
   29CHL1    H9 2110   5.862   4.950   7.253 -0.8885 -1.0601 -0.6562
   29CHL1   C10 2111   5.847   4.832   7.077  0.8377  1.1560 -0.3611
   29CHL1   C19 2112   5.755   4.712   7.036  0.2647 -0.2961  0.6965
   29CHL1  H19A 2113   5.753   4.696   6.926  0.8155 -1.5638  0.8660
   29CHL1  H19B 2114   5.792   4.619   7.083 -3.0767 -0.4464  3.2363
   29CHL1  H19C 2115   5.648   4.733   7.060 -0.3208  3.1171 -4.1430
   29CHL1    C1 2116   5.794   4.966   7.016  0.2458  0.6494 -0.3591
   29CHL1   H1A 2117   5.688   4.975   7.048  0.4464  0.9855  0.2370
   29CHL1   H1B 2118   5.852   5.053   7.054  3.1513 -0.7137 -1.4771
   29CHL1    C2 2119   5.816   4.973   6.868 -0.1149 -0.1109 -0.2420
   29CHL1   H2A 2120   5.786   5.070   6.824  1.6655  0.5459 -0.0363
   29CHL1   H2B 2121   5.738   4.916   6.813 -0.0047  0.9379 -1.4928
   29CHL1   C20 2122   5.739   4.779   7.784  0.2131 -0.0986  0.2430
   29CHL1   H20 2123   5.690   4.681   7.765 -0.7962  0.4650 -0.0705
   29CHL1   C21 2124   5.623   4.887   7.779 -0.0275  0.4919  0.2159
   29CHL1  H21A 2125   5.555   4.850   7.859  0.3810 -2.9594 -0.9807
   29CHL1  H21B 2126   5.576   4.900   7.680 -0.8501  0.9920  0.6644
   29CHL1  H21C 2127   5.660   4.983   7.821  0.0101 -0.3536  2.1819
   29CHL1   C22 2128   5.805   4.757   7.929  0.4385  0.4889  0.8044
   29CHL1  H22A 2129   5.912   4.785   7.931  0.9867 -1.4116 -0.7308
   29CHL1  H22B 2130   5.763   4.838   7.992 -1.0217  1.4317 -1.2793
   29CHL1   C23 2131   5.793   4.617   7.985  0.0968  0.2304 -0.0748
   29CHL1  H23A 2132   5.692   4.572   7.999 -0.0323  0.6835  0.4574
   29CHL1  H23B 2133   5.839   4.544   7.915  1.4536 -0.5045  1.5191
   29CHL1   C24 2134   5.874   4.609   8.117  0.0753 -0.3694 -0.0591
   29CHL1  H24A 2135   5.978   4.641   8.095  0.4928 -1.0062  0.9623
   29CHL1  H24B 2136   5.825   4.683   8.185  1.5306  1.7174 -1.2356
   29CHL1   C25 2137   5.860   4.471   8.180 -0.4129 -0.2096 -0.2095
   29CHL1   H25 2138   5.864   4.393   8.100  1.8152 -0.5637  0.2269
   29CHL1   C26 2139   5.976   4.441   8.278 -0.3772  0.3364  0.3958
   29CHL1  H26A 2140   6.070   4.454   8.221  0.5669  3.2764  2.4631
   29CHL1  H26B 2141   5.970   4.513   8.363 -2.0476  1.0626 -0.3087
   29CHL1  H26C 2142   5.972   4.342   8.328  0.1859  0.1981  0.1661
   29CHL1   C27 2143   5.726   4.445   8.253  1.0124  0.4273  0.3480
   29CHL1  H27A 2144   5.649   4.446   8.172  0.6385 -0.1827  0.6970
   29CHL1  H27B 2145   5.734   4.347   8.305 -2.1816  0.6528  1.3847
   29CHL1  H27C 2146   5.697   4.516   8.334  0.9595  0.9071 -0.0871
   30CHL1    C3 2147   4.361   4.218   7.221 -0.0609 -0.8806 -0.4770
   30CHL1    H3 2148   4.441   4.141   7.224  0.6521 -0.0701  1.9883
   30CHL1    O3 2149   4.314   4.224   7.092 -0.2969  0.4627 -0.0353
   30CHL1   H3' 2150   4.283   4.314   7.081 -2.1981  0.2692  3.2008
   30CHL1    C4 2151   4.248   4.171   7.309  0.1480  0.5629  0.7182
   30CHL1   H4A 2152   4.153   4.224   7.289 -0.3404 -0.5205  0.1153
   30CHL1   H4B 2153   4.239   4.067   7.271  2.1958  0.4109  0.5861
   30CHL1    C5 2154   4.289   4.162   7.457  0.4416 -0.3620 -0.0395
   30CHL1    C6 2155   4.287   4.046   7.526  0.0875  0.1029  1.0682
   30CHL1    H6 2156   4.252   3.955   7.476  0.5208  0.4153  0.1928
   30CHL1    C7 2157   4.320   4.027   7.670  0.1863 -0.4215 -0.3993
   30CHL1   H7A 2158   4.238   3.964   7.712 -0.8297 -0.2522 -2.0719
   30CHL1   H7B 2159   4.414   3.971   7.687  1.5602  1.7404 -0.7672
   30CHL1    C8 2160   4.341   4.163   7.738  0.2058 -0.3821  0.2932
   30CHL1    H8 2161   4.236   4.197   7.756  0.1525 -1.1890  1.5521
   30CHL1   C14 2162   4.419   4.149   7.870 -0.2916 -0.6534 -0.0298
   30CHL1   H14 2163   4.519   4.110   7.843  1.0140  1.1105  2.0223
   30CHL1   C15 2164   4.375   4.052   7.978 -0.1502  0.1681 -0.1717
   30CHL1  H15A 2165   4.266   4.054   7.999 -0.3739  0.0724 -1.2817
   30CHL1  H15B 2166   4.405   3.949   7.948  0.2759  0.3159 -0.2448
   30CHL1   C16 2167   4.449   4.093   8.104 -0.1392 -0.0347  0.0371
   30CHL1  H16A 2168   4.366   4.119   8.173 -0.8320  0.2053 -0.8789
   30CHL1  H16B 2169   4.505   4.002   8.132 -0.5568  0.3174  2.1129
   30CHL1   C17 2170   4.531   4.223   8.074  0.0249  0.5241 -0.0461
   30CHL1   H17 2171   4.627   4.176   8.045 -0.1006 -1.1779  2.1488
   30CHL1   C13 2172   4.456   4.275   7.946 -0.3123  0.3367 -0.0511
   30CHL1   C18 2173   4.324   4.346   7.978 -0.2104  0.0663 -0.7637
   30CHL1  H18A 2174   4.344   4.441   8.032 -1.4213 -0.8874  1.4463
   30CHL1  H18B 2175   4.256   4.367   7.892  1.4465  0.8385 -1.9017
   30CHL1  H18C 2176   4.281   4.273   8.049  0.8098  0.2173  0.0118
   30CHL1   C12 2177   4.541   4.366   7.850  0.5999  0.0118  0.2188
   30CHL1  H12A 2178   4.575   4.461   7.896 -1.9147  0.5963  0.9537
   30CHL1  H12B 2179   4.632   4.306   7.831 -1.0161 -2.3732 -0.2721
   30CHL1   C11 2180   4.468   4.394   7.722  0.3323  0.3221 -0.8965
   30CHL1  H11A 2181   4.383   4.459   7.750 -0.1176 -0.4824 -0.3715
   30CHL1  H11B 2182   4.516   4.460   7.647  2.3833 -1.2076 -0.9735
   30CHL1    C9 2183   4.416   4.266   7.648 -0.0140 -0.7085 -0.6558
   30CHL1    H9 2184   4.509   4.215   7.617 -0.6037 -1.9488 -0.4208
   30CHL1   C10 2185   4.342   4.296   7.517 -0.4505 -0.1151 -0.6044
   30CHL1   C19 2186   4.219   4.388   7.540 -0.0012 -0.0535  0.0015
   30CHL1  H19A 2187   4.243   4.494   7.564  1.0105 -0.0857 -0.8572
   30CHL1  H19B 2188   4.147   4.391   7.455  0.7231  1.3393 -0.5752
   30CHL1  H19C 2189   4.168   4.353   7.632  0.5348  0.1928  0.3986
   30CHL1    C1 2190   4.440   4.358   7.411 -0.7681  0.2913  0.0048
   30CHL1   H1A 2191   4.461   4.463   7.441  1.4204 -0.1921  0.2248
   30CHL1   H1B 2192   4.532   4.301   7.433 -0.4618  0.7692 -0.0327
   30CHL1    C2 2193   4.413   4.357   7.265  0.2847 -0.0465  0.0134
   30CHL1   H2A 2194   4.504   4.382   7.205  0.2483 -1.8817 -0.8262
   30CHL1   H2B 2195   4.329   4.428   7.248 -1.2915 -2.1718 -1.3371
   30CHL1   C20 2196   4.550   4.309   8.197  0.3666  0.4391  0.4343
   30CHL1   H20 2197   4.449   4.339   8.231 -1.0065 -0.4655 -2.7494
   30CHL1   C21 2198   4.626   4.441   8.158  0.0648  0.7945 -0.0638
   30CHL1  H21A 2199   4.719   4.411   8.106  0.6398 -1.4623  2.1610
   30CHL1  H21B 2200   4.652   4.508   8.242 -1.5455  0.9031  0.3639
   30CHL1  H21C 2201   4.551   4.497   8.098 -0.4367 -0.7870 -0.9631
   30CHL1   C22 2202   4.608   4.222   8.314 -0.0172  0.4935 -0.7003
   30CHL1  H22A 2203   4.605   4.281   8.408 -0.1124 -1.5037  0.5812
   30CHL1  H22B 2204   4.548   4.130   8.332 -2.1251  1.5967 -1.8463
   30CHL1   C23 2205   4.747   4.153   8.292 -0.0222 -0.6968 -0.4087
   30CHL1  H23A 2206   4.755   4.100   8.195 -2.5884 -0.0882 -0.9952
   30CHL1  H23B 2207   4.813   4.240   8.276  0.9980 -1.2651  0.6223
   30CHL1   C24 2208   4.812   4.064   8.407  0.4962  0.6091 -0.1243
   30CHL1  H24A 2209   4.737   3.984   8.423  1.8054 -0.4268  1.0016
   30CHL1  H24B 2210   4.908   4.017   8.377  2.5179  3.2960  1.8404
   30CHL1   C25 2211   4.825   4.137   8.540 -0.4051 -0.4588 -0.2037
   30CHL1   H25 2212   4.725   4.177   8.565 -0.3109 -0.6756  0.5373
   30CHL1   C26 2213   4.876   4.041   8.653  0.4179  0.1575  0.3545
   30CHL1  H26A 2214   4.809   3.954   8.666  0.4816 -0.3193 -2.2450
   30CHL1  H26B 2215   4.980   4.012   8.628 -0.5081 -1.6272 -1.5423
   30CHL1  H26C 2216   4.880   4.097   8.749 -3.7025 -1.1959  1.4218
   30CHL1   C27 2217   4.919   4.262   8.517  0.1848 -0.1361 -0.2355
   30CHL1  H27A 2218   4.970   4.295   8.610 -0.5189 -0.5444  0.3019
   30CHL1  H27B 2219   5.009   4.246   8.454 -0.6979 -0.5172 -1.4129
   30CHL1  H27C 2220   4.858   4.343   8.472 -1.5897 -0.0278  2.2389
   31CHL1    C3 2221   4.153   4.937   6.685  0.3915 -0.1757 -0.3364
   31CHL1    H3 2222   4.049   4.900   6.672 -0.0117  0.9176 -0.3306
   31CHL1    O3 2223   4.224   4.886   6.571 -0.1666  0.2913  0.5293
   31CHL1   H3' 2224   4.210   4.951   6.502  3.1220  1.9141  1.3019
   31CHL1    C4 2225   4.134   5.090   6.689 -0.1136 -0.3425 -0.0763
   31CHL1   H4A 2226   4.235   5.136   6.676  1.1195 -2.9275 -0.0195
   31CHL1   H4B 2227   4.067   5.122   6.606  0.6974  1.2724 -0.1387
   31CHL1    C5 2228   4.082   5.137   6.818  0.6555  0.1490 -0.1672
   31CHL1    C6 2229   3.970   5.215   6.822  0.2694  0.0641  0.3558
   31CHL1    H6 2230   3.928   5.265   6.733  0.4840 -0.1421  0.1398
   31CHL1    C7 2231   3.903   5.260   6.943  0.5092  0.1930 -0.7321
   31CHL1   H7A 2232   3.866   5.363   6.929 -1.1744 -0.0814  1.4374
   31CHL1   H7B 2233   3.812   5.197   6.957  1.2974 -0.4631  1.8205
   31CHL1    C8 2234   3.989   5.245   7.076 -1.0313  0.0703  0.4634
   31CHL1    H8 2235   4.071   5.320   7.080 -1.0199 -0.0338  2.8612
   31CHL1   C14 2236   3.902   5.274   7.196 -0.2505  0.8933 -0.4133
   31CHL1   H14 2237   3.824   5.195   7.203 -1.3697  1.8310 -1.9130
   31CHL1   C15 2238   3.826   5.404   7.189 -0.1573  1.0323  1.1717
   31CHL1  H15A 2239   3.880   5.491   7.146  0.5054 -0.2454 -0.6299
   31CHL1  H15B 2240   3.736   5.382   7.128 -1.0307  1.2570  2.3599
   31CHL1   C16 2241   3.816   5.435   7.344  0.0638 -0.0823  0.4129
   31CHL1  H16A 2242   3.862   5.532   7.374 -0.0490  0.4203 -1.0132
   31CHL1  H16B 2243   3.706   5.441   7.361  0.0902  0.5097  0.3895
   31CHL1   C17 2244   3.874   5.309   7.418 -0.5044 -0.4205 -0.4953
   31CHL1   H17 2245   3.796   5.231   7.411  0.8344 -1.6826 -1.5707
   31CHL1   C13 2246   3.983   5.256   7.333 -0.1807  0.9974  0.1606
   31CHL1   C18 2247   4.096   5.364   7.331 -0.2709  0.9014  0.0330
   31CHL1  H18A 2248   4.064   5.458   7.283 -1.1029  0.2939 -0.6116
   31CHL1  H18B 2249   4.129   5.382   7.436  0.9411  1.3571 -0.4169
   31CHL1  H18C 2250   4.182   5.341   7.264  1.0032  0.7515  1.6866
   31CHL1   C12 2251   4.031   5.112   7.339  0.5443 -0.8686  0.3066
   31CHL1  H12A 2252   4.080   5.103   7.439  1.0773 -0.1611  0.1126
   31CHL1  H12B 2253   3.943   5.045   7.339  0.1718 -0.3799  0.1388
   31CHL1   C11 2254   4.120   5.067   7.219  0.9934  0.0458  0.3009
   31CHL1  H11A 2255   4.214   5.125   7.229  0.8761  0.1045  1.0525
   31CHL1  H11B 2256   4.141   4.959   7.230  1.0132 -0.0392 -0.5069
   31CHL1    C9 2257   4.056   5.105   7.080  0.3308  0.6895  0.4519
   31CHL1    H9 2258   3.975   5.029   7.072  0.1316  0.7183  2.0003
   31CHL1   C10 2259   4.143   5.077   6.948 -0.1696 -0.0865  0.1878
   31CHL1   C19 2260   4.284   5.144   6.966  0.5445  0.0941  0.1170
   31CHL1  H19A 2261   4.344   5.091   7.044  0.2190 -0.0479  0.2735
   31CHL1  H19B 2262   4.342   5.122   6.874 -0.1290 -3.3758  0.4327
   31CHL1  H19C 2263   4.279   5.248   7.004 -1.4518 -0.6346  2.0065
   31CHL1    C1 2264   4.146   4.923   6.927  0.1993 -0.6149  0.2246
   31CHL1   H1A 2265   4.187   4.874   7.017 -1.4824 -1.4003  0.5934
   31CHL1   H1B 2266   4.038   4.897   6.920 -0.3653  1.3406  1.2952
   31CHL1    C2 2267   4.219   4.875   6.802  0.3331  0.3411  0.5446
   31CHL1   H2A 2268   4.228   4.765   6.789  0.2515  0.1645  1.8758
   31CHL1   H2B 2269   4.325   4.906   6.811  0.9410 -1.2083 -1.0326
   31CHL1   C20 2270   3.901   5.338   7.561  0.5971  0.0501 -0.3338
   31CHL1   H20 2271   3.983   5.413   7.558  0.6797 -0.0860 -1.6556
   31CHL1   C21 2272   3.950   5.207   7.634  0.0553  0.4080 -0.1919
   31CHL1  H21A 2273   3.948   5.229   7.743  0.5870  0.8617 -0.2685
   31CHL1  H21B 2274   4.053   5.176   7.605 -0.5384 -1.6448 -0.1475
   31CHL1  H21C 2275   3.882   5.123   7.612  3.0541 -2.2410  0.3037
   31CHL1   C22 2276   3.776   5.397   7.646 -0.9799  0.8067 -0.6413
   31CHL1  H22A 2277   3.717   5.482   7.606 -0.7057  0.8062 -1.0533
   31CHL1  H22B 2278   3.694   5.323   7.651 -1.6593  1.6612  1.8335
   31CHL1   C23 2279   3.816   5.453   7.787  0.0893 -0.3262  0.3901
   31CHL1  H23A 2280   3.863   5.370   7.845 -0.4300 -0.9271 -0.0406
   31CHL1  H23B 2281   3.889   5.535   7.771  0.5211 -0.8937 -0.6208
   31CHL1   C24 2282   3.698   5.506   7.862 -0.1165 -0.0130 -0.2084
   31CHL1  H24A 2283   3.640   5.590   7.819  2.4824  0.5813 -2.6741
   31CHL1  H24B 2284   3.628   5.420   7.868  1.6930 -1.5620 -0.8090
   31CHL1   C25 2285   3.735   5.528   8.006 -0.3452 -0.3568 -0.2193
   31CHL1   H25 2286   3.785   5.439   8.050  2.1758  1.5392  0.8442
   31CHL1   C26 2287   3.835   5.642   8.032 -0.0657 -0.1893  0.4928
   31CHL1  H26A 2288   3.791   5.739   8.003 -2.6534 -1.5471 -0.3350
   31CHL1  H26B 2289   3.870   5.655   8.137  1.9521  0.0666 -0.1886
   31CHL1  H26C 2290   3.928   5.630   7.972 -0.9844 -0.6977 -0.8584
   31CHL1   C27 2291   3.605   5.543   8.082 -0.0730 -0.2450 -1.3827
   31CHL1  H27A 2292   3.545   5.455   8.050 -0.8830 -0.0850 -0.3443
   31CHL1  H27B 2293   3.558   5.640   8.056  1.2356  0.9930  0.6731
   31CHL1  H27C 2294   3.618   5.539   8.193  0.1647  0.1495 -1.3939
   32CHL1    C3 2295   4.797   3.411   6.962  0.6041 -0.7055 -0.5627
   32CHL1    H3 2296   4.850   3.509   6.968 -2.1905  0.8785 -0.8016
   32CHL1    O3 2297   4.803   3.359   6.832 -0.0063 -0.2523  0.6584
   32CHL1   H3' 2298   4.892   3.329   6.813  0.4570  0.6127  1.4366
   32CHL1    C4 2299   4.889   3.326   7.049  0.4584  0.4742 -0.5081
   32CHL1   H4A 2300   4.847   3.223   7.050  1.2277  0.1054 -3.2261
   32CHL1   H4B 2301   4.994   3.328   7.012  0.3542  1.5042 -0.7648
   32CHL1    C5 2302   4.890   3.383   7.186  0.2936 -0.8488 -0.3135
   32CHL1    C6 2303   5.006   3.413   7.247  0.1172  0.1740  0.3518
   32CHL1    H6 2304   5.098   3.408   7.187 -1.6462 -1.9964 -2.2638
   32CHL1    C7 2305   5.015   3.455   7.394 -0.2087 -0.0998  0.3974
   32CHL1   H7A 2306   5.102   3.406   7.443 -0.2789  0.1313  0.7512
   32CHL1   H7B 2307   5.027   3.565   7.405  1.1834 -0.2203  0.0975
   32CHL1    C8 2308   4.882   3.418   7.476  0.3269  0.2460 -0.5564
   32CHL1    H8 2309   4.895   3.308   7.482  2.7905  0.5488  0.5402
   32CHL1   C14 2310   4.886   3.493   7.615  0.0831  0.5961  0.7063
   32CHL1   H14 2311   4.875   3.599   7.582 -0.7141  0.2366 -0.1744
   32CHL1   C15 2312   5.013   3.478   7.713 -0.8808 -0.2895  0.0160
   32CHL1  H15A 2313   5.041   3.372   7.728  0.5282 -0.1523 -1.4624
   32CHL1  H15B 2314   5.097   3.537   7.668 -1.3370  0.3197 -0.0455
   32CHL1   C16 2315   4.958   3.535   7.845  0.0733  0.4951  0.3194
   32CHL1  H16A 2316   4.984   3.460   7.923 -2.6264 -1.6276 -0.7601
   32CHL1  H16B 2317   5.002   3.636   7.860 -2.1624  1.2558  2.2250
   32CHL1   C17 2318   4.798   3.550   7.828  0.6175  0.6300 -0.1648
   32CHL1   H17 2319   4.785   3.657   7.799 -2.1264 -0.0493 -1.5381
   32CHL1   C13 2320   4.763   3.466   7.700 -0.1093 -0.5902  0.0489
   32CHL1   C18 2321   4.766   3.314   7.741  0.5743 -0.8992  0.0117
   32CHL1  H18A 2322   4.783   3.252   7.650 -1.4412 -0.9710 -0.3467
   32CHL1  H18B 2323   4.846   3.291   7.814  1.1367 -0.2175 -0.3831
   32CHL1  H18C 2324   4.673   3.296   7.799  1.3534 -0.6560  1.3405
   32CHL1   C12 2325   4.633   3.501   7.622  0.2249  0.8716  0.0798
   32CHL1  H12A 2326   4.549   3.467   7.686  0.3389 -0.4319 -0.4469
   32CHL1  H12B 2327   4.626   3.611   7.606 -2.7903  0.6914 -0.1622
   32CHL1   C11 2328   4.634   3.422   7.493  0.9828  0.2570 -0.0393
   32CHL1  H11A 2329   4.631   3.312   7.503  0.5148  0.3486  0.8746
   32CHL1  H11B 2330   4.541   3.449   7.437  2.0852  0.9758 -1.5891
   32CHL1    C9 2331   4.757   3.445   7.399  1.0939  0.4311 -0.4352
   32CHL1    H9 2332   4.763   3.554   7.379  3.6337  0.6260  1.1785
   32CHL1   C10 2333   4.751   3.385   7.261  0.8243 -0.2005 -0.6108
   32CHL1   C19 2334   4.714   3.235   7.275  0.2734 -0.3016  0.0525
   32CHL1  H19A 2335   4.720   3.178   7.180 -0.4863  0.5837 -0.5266
   32CHL1  H19B 2336   4.771   3.182   7.354 -1.1406  0.5159  1.6480
   32CHL1  H19C 2337   4.606   3.242   7.301 -0.0937  2.0879 -1.9556
   32CHL1    C1 2338   4.649   3.462   7.173 -0.3166  0.3700  0.4122
   32CHL1   H1A 2339   4.546   3.449   7.214 -0.3576 -0.8408 -0.0307
   32CHL1   H1B 2340   4.684   3.567   7.178 -2.0004  0.9852 -0.2807
   32CHL1    C2 2341   4.660   3.414   7.025  0.0729 -0.1520 -0.1175
   32CHL1   H2A 2342   4.596   3.486   6.969 -0.9601  0.0596  1.2912
   32CHL1   H2B 2343   4.618   3.314   7.002 -0.9756  0.5333 -1.2173
   32CHL1   C20 2344   4.724   3.517   7.952  0.8946  0.1906  0.1167
   32CHL1   H20 2345   4.737   3.409   7.976  0.1329  0.6758  2.8680
   32CHL1   C21 2346   4.574   3.563   7.946 -0.2236 -0.3543 -0.5709
   32CHL1  H21A 2347   4.515   3.546   8.039 -0.2770  0.2450 -0.4921
   32CHL1  H21B 2348   4.508   3.517   7.869 -0.7289 -3.1176  1.3917
   32CHL1  H21C 2349   4.580   3.670   7.920  3.5260 -0.1886  0.7421
   32CHL1   C22 2350   4.789   3.578   8.081 -0.4079  0.7731  0.6444
   32CHL1  H22A 2351   4.896   3.551   8.085 -0.5761  0.0711  0.3893
   32CHL1  H22B 2352   4.802   3.688   8.080  1.2865  0.5645 -0.6495
   32CHL1   C23 2353   4.727   3.533   8.214  0.1164 -0.0670 -0.1280
   32CHL1  H23A 2354   4.622   3.569   8.221  1.1051  2.8059  0.3367
   32CHL1  H23B 2355   4.737   3.422   8.211 -0.2463 -0.0498 -3.1315
   32CHL1   C24 2356   4.800   3.603   8.334  0.2280  0.5586  0.5226
   32CHL1  H24A 2357   4.908   3.581   8.346 -0.3640 -0.8772  3.8202
   32CHL1  H24B 2358   4.791   3.711   8.306 -2.3926 -0.1315 -1.4971
   32CHL1   C25 2359   4.755   3.567   8.479  0.0316 -0.1478 -0.4450
   32CHL1   H25 2360   4.741   3.457   8.487 -0.1672 -0.1116 -0.2866
   32CHL1   C26 2361   4.867   3.616   8.572  0.3627  0.1293 -0.1498
   32CHL1  H26A 2362   4.830   3.598   8.675 -1.7382  0.6995 -0.7727
   32CHL1  H26B 2363   4.959   3.555   8.558  1.1756  1.4906 -0.8916
   32CHL1  H26C 2364   4.902   3.720   8.556 -0.0081  0.2548 -0.1470
   32CHL1   C27 2365   4.619   3.639   8.505 -0.5324 -0.1613 -0.6463
   32CHL1  H27A 2366   4.638   3.744   8.537  1.5270 -1.2525  1.8735
   32CHL1  H27B 2367   4.558   3.637   8.412  0.5948 -1.0638 -1.3738
   32CHL1  H27C 2368   4.557   3.600   8.589 -1.8743  0.0914 -1.5074
   33CHL1    C3 2369   5.720   3.913   6.838  0.6026  1.0906  0.9239
   33CHL1    H3 2370   5.815   3.860   6.860 -0.1731 -0.9367 -0.5166
   33CHL1    O3 2371   5.732   3.955   6.700  0.2668  0.3925  0.1716
   33CHL1   H3' 2372   5.694   4.042   6.689  1.1074  0.6104 -1.1153
   33CHL1    C4 2373   5.608   3.811   6.850  0.2820  0.2302  0.5549
   33CHL1   H4A 2374   5.516   3.862   6.814  0.8051 -0.8405 -2.4063
   33CHL1   H4B 2375   5.619   3.722   6.786  1.7457  1.6416 -1.1888
   33CHL1    C5 2376   5.587   3.758   6.994  0.0153  0.2706 -0.3066
   33CHL1    C6 2377   5.589   3.626   7.026 -0.1095  0.1422 -0.1622
   33CHL1    H6 2378   5.587   3.563   6.936  0.5489  2.2402 -1.6827
   33CHL1    C7 2379   5.561   3.573   7.164  0.4364  0.4125  0.3469
   33CHL1   H7A 2380   5.476   3.501   7.162 -0.7540  1.7908  0.5320
   33CHL1   H7B 2381   5.646   3.515   7.207 -1.7830 -2.9872  0.3193
   33CHL1    C8 2382   5.519   3.683   7.265 -0.0093  0.0263  0.7592
   33CHL1    H8 2383   5.412   3.709   7.246 -0.0755 -0.7634 -0.0217
   33CHL1   C14 2384   5.536   3.633   7.405  0.3335  0.1378 -0.1310
   33CHL1   H14 2385   5.644   3.612   7.417  0.1173 -0.9290  0.0149
   33CHL1   C15 2386   5.448   3.513   7.439  0.2307  0.3123 -0.3570
   33CHL1  H15A 2387   5.347   3.539   7.399  0.4807 -0.3309 -1.4397
   33CHL1  H15B 2388   5.481   3.417   7.393  1.5770 -0.0806  1.4028
   33CHL1   C16 2389   5.442   3.508   7.589 -0.0924  0.3565  0.5099
   33CHL1  H16A 2390   5.338   3.519   7.625 -0.1153  1.7651  0.0452
   33CHL1  H16B 2391   5.487   3.416   7.631 -1.0721 -0.4294 -0.1472
   33CHL1   C17 2392   5.515   3.633   7.639  0.8168 -0.1110  0.6077
   33CHL1   H17 2393   5.622   3.605   7.640  1.0240  0.6930  0.8930
   33CHL1   C13 2394   5.508   3.732   7.517  0.3704 -0.7130 -0.4826
   33CHL1   C18 2395   5.359   3.786   7.513 -0.9756  0.3137 -0.0154
   33CHL1  H18A 2396   5.332   3.841   7.421  0.6326  0.3634 -0.4718
   33CHL1  H18B 2397   5.276   3.712   7.519  0.5227 -1.3069  1.0253
   33CHL1  H18C 2398   5.348   3.860   7.595 -0.1621 -0.5698  0.8938
   33CHL1   C12 2399   5.612   3.844   7.500  0.1295 -0.3547  0.6533
   33CHL1  H12A 2400   5.611   3.926   7.574  0.7287 -1.0889  1.4972
   33CHL1  H12B 2401   5.709   3.789   7.499 -0.5030 -1.4704 -0.2090
   33CHL1   C11 2402   5.598   3.911   7.359  0.1448 -1.0020 -0.0119
   33CHL1  H11A 2403   5.500   3.964   7.367  0.7940  0.4431 -1.3517
   33CHL1  H11B 2404   5.682   3.983   7.355  0.1578 -0.9141  1.5416
   33CHL1    C9 2405   5.598   3.808   7.243 -0.2333 -0.1349 -0.3175
   33CHL1    H9 2406   5.702   3.769   7.246 -0.3926 -0.6198 -1.2008
   33CHL1   C10 2407   5.579   3.870   7.103 -0.9139 -0.2049 -0.0164
   33CHL1   C19 2408   5.453   3.939   7.104  0.2934  0.2679  0.5364
   33CHL1  H19A 2409   5.368   3.878   7.142 -0.5498  0.3788 -1.1546
   33CHL1  H19B 2410   5.452   4.021   7.179 -0.7364  1.1052 -0.3770
   33CHL1  H19C 2411   5.416   3.978   7.007  1.2370  1.0976  0.4985
   33CHL1    C1 2412   5.689   3.976   7.081 -0.7253 -0.4892 -0.2214
   33CHL1   H1A 2413   5.676   4.060   7.151  1.3918  0.5942 -1.0669
   33CHL1   H1B 2414   5.780   3.918   7.108 -0.4678  0.3350  0.6835
   33CHL1    C2 2415   5.710   4.027   6.938 -0.0757  0.2571  0.1582
   33CHL1   H2A 2416   5.793   4.099   6.925 -0.6073  0.5647 -1.6018
   33CHL1   H2B 2417   5.613   4.077   6.913 -1.4671 -2.8032 -0.8177
   33CHL1   C20 2418   5.485   3.681   7.784  0.2800  0.6721  0.3006
   33CHL1   H20 2419   5.388   3.736   7.790  0.6692  1.3083  0.8607
   33CHL1   C21 2420   5.603   3.772   7.828  0.7730  0.2255  0.5511
   33CHL1  H21A 2421   5.680   3.715   7.886  0.7149 -1.0868 -0.6452
   33CHL1  H21B 2422   5.556   3.841   7.901 -1.6010  0.9518 -1.6070
   33CHL1  H21C 2423   5.656   3.832   7.751 -0.4092 -1.0074 -1.2296
   33CHL1   C22 2424   5.463   3.557   7.879 -0.2605  0.2825 -0.3329
   33CHL1  H22A 2425   5.408   3.472   7.833 -0.2921  0.0291  0.1729
   33CHL1  H22B 2426   5.566   3.519   7.894 -0.7935 -0.0085  2.9644
   33CHL1   C23 2427   5.398   3.580   8.014 -0.0536 -0.7905  0.0390
   33CHL1  H23A 2428   5.424   3.680   8.056  1.6126 -0.7064 -1.1751
   33CHL1  H23B 2429   5.289   3.586   7.992  0.5079 -1.6238 -3.1156
   33CHL1   C24 2430   5.417   3.475   8.132  0.3974  0.0498  0.5076
   33CHL1  H24A 2431   5.387   3.373   8.100 -1.2617  0.5821  0.2930
   33CHL1  H24B 2432   5.526   3.472   8.154  1.0312  0.9405 -2.3001
   33CHL1   C25 2433   5.352   3.505   8.265  0.0077  0.8910 -0.7207
   33CHL1   H25 2434   5.397   3.599   8.303  0.6700  0.4292 -0.3522
   33CHL1   C26 2435   5.204   3.536   8.262 -0.4026  0.3491  0.2375
   33CHL1  H26A 2436   5.149   3.458   8.205  1.1925 -0.4330 -0.2846
   33CHL1  H26B 2437   5.157   3.539   8.363 -0.3460  2.4739  0.2108
   33CHL1  H26C 2438   5.187   3.632   8.210  3.0214  0.2600 -1.2317
   33CHL1   C27 2439   5.372   3.391   8.371  0.2356 -0.1276 -0.5827
   33CHL1  H27A 2440   5.324   3.407   8.470 -0.1146  0.5450 -0.8543
   33CHL1  H27B 2441   5.322   3.301   8.329 -2.9304  0.9939  0.5692
   33CHL1  H27C 2442   5.478   3.360   8.382  1.0318  3.5491  3.3861
   34CHL1    C3 2443   0.072   2.807   7.129  0.6684 -0.0242  0.2612
   34CHL1    H3 2444   0.064   2.696   7.125  0.4402 -0.0618  1.4328
   34CHL1    O3 2445   0.065   2.863   7.000  0.2593 -0.0007 -0.3886
   34CHL1   H3' 2446  -0.019   2.838   6.961 -0.4135 -1.1449  1.7220
   34CHL1    C4 2447  -0.060   2.851   7.200 -0.0730 -0.4890  0.1808
   34CHL1   H4A 2448  -0.096   2.954   7.182 -1.2436 -0.9496 -0.1618
   34CHL1   H4B 2449  -0.143   2.792   7.155 -0.2812  0.4239 -0.6609
   34CHL1    C5 2450  -0.050   2.830   7.351 -0.2854 -0.5092  0.3679
   34CHL1    C6 2451  -0.153   2.776   7.416  0.2170  0.1147  0.9796
   34CHL1    H6 2452  -0.245   2.746   7.364  0.2280  0.9121  0.4861
   34CHL1    C7 2453  -0.171   2.777   7.570 -0.2050  0.1119 -0.2503
   34CHL1   H7A 2454  -0.275   2.813   7.587  0.5097  2.2085 -0.1042
   34CHL1   H7B 2455  -0.168   2.678   7.619  0.3209 -0.0352 -0.5719
   34CHL1    C8 2456  -0.061   2.869   7.633 -0.4286  0.2161  0.1203
   34CHL1    H8 2457  -0.082   2.977   7.618  2.3463  0.5503 -1.7688
   34CHL1   C14 2458  -0.052   2.851   7.777 -0.8059 -0.1250 -0.4514
   34CHL1   H14 2459  -0.018   2.745   7.788  1.3745  0.5993 -0.1030
   34CHL1   C15 2460  -0.185   2.858   7.861  1.1332  0.8012 -0.6277
   34CHL1  H15A 2461  -0.234   2.957   7.852  0.3220  0.3279 -1.5248
   34CHL1  H15B 2462  -0.259   2.781   7.831 -1.4077  2.8708  0.1485
   34CHL1   C16 2463  -0.127   2.840   8.006 -0.5842  0.5316  0.2616
   34CHL1  H16A 2464  -0.186   2.908   8.072 -2.3556 -3.6683  3.2247
   34CHL1  H16B 2465  -0.152   2.739   8.045 -1.0836  0.3090 -0.6227
   34CHL1   C17 2466   0.027   2.877   8.002 -0.3252 -0.0891 -0.2328
   34CHL1   H17 2467   0.069   2.776   8.020  0.1967 -0.1688 -1.8095
   34CHL1   C13 2468   0.051   2.926   7.858 -0.1334  0.2681 -0.8490
   34CHL1   C18 2469   0.006   3.079   7.849  0.4736 -0.7209  0.1077
   34CHL1  H18A 2470   0.094   3.145   7.861 -0.3241  0.4829 -0.5431
   34CHL1  H18B 2471  -0.024   3.105   7.746  1.2958 -1.0478 -0.2172
   34CHL1  H18C 2472  -0.086   3.103   7.907  0.7589 -1.3460  0.8305
   34CHL1   C12 2473   0.189   2.894   7.794  0.4142  0.2527 -0.0757
   34CHL1  H12A 2474   0.251   2.962   7.856 -0.8258 -0.0748  1.5864
   34CHL1  H12B 2475   0.208   2.785   7.800  0.6018  0.3391  0.9549
   34CHL1   C11 2476   0.184   2.942   7.644  0.1003  0.3403 -0.2400
   34CHL1  H11A 2477   0.165   3.052   7.644  0.3504  0.3831 -0.8866
   34CHL1  H11B 2478   0.283   2.929   7.596 -0.6109 -0.4708 -1.4849
   34CHL1    C9 2479   0.077   2.863   7.566  0.3257  0.1711  0.1998
   34CHL1    H9 2480   0.106   2.757   7.583  0.2239  0.3056  1.2264
   34CHL1   C10 2481   0.076   2.891   7.416 -0.3153 -0.1626 -0.0319
   34CHL1   C19 2482   0.077   3.045   7.394  0.0075  0.3267  0.8589
   34CHL1  H19A 2483   0.181   3.083   7.401  0.1430 -0.2050  1.8136
   34CHL1  H19B 2484   0.047   3.069   7.290 -0.8158  1.9143  1.4472
   34CHL1  H19C 2485   0.004   3.097   7.459  0.7826  2.1338  0.3166
   34CHL1    C1 2486   0.200   2.826   7.341 -0.1476  0.0835 -0.0776
   34CHL1   H1A 2487   0.302   2.854   7.374 -0.6892  1.3608  0.5695
   34CHL1   H1B 2488   0.183   2.717   7.351 -1.0233  0.1027 -1.3516
   34CHL1    C2 2489   0.198   2.855   7.193  0.3003 -0.4103  0.2834
   34CHL1   H2A 2490   0.286   2.812   7.141 -0.4032 -0.8677 -0.5296
   34CHL1   H2B 2491   0.198   2.962   7.161 -1.1197 -0.2926  0.6145
   34CHL1   C20 2492   0.075   2.970   8.117  0.0850 -0.3687  0.7695
   34CHL1   H20 2493   0.030   3.069   8.095 -0.5042 -0.7502  0.2473
   34CHL1   C21 2494   0.225   2.977   8.119 -0.7017  0.4250  0.1083
   34CHL1  H21A 2495   0.262   3.030   8.028 -0.1515 -0.3664 -0.1444
   34CHL1  H21B 2496   0.282   2.882   8.128  0.0720  0.9046  0.3315
   34CHL1  H21C 2497   0.269   3.045   8.195  0.7000  1.8260 -1.8868
   34CHL1   C22 2498   0.025   2.940   8.264 -0.6217 -0.3563  0.5870
   34CHL1  H22A 2499  -0.084   2.924   8.281 -0.6174  0.1263  1.0857
   34CHL1  H22B 2500   0.081   2.852   8.301  0.2004 -0.2610 -0.4130
   34CHL1   C23 2501   0.063   3.055   8.359 -0.9504 -0.2310  0.3904
   34CHL1  H23A 2502   0.172   3.071   8.364 -0.8414 -0.1504 -1.7321
   34CHL1  H23B 2503   0.009   3.147   8.326 -1.6578 -0.5969  0.5009
   34CHL1   C24 2504   0.022   3.025   8.505  0.5646  0.4917  0.1673
   34CHL1  H24A 2505  -0.089   3.020   8.519  0.5717 -0.7818 -0.2314
   34CHL1  H24B 2506   0.057   2.921   8.520 -2.6880 -0.6550  0.2462
   34CHL1   C25 2507   0.086   3.119   8.612  0.4351 -0.6273  0.2499
   34CHL1   H25 2508   0.196   3.127   8.598  0.2673  0.7269 -0.3484
   34CHL1   C26 2509   0.023   3.262   8.607 -0.5159  0.1692 -0.5093
   34CHL1  H26A 2510   0.075   3.341   8.665  0.4822 -0.3443 -0.6794
   34CHL1  H26B 2511   0.011   3.298   8.503 -1.9545 -0.5710 -0.6155
   34CHL1  H26C 2512  -0.082   3.256   8.643 -0.3429 -0.1983 -0.0648
   34CHL1   C27 2513   0.067   3.055   8.749  0.4541 -0.2689 -0.7794
   34CHL1  H27A 2514   0.117   2.957   8.760 -1.5044 -1.2323 -0.0106
   34CHL1  H27B 2515   0.107   3.122   8.828  1.6696 -0.7441 -0.9923
   34CHL1  H27C 2516  -0.042   3.040   8.765  0.6892  1.0566  2.4758
   35CHL1    C3 2517   3.223   3.597   7.375  0.0189 -0.6152 -0.4475
   35CHL1    H3 2518   3.157   3.528   7.431  0.0333  0.4324  0.9054
   35CHL1    O3 2519   3.192   3.581   7.236  0.8859 -0.1810  0.0041
   35CHL1   H3' 2520   3.215   3.663   7.192  2.5729 -2.1629 -2.9573
   35CHL1    C4 2521   3.184   3.734   7.420 -0.1115 -0.1944 -0.6186
   35CHL1   H4A 2522   3.232   3.807   7.351  1.8671 -2.0178 -1.2217
   35CHL1   H4B 2523   3.077   3.751   7.398 -0.6943 -1.7935  0.8735
   35CHL1    C5 2524   3.220   3.767   7.563 -0.3127  0.5407  0.0005
   35CHL1    C6 2525   3.129   3.778   7.662 -0.5274  0.5027 -0.0029
   35CHL1    H6 2526   3.021   3.777   7.644 -1.0578 -1.2271  2.8386
   35CHL1    C7 2527   3.156   3.798   7.806  1.2329  0.1034  0.0789
   35CHL1   H7A 2528   3.096   3.882   7.848 -1.3286 -0.8221 -1.6141
   35CHL1   H7B 2529   3.126   3.706   7.861  0.2765  0.7624  0.6832
   35CHL1    C8 2530   3.304   3.834   7.829 -1.1687 -0.3138 -0.7337
   35CHL1    H8 2531   3.332   3.932   7.786 -2.1882 -0.7033 -2.3473
   35CHL1   C14 2532   3.334   3.825   7.975  0.2853  0.0803  0.5744
   35CHL1   H14 2533   3.331   3.716   7.994  3.0151 -0.3002 -1.0163
   35CHL1   C15 2534   3.238   3.897   8.068  0.6081 -0.4897  0.4318
   35CHL1  H15A 2535   3.212   4.001   8.038  0.7045 -0.9301 -1.1881
   35CHL1  H15B 2536   3.144   3.840   8.080  0.9970 -1.3712 -0.5983
   35CHL1   C16 2537   3.317   3.896   8.197 -0.2706  0.1549  0.3305
   35CHL1  H16A 2538   3.309   3.995   8.245  1.4659  0.3118  0.3504
   35CHL1  H16B 2539   3.278   3.846   8.289 -1.5256  0.3883 -0.0765
   35CHL1   C17 2540   3.462   3.849   8.169 -0.5508  0.3179 -0.0489
   35CHL1   H17 2541   3.467   3.741   8.196 -0.0564  0.4173  0.2541
   35CHL1   C13 2542   3.475   3.863   8.014  0.0486  0.3084  0.3500
   35CHL1   C18 2543   3.500   4.010   7.972  0.6827 -0.1641  0.7467
   35CHL1  H18A 2544   3.424   4.078   8.017  1.4544  2.5226 -1.7919
   35CHL1  H18B 2545   3.596   4.043   8.019 -0.4389 -0.2309  3.1320
   35CHL1  H18C 2546   3.503   4.017   7.861 -5.0674 -1.7187  0.3594
   35CHL1   C12 2547   3.577   3.770   7.951  0.0126  0.2719  0.1475
   35CHL1  H12A 2548   3.681   3.794   7.982  0.4949 -1.1032 -0.3816
   35CHL1  H12B 2549   3.548   3.669   7.989 -1.0695  0.3308 -0.4825
   35CHL1   C11 2550   3.554   3.765   7.800  0.3978  0.3992 -0.6102
   35CHL1  H11A 2551   3.600   3.858   7.759 -0.4046  1.5965  1.0980
   35CHL1  H11B 2552   3.605   3.685   7.743 -1.3537 -2.0087  1.1149
   35CHL1    C9 2553   3.404   3.743   7.759 -0.4893  0.3136  0.5362
   35CHL1    H9 2554   3.387   3.639   7.796  0.7453  0.3439  1.2275
   35CHL1   C10 2555   3.371   3.745   7.602  0.4246 -0.2974  0.7906
   35CHL1   C19 2556   3.459   3.853   7.534  0.3109  0.3865  0.0020
   35CHL1  H19A 2557   3.424   3.951   7.574 -0.5662 -0.0147  0.2169
   35CHL1  H19B 2558   3.567   3.833   7.552  0.4255 -2.6956 -3.7010
   35CHL1  H19C 2559   3.446   3.865   7.425 -2.9449  2.3966  0.5507
   35CHL1    C1 2560   3.413   3.610   7.546 -1.0952 -0.9824 -0.1929
   35CHL1   H1A 2561   3.523   3.595   7.551 -0.8811  0.0842 -1.4963
   35CHL1   H1B 2562   3.372   3.527   7.607 -2.8944  0.6986  0.9408
   35CHL1    C2 2563   3.372   3.576   7.398 -0.3961  0.2423 -0.1618
   35CHL1   H2A 2564   3.422   3.480   7.376  2.3926  1.4212  0.8004
   35CHL1   H2B 2565   3.419   3.652   7.331 -1.2186 -0.9495 -2.1371
   35CHL1   C20 2566   3.566   3.923   8.259 -0.6620  0.0411 -0.2104
   35CHL1   H20 2567   3.574   4.029   8.229 -1.8793  0.8517  2.2883
   35CHL1   C21 2568   3.705   3.857   8.256 -0.2455 -0.3190  1.0827
   35CHL1  H21A 2569   3.724   3.760   8.307 -0.4360 -0.9969 -0.1166
   35CHL1  H21B 2570   3.777   3.923   8.309 -0.8402  0.7204  0.6025
   35CHL1  H21C 2571   3.749   3.858   8.154  1.4644 -2.8483  1.7383
   35CHL1   C22 2572   3.519   3.930   8.405 -0.5276 -0.2130  0.4090
   35CHL1  H22A 2573   3.413   3.964   8.412 -0.5157  0.7026 -2.9225
   35CHL1  H22B 2574   3.531   3.829   8.450  0.5488  0.1949  1.0675
   35CHL1   C23 2575   3.598   4.022   8.502 -0.9824 -0.2180 -0.2894
   35CHL1  H23A 2576   3.580   3.994   8.608 -0.3144 -0.1523 -0.1584
   35CHL1  H23B 2577   3.707   4.016   8.481 -0.2743  1.5127  2.6766
   35CHL1   C24 2578   3.552   4.167   8.480  0.0192 -0.8588  0.2236
   35CHL1  H24A 2579   3.556   4.200   8.374  0.8503  1.8572  1.0625
   35CHL1  H24B 2580   3.448   4.166   8.517 -0.1141  0.0357 -0.1129
   35CHL1   C25 2581   3.632   4.261   8.574 -0.0498  0.4064 -0.9808
   35CHL1   H25 2582   3.633   4.214   8.674  1.7664  1.1847 -0.5967
   35CHL1   C26 2583   3.765   4.288   8.512  0.2978 -0.6058  0.0825
   35CHL1  H26A 2584   3.828   4.198   8.520 -0.4404 -1.1167  0.2215
   35CHL1  H26B 2585   3.744   4.314   8.406 -1.3086 -2.4645 -0.0860
   35CHL1  H26C 2586   3.807   4.373   8.570  0.8485 -1.8094  1.4853
   35CHL1   C27 2587   3.558   4.393   8.595 -0.0131  0.0577 -0.2755
   35CHL1  H27A 2588   3.451   4.371   8.619  0.4319 -1.4113  0.4447
   35CHL1  H27B 2589   3.558   4.455   8.503  0.0421  1.4010  0.6148
   35CHL1  H27C 2590   3.602   4.445   8.683  2.2059  0.9957 -1.9026
   36CHL1    C3 2591   3.579   2.826   7.114 -0.4945  0.3267  0.4326
   36CHL1    H3 2592   3.472   2.833   7.141 -0.6277 -1.0357  0.3256
   36CHL1    O3 2593   3.604   2.910   7.005 -0.2985 -0.1132 -0.2702
   36CHL1   H3' 2594   3.699   2.924   7.008 -0.4646  1.1463 -0.6201
   36CHL1    C4 2595   3.664   2.881   7.231  0.0957  0.6667  0.3934
   36CHL1   H4A 2596   3.771   2.892   7.201 -0.1435 -0.9075 -1.1178
   36CHL1   H4B 2597   3.632   2.986   7.250 -1.8542  0.8548 -3.4109
   36CHL1    C5 2598   3.644   2.797   7.356  0.9179 -0.5672 -0.2606
   36CHL1    C6 2599   3.599   2.845   7.475  0.0593 -0.4616 -0.5592
   36CHL1    H6 2600   3.586   2.954   7.487 -0.1181 -0.6286  0.7471
   36CHL1    C7 2601   3.562   2.765   7.599 -0.0960 -0.3327  0.3651
   36CHL1   H7A 2602   3.595   2.822   7.688  2.8284 -0.5675 -0.5245
   36CHL1   H7B 2603   3.451   2.753   7.598 -0.1684  0.3277 -0.7466
   36CHL1    C8 2604   3.631   2.624   7.589 -0.1505 -0.3886  0.0348
   36CHL1    H8 2605   3.736   2.641   7.619 -0.2746 -2.0958  1.5574
   36CHL1   C14 2606   3.561   2.539   7.694  0.1807  0.2986 -0.5735
   36CHL1   H14 2607   3.457   2.527   7.657 -0.1083 -1.3605  0.7670
   36CHL1   C15 2608   3.550   2.589   7.841  0.4655 -0.4764  0.7207
   36CHL1  H15A 2609   3.644   2.642   7.869 -0.5877 -0.2922  4.1007
   36CHL1  H15B 2610   3.470   2.664   7.856  0.6958  0.6874 -3.2995
   36CHL1   C16 2611   3.532   2.460   7.928  0.6768 -0.2035  0.6536
   36CHL1  H16A 2612   3.617   2.441   7.996  0.0736 -0.7932  1.2562
   36CHL1  H16B 2613   3.439   2.462   7.988 -0.2339  0.1484 -0.7350
   36CHL1   C17 2614   3.534   2.346   7.824 -0.0396 -0.5860 -0.1503
   36CHL1   H17 2615   3.433   2.335   7.781 -0.2379 -0.8731  0.3805
   36CHL1   C13 2616   3.617   2.399   7.705 -0.1704 -0.5812  0.0293
   36CHL1   C18 2617   3.766   2.394   7.746  0.1865  0.0189 -0.4116
   36CHL1  H18A 2618   3.798   2.458   7.831  0.7605 -0.8150  0.0092
   36CHL1  H18B 2619   3.803   2.291   7.770  0.2221 -0.0069 -0.5732
   36CHL1  H18C 2620   3.821   2.429   7.656 -0.3665 -0.1544 -0.8258
   36CHL1   C12 2621   3.590   2.331   7.573  0.4604  0.0980 -0.5817
   36CHL1  H12A 2622   3.613   2.223   7.566  0.5768  0.0890 -0.0664
   36CHL1  H12B 2623   3.480   2.325   7.562  0.6233 -2.9810 -0.7734
   36CHL1   C11 2624   3.648   2.411   7.459 -0.0603  0.0764  0.1330
   36CHL1  H11A 2625   3.758   2.397   7.458 -0.2221 -1.2893  0.4992
   36CHL1  H11B 2626   3.615   2.369   7.362 -1.4660  0.3142  0.4954
   36CHL1    C9 2627   3.617   2.559   7.453  0.1897  0.0692  0.3101
   36CHL1    H9 2628   3.507   2.573   7.439  0.5365  1.4955 -1.1428
   36CHL1   C10 2629   3.665   2.642   7.331  0.0921  0.0731 -0.0566
   36CHL1   C19 2630   3.815   2.618   7.321 -0.9566  0.0985 -0.4470
   36CHL1  H19A 2631   3.826   2.514   7.284  0.3493  0.1197 -0.1250
   36CHL1  H19B 2632   3.873   2.681   7.251  0.8378 -1.5632 -0.5143
   36CHL1  H19C 2633   3.859   2.622   7.423  0.8273  0.6664 -1.2312
   36CHL1    C1 2634   3.597   2.596   7.200  1.0927  0.4163 -0.5887
   36CHL1   H1A 2635   3.635   2.492   7.187 -0.4357 -0.1511 -0.5591
   36CHL1   H1B 2636   3.489   2.596   7.226  0.8749 -2.5412 -1.2378
   36CHL1    C2 2637   3.619   2.688   7.078  0.4709 -0.3201  0.3291
   36CHL1   H2A 2638   3.573   2.643   6.987  1.2292 -1.4610  0.5040
   36CHL1   H2B 2639   3.728   2.705   7.068  0.7382 -0.2079  3.0796
   36CHL1   C20 2640   3.564   2.203   7.886  0.2361 -0.4380 -0.0985
   36CHL1   H20 2641   3.669   2.194   7.921  0.5175  1.1626 -0.5047
   36CHL1   C21 2642   3.562   2.089   7.782  0.1803  0.7947  0.3331
   36CHL1  H21A 2643   3.561   1.993   7.837  0.0678  0.0047 -1.0171
   36CHL1  H21B 2644   3.651   2.090   7.716 -0.5332 -1.3891 -0.6959
   36CHL1  H21C 2645   3.467   2.103   7.725  1.8696 -0.3300 -2.8490
   36CHL1   C22 2646   3.480   2.170   8.014  0.3392  0.1008 -0.9533
   36CHL1  H22A 2647   3.508   2.068   8.047 -0.9365 -0.7608 -2.4592
   36CHL1  H22B 2648   3.498   2.241   8.097  0.7603 -0.2121 -0.7786
   36CHL1   C23 2649   3.328   2.168   7.983  0.0098  0.1525  0.3918
   36CHL1  H23A 2650   3.295   2.266   7.943  1.8083  0.4249 -0.5063
   36CHL1  H23B 2651   3.310   2.090   7.907  1.4330  1.4448 -1.3118
   36CHL1   C24 2652   3.252   2.125   8.113 -0.0543 -0.0127 -0.0086
   36CHL1  H24A 2653   3.265   2.018   8.141  2.8170  0.2742 -0.0938
   36CHL1  H24B 2654   3.277   2.196   8.194 -3.0679  0.7802  0.2907
   36CHL1   C25 2655   3.100   2.138   8.107 -0.0450  0.4539 -0.1290
   36CHL1   H25 2656   3.072   2.244   8.089  0.6524  0.5908 -0.4511
   36CHL1   C26 2657   3.034   2.059   7.983  0.1013  0.9195 -0.9685
   36CHL1  H26A 2658   2.927   2.087   7.979 -0.5346 -1.1042  0.7518
   36CHL1  H26B 2659   3.083   2.095   7.890  0.7557  0.9356 -0.6201
   36CHL1  H26C 2660   3.035   1.948   7.985  0.9413  0.8922 -1.9241
   36CHL1   C27 2661   3.023   2.106   8.233  0.8024  0.5997 -0.2732
   36CHL1  H27A 2662   3.034   1.997   8.252  3.7349  1.0317  0.6747
   36CHL1  H27B 2663   3.051   2.173   8.317 -0.9246  0.7375  0.2224
   36CHL1  H27C 2664   2.913   2.117   8.221  0.1500 -1.4796  3.0259
   37CHL1    C3 2665   0.485   5.516   6.907 -0.7584  0.4065  0.2977
   37CHL1    H3 2666   0.483   5.626   6.923 -2.4688  0.3559  0.5028
   37CHL1    O3 2667   0.498   5.501   6.764  0.1167 -0.6818  0.6618
   37CHL1   H3' 2668   0.456   5.419   6.739 -0.6344 -0.3812  0.9228
   37CHL1    C4 2669   0.603   5.438   6.958 -0.0571  0.3545  0.3436
   37CHL1   H4A 2670   0.585   5.336   6.918  0.2009 -0.1531  1.5015
   37CHL1   H4B 2671   0.698   5.470   6.911 -0.0884  1.5693  1.0920
   37CHL1    C5 2672   0.602   5.441   7.108  0.6742 -0.1970  0.6418
   37CHL1    C6 2673   0.708   5.487   7.172  0.3118 -0.0527  0.2591
   37CHL1    H6 2674   0.803   5.509   7.121 -0.7829  0.4834 -1.6097
   37CHL1    C7 2675   0.728   5.495   7.321  0.7460  0.3820  0.0482
   37CHL1   H7A 2676   0.821   5.436   7.336  1.0184  0.1189 -2.4154
   37CHL1   H7B 2677   0.754   5.595   7.362  0.3619  0.6800 -0.4248
   37CHL1    C8 2678   0.620   5.422   7.399  0.0070 -0.5014  0.1280
   37CHL1    H8 2679   0.639   5.312   7.393  0.2612 -0.4056 -1.0902
   37CHL1   C14 2680   0.609   5.465   7.545  0.0493  0.5530 -0.1588
   37CHL1   H14 2681   0.590   5.574   7.540  1.2159  0.6814 -2.3493
   37CHL1   C15 2682   0.733   5.454   7.635 -0.7241  0.3913 -0.0007
   37CHL1  H15A 2683   0.780   5.353   7.637 -2.0889 -0.2760 -0.5366
   37CHL1  H15B 2684   0.810   5.529   7.609 -2.1379  1.6402 -0.6865
   37CHL1   C16 2685   0.679   5.487   7.778 -0.1457 -0.0765  0.1933
   37CHL1  H16A 2686   0.732   5.420   7.849  0.4757  1.6050  1.3542
   37CHL1  H16B 2687   0.703   5.591   7.812  0.4169 -0.1146 -0.0802
   37CHL1   C17 2688   0.527   5.480   7.767  0.2940 -0.9942  0.0050
   37CHL1   H17 2689   0.491   5.585   7.754 -0.6929 -1.0521  2.1700
   37CHL1   C13 2690   0.495   5.417   7.631  0.1492  0.6235  0.0984
   37CHL1   C18 2691   0.512   5.262   7.652  0.2745  0.1705 -0.1130
   37CHL1  H18A 2692   0.513   5.215   7.552 -0.4376  1.4124 -0.7157
   37CHL1  H18B 2693   0.604   5.237   7.709 -0.3808 -0.5876  0.6390
   37CHL1  H18C 2694   0.430   5.216   7.712 -2.3805  0.1231 -3.6404
   37CHL1   C12 2695   0.362   5.458   7.561 -0.4133  0.6125  0.7899
   37CHL1  H12A 2696   0.274   5.426   7.620 -1.7024 -0.9183 -1.8577
   37CHL1  H12B 2697   0.356   5.568   7.556  0.0530  0.5897 -0.8161
   37CHL1   C11 2698   0.354   5.409   7.416 -0.4060  0.1212 -0.1810
   37CHL1  H11A 2699   0.356   5.298   7.427  3.7291 -0.1097 -2.2510
   37CHL1  H11B 2700   0.261   5.447   7.368 -1.0041  0.8725  1.5341
   37CHL1    C9 2701   0.478   5.452   7.334 -0.0547 -0.0791 -0.1090
   37CHL1    H9 2702   0.476   5.562   7.345 -1.4887  0.1552 -2.4520
   37CHL1   C10 2703   0.472   5.417   7.180 -0.0626 -0.0472 -0.1135
   37CHL1   C19 2704   0.449   5.269   7.158  0.2155  0.3196 -0.1375
   37CHL1  H19A 2705   0.355   5.240   7.210  1.1211 -1.5260  0.5173
   37CHL1  H19B 2706   0.437   5.235   7.052 -0.5549 -0.6568  0.2579
   37CHL1  H19C 2707   0.524   5.204   7.208  0.6904 -0.5929 -1.9515
   37CHL1    C1 2708   0.345   5.487   7.109 -0.5642 -0.1546 -0.5361
   37CHL1   H1A 2709   0.251   5.443   7.149 -0.3181 -1.5793 -1.5223
   37CHL1   H1B 2710   0.341   5.598   7.118 -1.7179 -0.0411 -2.2527
   37CHL1    C2 2711   0.358   5.467   6.959 -0.1653 -0.3429 -0.3977
   37CHL1   H2A 2712   0.274   5.520   6.910  0.3421  0.5768 -0.2656
   37CHL1   H2B 2713   0.334   5.363   6.926  2.0656 -1.9650  2.7929
   37CHL1   C20 2714   0.448   5.427   7.893  0.6051  1.2263  0.0003
   37CHL1   H20 2715   0.355   5.376   7.859  1.5263  0.3317 -1.2390
   37CHL1   C21 2716   0.424   5.547   7.975  0.2634 -0.2381 -0.2979
   37CHL1  H21A 2717   0.522   5.593   8.002  0.7216 -0.3450 -1.7114
   37CHL1  H21B 2718   0.362   5.533   8.066 -1.1770  0.8996 -1.0874
   37CHL1  H21C 2719   0.359   5.607   7.908 -2.0929 -1.9361  0.4247
   37CHL1   C22 2720   0.512   5.311   7.973 -0.0025 -0.1348 -0.5115
   37CHL1  H22A 2721   0.563   5.236   7.909  0.6392 -1.5419  1.6230
   37CHL1  H22B 2722   0.595   5.345   8.038 -0.8006  2.9844 -1.0362
   37CHL1   C23 2723   0.416   5.253   8.077 -0.4877 -0.9740  0.0305
   37CHL1  H23A 2724   0.389   5.329   8.154  0.7275 -1.4283  0.9267
   37CHL1  H23B 2725   0.319   5.219   8.035 -0.6223  1.0183 -1.3188
   37CHL1   C24 2726   0.494   5.137   8.152 -0.2896 -0.0879  0.1411
   37CHL1  H24A 2727   0.514   5.052   8.084 -2.0028 -0.1292 -0.3594
   37CHL1  H24B 2728   0.588   5.165   8.202  1.0464 -1.2892 -1.6288
   37CHL1   C25 2729   0.405   5.068   8.259 -0.4282  0.5011 -0.8485
   37CHL1   H25 2730   0.325   5.004   8.216 -2.1519  0.4860  2.3071
   37CHL1   C26 2731   0.499   4.973   8.338 -0.1903  0.3953  0.5160
   37CHL1  H26A 2732   0.534   4.894   8.268 -0.5943  0.0618  0.6889
   37CHL1  H26B 2733   0.582   5.033   8.381  1.3444  0.4161 -2.3440
   37CHL1  H26C 2734   0.436   4.919   8.412 -0.1439 -1.0633 -0.4910
   37CHL1   C27 2735   0.342   5.158   8.361  0.4074  0.6755 -0.2131
   37CHL1  H27A 2736   0.276   5.103   8.432  1.6249  1.2688  1.4140
   37CHL1  H27B 2737   0.416   5.205   8.429 -0.9765  2.3155  0.1904
   37CHL1  H27C 2738   0.286   5.244   8.318  1.7101  1.5720 -0.1446
   38CHL1    C3 2739   3.657   5.679   6.796  0.5167 -0.2128  0.2133
   38CHL1    H3 2740   3.614   5.580   6.823  3.0478 -1.0891  1.1834
   38CHL1    O3 2741   3.694   5.679   6.660 -0.2541  0.3244 -0.2242
   38CHL1   H3' 2742   3.756   5.751   6.647 -2.3502  2.2263  0.1184
   38CHL1    C4 2743   3.562   5.797   6.833  0.2391 -0.8159  0.5723
   38CHL1   H4A 2744   3.613   5.884   6.786 -0.2363 -0.3436  0.9162
   38CHL1   H4B 2745   3.471   5.771   6.775 -1.0519  2.6146  0.9356
   38CHL1    C5 2746   3.548   5.820   6.979 -0.4229  0.1830  0.0666
   38CHL1    C6 2747   3.429   5.838   7.029  0.1365 -0.8444 -0.2643
   38CHL1    H6 2748   3.343   5.838   6.960 -0.3138 -0.5063  0.2976
   38CHL1    C7 2749   3.399   5.858   7.172  0.0406 -0.3793 -0.8766
   38CHL1   H7A 2750   3.330   5.945   7.186  0.4178 -0.4113  1.3036
   38CHL1   H7B 2751   3.358   5.764   7.215 -1.2059 -0.7958 -2.8895
   38CHL1    C8 2752   3.539   5.885   7.250 -0.4109 -0.1365 -0.1615
   38CHL1    H8 2753   3.573   5.990   7.236  0.4575 -0.4179 -0.1667
   38CHL1   C14 2754   3.519   5.861   7.404 -0.0106 -0.5432 -0.0705
   38CHL1   H14 2755   3.516   5.750   7.409 -0.1670 -0.5542 -0.4353
   38CHL1   C15 2756   3.387   5.904   7.472 -0.3065  0.3780  0.0762
   38CHL1  H15A 2757   3.352   6.010   7.467 -0.7755  0.2032 -0.4294
   38CHL1  H15B 2758   3.310   5.829   7.442  0.3026 -0.2406  0.0434
   38CHL1   C16 2759   3.427   5.881   7.619 -0.5047 -0.2782 -0.2107
   38CHL1  H16A 2760   3.392   5.972   7.673  0.3714  0.2459 -0.5180
   38CHL1  H16B 2761   3.369   5.791   7.649 -0.8330 -1.6515 -4.6835
   38CHL1   C17 2762   3.581   5.868   7.628  0.2309 -0.0423 -0.1328
   38CHL1   H17 2763   3.596   5.758   7.635 -4.0951 -0.6850  0.0831
   38CHL1   C13 2764   3.635   5.905   7.495 -0.2999  0.7218 -0.1240
   38CHL1   C18 2765   3.665   6.061   7.483  0.7789 -0.4893 -0.0433
   38CHL1  H18A 2766   3.679   6.091   7.378 -0.6334  0.1632 -0.0633
   38CHL1  H18B 2767   3.582   6.122   7.525 -2.3302 -3.4624 -1.6514
   38CHL1  H18C 2768   3.752   6.083   7.549 -0.0693  0.2231  0.8587
   38CHL1   C12 2769   3.751   5.811   7.449  0.3603  0.3777  0.4560
   38CHL1  H12A 2770   3.848   5.841   7.496 -0.3123  1.3307  1.2502
   38CHL1  H12B 2771   3.722   5.705   7.465  1.1491 -0.1867 -1.6679
   38CHL1   C11 2772   3.782   5.811   7.294  0.5825  0.1915 -0.3157
   38CHL1  H11A 2773   3.828   5.911   7.275 -0.6293  0.9522  0.6654
   38CHL1  H11B 2774   3.851   5.730   7.262  0.9443 -0.3783  1.8129
   38CHL1    C9 2775   3.655   5.803   7.207 -0.0416 -0.2352 -0.0586
   38CHL1    H9 2776   3.603   5.705   7.220  1.2794 -0.8733  0.4556
   38CHL1   C10 2777   3.686   5.822   7.050  0.0788  0.2090 -0.6121
   38CHL1   C19 2778   3.765   5.957   7.031  0.3048  0.4620 -0.6443
   38CHL1  H19A 2779   3.871   5.955   7.064 -0.2985  3.1785  1.6643
   38CHL1  H19B 2780   3.786   5.972   6.923  1.1239  2.6484 -0.2034
   38CHL1  H19C 2781   3.717   6.040   7.087 -1.7667 -2.0874  1.5540
   38CHL1    C1 2782   3.780   5.709   7.005  0.2975 -0.3821  0.0367
   38CHL1   H1A 2783   3.879   5.715   7.055  0.4610 -0.6511 -0.2497
   38CHL1   H1B 2784   3.720   5.624   7.044 -0.6548 -0.1542 -0.9300
   38CHL1    C2 2785   3.790   5.688   6.859  0.2159 -0.3570 -0.1212
   38CHL1   H2A 2786   3.834   5.588   6.837 -0.3291 -0.1494 -2.2738
   38CHL1   H2B 2787   3.850   5.766   6.807 -1.8080  1.6945  0.5330
   38CHL1   C20 2788   3.640   5.927   7.756  0.9677  0.5580  0.0153
   38CHL1   H20 2789   3.628   6.038   7.755 -3.2911  0.1811 -2.6676
   38CHL1   C21 2790   3.784   5.887   7.775 -0.3497  0.3963 -0.1411
   38CHL1  H21A 2791   3.835   5.934   7.862 -0.9011  2.3981 -0.8615
   38CHL1  H21B 2792   3.851   5.930   7.697  0.5138  0.2429  0.5055
   38CHL1  H21C 2793   3.799   5.777   7.778  1.1857  0.5773 -0.6761
   38CHL1   C22 2794   3.568   5.886   7.888 -0.1777 -0.1074  0.5857
   38CHL1  H22A 2795   3.462   5.917   7.877 -0.5888 -1.4726  0.4800
   38CHL1  H22B 2796   3.556   5.776   7.901  0.6605 -0.1693  0.8276
   38CHL1   C23 2797   3.616   5.959   8.017  0.8222 -0.6189 -0.1922
   38CHL1  H23A 2798   3.697   5.894   8.057 -1.0872 -1.2243  2.8675
   38CHL1  H23B 2799   3.671   6.054   7.996 -0.1429 -0.3093 -1.3925
   38CHL1   C24 2800   3.505   5.984   8.127  0.0928  0.4498 -0.3498
   38CHL1  H24A 2801   3.430   6.047   8.075  1.2950  0.0323 -2.6879
   38CHL1  H24B 2802   3.472   5.881   8.154 -0.3517  0.8358  0.5700
   38CHL1   C25 2803   3.551   6.048   8.256  0.3556  0.1170 -0.6597
   38CHL1   H25 2804   3.656   6.014   8.273 -0.4681 -2.3660 -0.2821
   38CHL1   C26 2805   3.535   6.201   8.248 -0.1108  0.3390 -0.4052
   38CHL1  H26A 2806   3.557   6.249   8.346  0.1351  0.6374 -0.6084
   38CHL1  H26B 2807   3.593   6.247   8.166  0.7381  1.1374  0.6282
   38CHL1  H26C 2808   3.428   6.225   8.227 -0.7521 -3.9872 -2.6475
   38CHL1   C27 2809   3.458   6.001   8.370 -0.3894  0.2159 -0.2196
   38CHL1  H27A 2810   3.451   5.891   8.365 -0.8564  0.2716 -0.9409
   38CHL1  H27B 2811   3.498   6.037   8.468 -2.1247  1.0817  0.1966
   38CHL1  H27C 2812   3.354   6.038   8.357 -0.5730  0.5672  2.0386
   39CHL1    C3 2813   3.461   5.178   6.673  0.2399  0.5174 -0.3117
   39CHL1    H3 2814   3.474   5.076   6.714 -0.7066 -0.1688 -1.7022
   39CHL1    O3 2815   3.488   5.185   6.530 -0.3934 -0.2070 -0.0670
   39CHL1   H3' 2816   3.436   5.260   6.499  0.9333 -0.4165 -2.8782
   39CHL1    C4 2817   3.317   5.212   6.704 -0.5457 -0.2519  0.2539
   39CHL1   H4A 2818   3.295   5.301   6.641 -0.2989  1.0780  2.0048
   39CHL1   H4B 2819   3.248   5.143   6.651 -1.6385  1.2718 -0.3532
   39CHL1    C5 2820   3.280   5.220   6.852 -0.4675  0.4785 -0.2749
   39CHL1    C6 2821   3.180   5.150   6.910  0.5931 -0.6685 -0.4066
   39CHL1    H6 2822   3.124   5.081   6.844  0.8968 -3.1145  1.8030
   39CHL1    C7 2823   3.152   5.158   7.055  0.2055 -0.1903  0.0769
   39CHL1   H7A 2824   3.042   5.148   7.068  0.2417 -3.2277 -1.5094
   39CHL1   H7B 2825   3.197   5.067   7.100  0.0393  1.0885  2.8977
   39CHL1    C8 2826   3.210   5.284   7.122  0.8765  0.5843 -0.4370
   39CHL1    H8 2827   3.143   5.370   7.101 -1.5038 -0.4739  2.4459
   39CHL1   C14 2828   3.200   5.279   7.278 -0.4774 -0.4754 -0.8261
   39CHL1   H14 2829   3.266   5.193   7.302 -0.5920 -0.1990  0.5188
   39CHL1   C15 2830   3.063   5.247   7.346 -0.2951  0.1338  0.2094
   39CHL1  H15A 2831   2.988   5.323   7.318 -0.2606  0.7588  1.7772
   39CHL1  H15B 2832   3.026   5.145   7.323 -1.1731  0.4707  0.1285
   39CHL1   C16 2833   3.098   5.272   7.495  0.2921 -0.1380  0.7113
   39CHL1  H16A 2834   3.008   5.326   7.531 -0.3508  1.1056 -2.6111
   39CHL1  H16B 2835   3.117   5.176   7.549 -1.1459  0.4330  2.2637
   39CHL1   C17 2836   3.229   5.354   7.507 -0.0238 -0.0738 -0.1793
   39CHL1   H17 2837   3.310   5.279   7.525 -0.5739 -0.2753  1.5957
   39CHL1   C13 2838   3.260   5.398   7.358  0.4099 -0.4694 -1.2584
   39CHL1   C18 2839   3.177   5.530   7.337  0.4691 -0.0144  0.1143
   39CHL1  H18A 2840   3.069   5.514   7.358  0.3842 -0.7174 -0.7713
   39CHL1  H18B 2841   3.222   5.603   7.407  1.0875  0.9381 -1.2441
   39CHL1  H18C 2842   3.194   5.582   7.240 -1.0179  1.4419  0.6294
   39CHL1   C12 2843   3.405   5.408   7.310 -0.1595  0.9347 -0.0818
   39CHL1  H12A 2844   3.451   5.496   7.361  0.4186  0.6255 -0.0635
   39CHL1  H12B 2845   3.470   5.322   7.336 -1.0372  0.1363 -0.5287
   39CHL1   C11 2846   3.423   5.418   7.155  0.1978  0.1644  0.0073
   39CHL1  H11A 2847   3.384   5.517   7.121  0.2090  0.1142 -0.1463
   39CHL1  H11B 2848   3.532   5.426   7.136  0.4675  0.1991  1.4606
   39CHL1    C9 2849   3.355   5.304   7.083  0.2978 -0.3461 -0.4897
   39CHL1    H9 2850   3.405   5.212   7.121 -1.2276 -2.3125 -3.0436
   39CHL1   C10 2851   3.374   5.311   6.932  0.1737  0.0037 -0.0840
   39CHL1   C19 2852   3.339   5.460   6.890  0.0388 -0.6087 -0.7391
   39CHL1  H19A 2853   3.421   5.528   6.923 -1.1612 -0.3861  1.9670
   39CHL1  H19B 2854   3.326   5.469   6.780 -1.8896 -0.6019 -0.5449
   39CHL1  H19C 2855   3.241   5.498   6.928  0.8293 -0.1727  0.9319
   39CHL1    C1 2856   3.523   5.282   6.895  0.6094 -0.1558 -0.2467
   39CHL1   H1A 2857   3.589   5.352   6.949  0.7098 -1.4059  1.2856
   39CHL1   H1B 2858   3.546   5.178   6.926  2.2965  0.2178 -0.1919
   39CHL1    C2 2859   3.551   5.282   6.743 -0.3318 -0.4600 -0.7097
   39CHL1   H2A 2860   3.656   5.255   6.719  0.2209 -1.0635  2.1926
   39CHL1   H2B 2861   3.527   5.382   6.701 -0.3362 -0.8944 -1.7616
   39CHL1   C20 2862   3.231   5.457   7.625 -1.3876 -0.0881  0.4887
   39CHL1   H20 2863   3.169   5.543   7.593 -0.0908  0.4385 -0.6615
   39CHL1   C21 2864   3.379   5.514   7.639 -0.6005 -0.5489  0.5368
   39CHL1  H21A 2865   3.420   5.558   7.546 -1.1746 -1.5213 -0.1827
   39CHL1  H21B 2866   3.457   5.437   7.654 -2.8649 -3.2381 -0.9976
   39CHL1  H21C 2867   3.382   5.590   7.720  3.0099 -0.8863  0.8030
   39CHL1   C22 2868   3.178   5.404   7.764  0.1532 -0.1109  0.1720
   39CHL1  H22A 2869   3.076   5.362   7.757  1.1431 -2.4664 -0.6485
   39CHL1  H22B 2870   3.244   5.320   7.794 -1.6005 -1.2731  0.8638
   39CHL1   C23 2871   3.174   5.507   7.876  0.6015 -0.0233  0.5321
   39CHL1  H23A 2872   3.274   5.546   7.904  0.4885 -0.6441  1.8580
   39CHL1  H23B 2873   3.116   5.597   7.847  1.1619  0.0959 -0.2157
   39CHL1   C24 2874   3.136   5.447   8.017  0.6131 -0.0136 -0.0313
   39CHL1  H24A 2875   3.044   5.384   8.012  0.5372  0.1229 -0.3146
   39CHL1  H24B 2876   3.219   5.377   8.039  0.7926  0.0740 -0.4389
   39CHL1   C25 2877   3.129   5.542   8.141 -0.2031 -0.2124  0.2844
   39CHL1   H25 2878   3.139   5.475   8.229 -1.1170 -0.7751 -0.0357
   39CHL1   C26 2879   3.251   5.636   8.143  0.0467 -0.0321 -0.0407
   39CHL1  H26A 2880   3.255   5.695   8.049  1.1030  0.4140  0.2833
   39CHL1  H26B 2881   3.235   5.712   8.223 -1.6643  1.3357 -1.6192
   39CHL1  H26C 2882   3.348   5.583   8.154 -0.1241 -0.2591  0.3789
   39CHL1   C27 2883   2.985   5.607   8.158 -0.7418  0.7553  0.1041
   39CHL1  H27A 2884   2.949   5.657   8.065  0.9005  1.3323 -0.2324
   39CHL1  H27B 2885   2.913   5.527   8.187  0.8306 -0.5582  0.4376
   39CHL1  H27C 2886   2.983   5.665   8.252 -0.2768  2.2293 -0.7836
   40CHL1    C3 2887   6.134   4.368   6.828 -0.5040  0.4897 -1.0316
   40CHL1    H3 2888   6.240   4.338   6.844 -0.8569  0.6868  2.1296
   40CHL1    O3 2889   6.110   4.423   6.701 -0.1432  0.3531  0.4018
   40CHL1   H3' 2890   6.164   4.502   6.694 -1.9782  1.4794 -2.1949
   40CHL1    C4 2891   6.051   4.239   6.851  0.7208 -0.2780 -0.4218
   40CHL1   H4A 2892   5.948   4.267   6.822  0.0385 -0.8234  1.3565
   40CHL1   H4B 2893   6.081   4.161   6.779  0.7136 -1.4129  0.7782
   40CHL1    C5 2894   6.059   4.192   6.997  0.3970 -0.2831 -0.2130
   40CHL1    C6 2895   6.076   4.062   7.030  0.2303  0.5337 -0.6603
   40CHL1    H6 2896   6.074   3.978   6.958  1.9230 -2.0324  2.1519
   40CHL1    C7 2897   6.079   4.009   7.175  0.4400  0.3371  0.3367
   40CHL1   H7A 2898   6.019   3.916   7.185  1.4859 -0.3622  0.1843
   40CHL1   H7B 2899   6.186   3.990   7.197  0.3573  0.9538  1.2972
   40CHL1    C8 2900   6.017   4.110   7.271 -0.0881  0.5868 -0.0031
   40CHL1    H8 2901   5.907   4.107   7.259 -0.2739 -2.8729  2.0323
   40CHL1   C14 2902   6.044   4.055   7.415 -0.5059 -0.6705  0.1224
   40CHL1   H14 2903   6.153   4.051   7.437 -0.2376 -2.0149 -1.3709
   40CHL1   C15 2904   5.989   3.920   7.462  0.0543 -0.8306  0.2490
   40CHL1  H15A 2905   5.886   3.914   7.420  0.3171 -1.0302 -0.3651
   40CHL1  H15B 2906   6.037   3.832   7.414 -1.1787 -1.3681 -0.0206
   40CHL1   C16 2907   6.001   3.932   7.614 -0.7523  0.4154  0.4896
   40CHL1  H16A 2908   5.909   3.887   7.657 -0.7985  0.7819  0.7842
   40CHL1  H16B 2909   6.083   3.872   7.659 -0.9877  0.3618  0.8535
   40CHL1   C17 2910   6.015   4.078   7.654 -0.5255 -0.6413  0.5943
   40CHL1   H17 2911   6.122   4.090   7.682 -0.4094 -1.5110  0.5463
   40CHL1   C13 2912   6.003   4.153   7.519  0.6981 -0.1907 -0.1171
   40CHL1   C18 2913   5.847   4.182   7.509 -0.1572 -0.0179  0.7086
   40CHL1  H18A 2914   5.789   4.101   7.557 -1.2266  0.5730  0.4318
   40CHL1  H18B 2915   5.822   4.276   7.563 -0.3098 -0.9679  2.3331
   40CHL1  H18C 2916   5.816   4.199   7.404  1.9278 -1.5415 -0.1891
   40CHL1   C12 2917   6.089   4.284   7.500 -0.7757 -0.1423  0.0679
   40CHL1  H12A 2918   6.075   4.358   7.582  1.3771  0.7066 -0.2924
   40CHL1  H12B 2919   6.195   4.250   7.503 -0.2594  1.5475  2.2086
   40CHL1   C11 2920   6.054   4.349   7.359  0.0013 -0.4582 -0.4234
   40CHL1  H11A 2921   5.947   4.380   7.357 -0.6066 -2.3313  1.1836
   40CHL1  H11B 2922   6.127   4.429   7.340  0.7987 -1.0775 -0.0081
   40CHL1    C9 2923   6.080   4.246   7.245  0.3495  0.2956  0.2182
   40CHL1    H9 2924   6.189   4.225   7.237  0.6016  1.2662  1.0945
   40CHL1   C10 2925   6.040   4.306   7.109  0.1352 -0.3921  0.3429
   40CHL1   C19 2926   5.886   4.344   7.108 -0.2326 -0.3791 -0.1684
   40CHL1  H19A 2927   5.880   4.444   7.156 -0.2372 -0.8980  0.9244
   40CHL1  H19B 2928   5.841   4.363   7.008  0.1029  2.4104  0.1811
   40CHL1  H19C 2929   5.830   4.273   7.172 -0.5097  0.5957  0.6752
   40CHL1    C1 2930   6.131   4.424   7.078 -0.7276 -0.2917 -0.2633
   40CHL1   H1A 2931   6.085   4.498   7.146 -0.7197 -0.4026 -0.1376
   40CHL1   H1B 2932   6.236   4.401   7.107 -1.1420 -0.0721  1.4482
   40CHL1    C2 2933   6.118   4.474   6.935  0.6832 -0.0337  0.3769
   40CHL1   H2A 2934   6.193   4.555   6.923 -1.3163  2.4612  3.7410
   40CHL1   H2B 2935   6.016   4.515   6.917  0.2941 -1.7508 -1.3912
   40CHL1   C20 2936   5.938   4.118   7.778  0.0028 -0.2639  0.5704
   40CHL1   H20 2937   5.828   4.117   7.759  0.3482 -0.9755 -1.4468
   40CHL1   C21 2938   5.975   4.260   7.831  0.1096  0.3244  0.0065
   40CHL1  H21A 2939   5.925   4.284   7.927  1.1937 -0.0069  0.6693
   40CHL1  H21B 2940   5.948   4.336   7.755 -0.1361  0.4984  0.2692
   40CHL1  H21C 2941   6.086   4.272   7.834  0.0864  1.2432 -1.8292
   40CHL1   C22 2942   5.966   4.021   7.896  0.5034  0.0672 -0.0217
   40CHL1  H22A 2943   5.948   3.916   7.864  0.2056 -0.0182  0.4172
   40CHL1  H22B 2944   6.070   4.027   7.934  0.9348 -0.6298 -1.0610
   40CHL1   C23 2945   5.877   4.042   8.017 -0.8188 -0.6730  0.3354
   40CHL1  H23A 2946   5.897   4.137   8.071  1.8601 -0.4568 -0.9601
   40CHL1  H23B 2947   5.770   4.053   7.988 -0.8807 -3.3933 -0.5926
   40CHL1   C24 2948   5.869   3.920   8.117  0.2685 -0.1209 -0.6279
   40CHL1  H24A 2949   5.854   3.828   8.057  2.5174 -0.9114 -0.0214
   40CHL1  H24B 2950   5.965   3.905   8.170 -0.3158 -0.3261  0.3765
   40CHL1   C25 2951   5.759   3.933   8.219  0.1402 -0.8255  0.1562
   40CHL1   H25 2952   5.660   3.931   8.169  0.2143  0.6560 -0.0942
   40CHL1   C26 2953   5.761   3.803   8.301  1.0848 -0.2984 -0.2769
   40CHL1  H26A 2954   5.849   3.808   8.369  1.9299 -2.1874 -1.1763
   40CHL1  H26B 2955   5.670   3.811   8.363 -0.1005 -2.6922 -1.6290
   40CHL1  H26C 2956   5.771   3.710   8.241 -0.8409  0.0035 -1.1026
   40CHL1   C27 2957   5.759   4.065   8.299  0.6756  0.4153  1.2141
   40CHL1  H27A 2958   5.676   4.073   8.372  0.2909 -0.5003  0.8939
   40CHL1  H27B 2959   5.857   4.071   8.351  1.8367 -0.4635 -0.7970
   40CHL1  H27C 2960   5.754   4.151   8.229  1.6144  0.1908  0.8669
   41CHL1    C3 2961   6.603   4.609   7.071  0.4596 -1.1625  0.5325
   41CHL1    H3 2962   6.617   4.718   7.085 -0.4619 -0.6822 -1.9771
   41CHL1    O3 2963   6.640   4.565   6.941  0.5384 -0.7562  0.0853
   41CHL1   H3' 2964   6.727   4.605   6.936 -0.7564  2.4837  2.1935
   41CHL1    C4 2965   6.711   4.553   7.174  0.2909 -0.4430  0.4822
   41CHL1   H4A 2966   6.723   4.445   7.151 -1.5656 -0.4026 -0.8350
   41CHL1   H4B 2967   6.810   4.598   7.153 -0.3261 -0.5234 -2.8225
   41CHL1    C5 2968   6.670   4.574   7.317 -0.4333 -0.2314  0.6782
   41CHL1    C6 2969   6.757   4.630   7.401 -0.5298  0.1995 -0.2483
   41CHL1    H6 2970   6.849   4.676   7.363 -0.8264  0.2567 -0.9037
   41CHL1    C7 2971   6.722   4.661   7.546 -0.0943  0.2553 -0.0690
   41CHL1   H7A 2972   6.814   4.651   7.607 -1.2121  0.9081  1.7487
   41CHL1   H7B 2973   6.684   4.765   7.562  2.3509  1.1775 -0.0501
   41CHL1    C8 2974   6.609   4.564   7.595 -0.8135  0.0631  0.7472
   41CHL1    H8 2975   6.658   4.468   7.622 -3.1975 -0.7520  2.3223
   41CHL1   C14 2976   6.567   4.613   7.736  0.0037 -0.1248  0.9614
   41CHL1   H14 2977   6.518   4.711   7.718 -1.7444 -1.2667 -0.6758
   41CHL1   C15 2978   6.673   4.643   7.842  0.4353  0.0461 -1.2583
   41CHL1  H15A 2979   6.752   4.564   7.838  0.5972 -0.0060  1.9586
   41CHL1  H15B 2980   6.721   4.740   7.821  2.5046 -0.5902  0.3859
   41CHL1   C16 2981   6.595   4.641   7.977  0.4189 -0.1726 -0.2383
   41CHL1  H16A 2982   6.641   4.572   8.052 -1.3438 -1.4063 -0.2714
   41CHL1  H16B 2983   6.588   4.742   8.023  2.1179 -0.6695  1.1795
   41CHL1   C17 2984   6.449   4.593   7.927 -0.2114 -0.8510 -0.0230
   41CHL1   H17 2985   6.397   4.689   7.906  0.5431 -0.3838  0.2073
   41CHL1   C13 2986   6.465   4.525   7.794  0.3823 -0.2965 -0.0354
   41CHL1   C18 2987   6.519   4.382   7.815 -0.3977  0.3448  0.7740
   41CHL1  H18A 2988   6.597   4.381   7.894 -1.5229  2.4446  1.9582
   41CHL1  H18B 2989   6.435   4.313   7.840 -0.8057  0.3974 -0.4059
   41CHL1  H18C 2990   6.555   4.334   7.721 -2.1257  0.3016  0.1062
   41CHL1   C12 2991   6.340   4.526   7.700 -0.0912 -0.1632  0.1861
   41CHL1  H12A 2992   6.254   4.472   7.745 -1.4679  1.5945 -0.2603
   41CHL1  H12B 2993   6.318   4.635   7.698  2.3840  0.3352 -1.9635
   41CHL1   C11 2994   6.371   4.487   7.555 -0.4428  0.5137  0.0611
   41CHL1  H11A 2995   6.388   4.377   7.555 -1.8672  0.2385 -2.3371
   41CHL1  H11B 2996   6.276   4.507   7.500 -1.7272  0.1351  2.0804
   41CHL1    C9 2997   6.493   4.550   7.498  0.3078  0.1799  0.4519
   41CHL1    H9 2998   6.470   4.659   7.487  2.3245  0.9314  3.1684
   41CHL1   C10 2999   6.529   4.512   7.351  0.2574 -0.2926  0.3225
   41CHL1   C19 3000   6.518   4.365   7.330 -0.8079  0.3451  0.3924
   41CHL1  H19A 3001   6.419   4.320   7.352 -0.0333 -1.3902  0.4069
   41CHL1  H19B 3002   6.550   4.327   7.231 -1.3917  4.0109 -1.2755
   41CHL1  H19C 3003   6.590   4.312   7.396 -2.6738 -0.7218  1.6201
   41CHL1    C1 3004   6.428   4.578   7.258  0.1859 -0.8643 -0.9542
   41CHL1   H1A 3005   6.323   4.549   7.282 -0.4580  3.0279  1.2262
   41CHL1   H1B 3006   6.443   4.687   7.268 -1.0686 -0.9144  1.8539
   41CHL1    C2 3007   6.459   4.561   7.103  0.2152 -0.9628 -0.6719
   41CHL1   H2A 3008   6.389   4.623   7.044 -0.0976 -1.4494 -0.8229
   41CHL1   H2B 3009   6.449   4.454   7.073 -0.7010 -1.1700  0.3425
   41CHL1   C20 3010   6.362   4.522   8.032 -0.0353 -0.2095 -0.6033
   41CHL1   H20 3011   6.287   4.461   7.978  0.9678  0.0709 -2.3566
   41CHL1   C21 3012   6.292   4.636   8.115  0.6720 -1.5397 -0.1824
   41CHL1  H21A 3013   6.233   4.593   8.198  1.1784 -0.1275  0.9307
   41CHL1  H21B 3014   6.226   4.697   8.050  0.7783 -1.4715 -0.2275
   41CHL1  H21C 3015   6.364   4.711   8.155 -1.1787  1.5457 -2.4541
   41CHL1   C22 3016   6.424   4.428   8.137  0.6603 -0.5454  0.2943
   41CHL1  H22A 3017   6.503   4.372   8.082 -0.1139 -0.0200 -1.3834
   41CHL1  H22B 3018   6.472   4.489   8.216  1.8492 -1.2497  0.1378
   41CHL1   C23 3019   6.332   4.320   8.197  0.6981 -0.0376  0.5185
   41CHL1  H23A 3020   6.247   4.360   8.257  0.9110 -1.4782  1.8155
   41CHL1  H23B 3021   6.295   4.268   8.105  1.6214  1.1160 -0.5188
   41CHL1   C24 3022   6.391   4.221   8.289  0.5412  0.3710 -0.2302
   41CHL1  H24A 3023   6.446   4.144   8.231 -1.7734 -2.0318  0.6443
   41CHL1  H24B 3024   6.446   4.266   8.375 -0.6393 -2.3345  2.0622
   41CHL1   C25 3025   6.290   4.131   8.371  0.0959  0.4561 -0.1513
   41CHL1   H25 3026   6.236   4.198   8.441 -1.2512 -0.4945 -0.2544
   41CHL1   C26 3027   6.185   4.057   8.288  0.0386  0.5978 -0.3017
   41CHL1  H26A 3028   6.234   4.002   8.205  0.7481  0.3657  0.2641
   41CHL1  H26B 3029   6.132   3.985   8.354  1.8492 -1.5413 -1.1586
   41CHL1  H26C 3030   6.112   4.131   8.249 -0.0767  1.7345  1.9305
   41CHL1   C27 3031   6.361   4.025   8.458  0.2372  0.6445 -0.5846
   41CHL1  H27A 3032   6.293   3.963   8.521  1.2793 -0.6641 -0.7376
   41CHL1  H27B 3033   6.423   3.959   8.394  0.0257  0.0188 -0.1504
   41CHL1  H27C 3034   6.426   4.085   8.525 -0.7234  1.1431 -0.0853
   42CHL1    C3 3035   1.460   1.422   7.028  0.2594 -0.1594  0.0483
   42CHL1    H3 3036   1.554   1.420   7.086  0.6677  0.2499 -0.6030
   42CHL1    O3 3037   1.486   1.422   6.885  0.0821  0.3458  0.3096
   42CHL1   H3' 3038   1.417   1.370   6.844 -0.7252  0.4875  1.4676
   42CHL1    C4 3039   1.383   1.298   7.064  0.3269 -0.2552  0.5155
   42CHL1   H4A 3040   1.283   1.301   7.016  1.6639 -1.0450 -2.4491
   42CHL1   H4B 3041   1.436   1.205   7.033 -1.1001 -0.9282  0.0848
   42CHL1    C5 3042   1.356   1.302   7.213  0.4442 -0.2912 -0.1002
   42CHL1    C6 3043   1.372   1.195   7.295 -0.0659 -0.3419  0.7369
   42CHL1    H6 3044   1.419   1.104   7.253  3.4155  0.7006  2.1615
   42CHL1    C7 3045   1.357   1.191   7.444  0.0356 -0.0168  0.6925
   42CHL1   H7A 3046   1.296   1.107   7.482 -2.0099  1.0849 -0.0756
   42CHL1   H7B 3047   1.456   1.208   7.493  0.5363  1.2399 -0.7339
   42CHL1    C8 3048   1.267   1.311   7.489  0.5492 -0.7344  0.4219
   42CHL1    H8 3049   1.160   1.293   7.463 -0.1633  1.0588  2.0145
   42CHL1   C14 3050   1.277   1.320   7.643 -0.5986  0.6428 -0.2745
   42CHL1   H14 3051   1.380   1.346   7.677 -0.5550  0.0994  0.0243
   42CHL1   C15 3052   1.247   1.193   7.728  0.7891  0.8700 -0.1781
   42CHL1  H15A 3053   1.145   1.156   7.705  0.3016  0.4806  2.4591
   42CHL1  H15B 3054   1.325   1.115   7.714  1.8602  1.8485  0.3081
   42CHL1   C16 3055   1.238   1.251   7.868  0.2450  0.7585  0.0284
   42CHL1  H16A 3056   1.151   1.218   7.928  0.1676 -0.0463 -0.4996
   42CHL1  H16B 3057   1.329   1.215   7.920  2.2241  0.8999 -3.2025
   42CHL1   C17 3058   1.239   1.406   7.855  0.3935 -0.2601 -0.4007
   42CHL1   H17 3059   1.345   1.435   7.872  0.7921 -1.7988 -0.1718
   42CHL1   C13 3060   1.197   1.433   7.705 -0.3622  0.3223 -0.1980
   42CHL1   C18 3061   1.042   1.415   7.688  0.6595  0.0608 -0.3031
   42CHL1  H18A 3062   1.014   1.308   7.701  1.4473 -0.1859 -0.5668
   42CHL1  H18B 3063   0.990   1.486   7.755  2.3984  1.2744 -0.2169
   42CHL1  H18C 3064   1.025   1.452   7.585 -1.0604  0.1283 -0.0011
   42CHL1   C12 3065   1.241   1.567   7.641 -0.0937 -0.7106 -0.4397
   42CHL1  H12A 3066   1.189   1.658   7.677  1.8971  1.6996 -3.4039
   42CHL1  H12B 3067   1.350   1.573   7.662 -0.0428 -0.1212 -0.8799
   42CHL1   C11 3068   1.231   1.561   7.487  0.2882  0.3940  0.8881
   42CHL1  H11A 3069   1.124   1.576   7.462  0.1965 -0.5223  0.7481
   42CHL1  H11B 3070   1.275   1.658   7.455  0.8948  0.0285  0.6135
   42CHL1    C9 3071   1.311   1.443   7.430 -0.0251  0.0591 -0.5728
   42CHL1    H9 3072   1.417   1.461   7.459 -0.2181 -0.8779  0.7337
   42CHL1   C10 3073   1.302   1.439   7.270  0.3318 -0.0571 -0.1815
   42CHL1   C19 3074   1.158   1.426   7.221 -0.1110 -0.5786  0.0024
   42CHL1  H19A 3075   1.094   1.499   7.276  2.1361  0.9120  0.6873
   42CHL1  H19B 3076   1.140   1.457   7.116 -1.9173  0.0427  0.4680
   42CHL1  H19C 3077   1.101   1.333   7.244 -2.1321  0.6143  0.0069
   42CHL1    C1 3078   1.366   1.565   7.207 -0.1711  0.5364 -0.0011
   42CHL1   H1A 3079   1.316   1.660   7.234  0.6149  1.4057 -1.5384
   42CHL1   H1B 3080   1.467   1.567   7.253  0.1234  0.5286 -0.6478
   42CHL1    C2 3081   1.391   1.551   7.060 -0.1525  0.9307  0.3681
   42CHL1   H2A 3082   1.460   1.632   7.027 -1.6524  1.6814 -0.9712
   42CHL1   H2B 3083   1.298   1.555   7.000  0.9571  0.1627 -1.4527
   42CHL1   C20 3084   1.165   1.469   7.971  0.2462 -0.8428 -1.2362
   42CHL1   H20 3085   1.056   1.452   7.958  0.1138 -2.4071  1.6778
   42CHL1   C21 3086   1.180   1.628   7.973 -0.2111  0.1347 -0.7820
   42CHL1  H21A 3087   1.108   1.666   7.897 -1.8876  1.3438  1.3475
   42CHL1  H21B 3088   1.284   1.660   7.950  0.9335 -1.5657  1.8444
   42CHL1  H21C 3089   1.162   1.666   8.075  2.2206  0.2865 -0.3765
   42CHL1   C22 3090   1.206   1.421   8.118  0.4279 -0.2120  0.6296
   42CHL1  H22A 3091   1.219   1.311   8.128 -0.7033 -0.3152  1.0718
   42CHL1  H22B 3092   1.302   1.470   8.146  0.9671  0.7073 -2.6472
   42CHL1   C23 3093   1.097   1.458   8.230 -0.1840  0.0040 -0.0481
   42CHL1  H23A 3094   1.104   1.568   8.242  1.1309 -0.1934  1.1840
   42CHL1  H23B 3095   1.001   1.429   8.184 -0.2765 -0.0503  0.1818
   42CHL1   C24 3096   1.113   1.406   8.367 -0.5041 -0.2928 -0.4595
   42CHL1  H24A 3097   1.100   1.295   8.362  2.6599 -0.6493 -2.1653
   42CHL1  H24B 3098   1.218   1.428   8.396 -0.8736  0.0040  0.6637
   42CHL1   C25 3099   1.000   1.475   8.448 -0.0826  0.1019 -0.6067
   42CHL1   H25 3100   0.905   1.462   8.391 -0.5605  1.2106 -0.0727
   42CHL1   C26 3101   0.980   1.398   8.580 -0.5449 -0.2617 -0.2070
   42CHL1  H26A 3102   0.882   1.419   8.629 -0.8039 -2.8075  0.4319
   42CHL1  H26B 3103   0.990   1.290   8.561 -1.4528 -0.1994 -1.0899
   42CHL1  H26C 3104   1.050   1.420   8.664 -0.9428  0.8302 -0.1515
   42CHL1   C27 3105   1.032   1.621   8.477  0.4367 -0.0298 -0.4108
   42CHL1  H27A 3106   1.130   1.634   8.528 -0.3227 -0.5497  1.2305
   42CHL1  H27B 3107   0.952   1.677   8.530 -0.8216  0.2837 -2.5753
   42CHL1  H27C 3108   1.051   1.676   8.383  2.7272 -0.4356 -0.2295
   43CHL1    C3 3109   1.245   5.402   6.824  0.3498 -0.2413 -0.3823
   43CHL1    H3 3110   1.335   5.467   6.819 -0.0406  0.2561 -1.1470
   43CHL1    O3 3111   1.218   5.357   6.691  0.0331  0.1886 -0.3383
   43CHL1   H3' 3112   1.157   5.283   6.692  0.9664 -0.6043  1.3018
   43CHL1    C4 3113   1.273   5.284   6.919  0.3103  0.7067  0.5454
   43CHL1   H4A 3114   1.185   5.216   6.919  1.6226 -1.0172  1.8393
   43CHL1   H4B 3115   1.358   5.228   6.874  0.2352  0.4630  0.7075
   43CHL1    C5 3116   1.304   5.335   7.058 -0.1496 -0.4015 -0.5305
   43CHL1    C6 3117   1.422   5.313   7.113 -0.9709 -0.3072 -0.3220
   43CHL1    H6 3118   1.507   5.271   7.058 -0.5589 -1.1791  0.9326
   43CHL1    C7 3119   1.442   5.342   7.261  0.4808  0.7785  0.3450
   43CHL1   H7A 3120   1.496   5.257   7.307  0.9899  0.5816 -0.6193
   43CHL1   H7B 3121   1.518   5.421   7.275 -2.3703  3.1941  3.0321
   43CHL1    C8 3122   1.318   5.388   7.349 -0.0503 -0.4122  0.3327
   43CHL1    H8 3123   1.268   5.290   7.365  1.4301 -0.9187  2.0983
   43CHL1   C14 3124   1.365   5.452   7.479  0.2847  0.2250 -0.6184
   43CHL1   H14 3125   1.421   5.544   7.454  2.4656 -1.4949 -2.3206
   43CHL1   C15 3126   1.471   5.381   7.572 -0.2069  1.2547  0.4208
   43CHL1  H15A 3127   1.449   5.272   7.584  0.2757  0.9302 -1.5244
   43CHL1  H15B 3128   1.572   5.388   7.525 -0.4272  0.3291 -0.2125
   43CHL1   C16 3129   1.449   5.449   7.707 -0.4440  0.2395  0.5963
   43CHL1  H16A 3130   1.430   5.373   7.786  4.3217 -2.4120 -0.5976
   43CHL1  H16B 3131   1.537   5.511   7.737  0.9449 -0.7596 -1.2905
   43CHL1   C17 3132   1.321   5.543   7.695 -0.5657 -0.8683  0.0676
   43CHL1   H17 3133   1.353   5.647   7.670 -0.7826 -0.6974  0.4883
   43CHL1   C13 3134   1.245   5.491   7.573 -0.3660 -0.1352 -0.6677
   43CHL1   C18 3135   1.164   5.363   7.604  0.3611  0.6744 -0.1265
   43CHL1  H18A 3136   1.233   5.281   7.636  1.8395  1.6693 -0.7233
   43CHL1  H18B 3137   1.085   5.386   7.678  2.7272  1.7997  2.1374
   43CHL1  H18C 3138   1.106   5.325   7.517  0.6421 -0.3351  0.1156
   43CHL1   C12 3139   1.167   5.596   7.495 -0.6750  0.0263 -0.2779
   43CHL1  H12A 3140   1.075   5.639   7.540 -0.8224 -0.5205 -0.0571
   43CHL1  H12B 3141   1.241   5.679   7.487  1.6521 -2.0892 -1.0250
   43CHL1   C11 3142   1.125   5.548   7.352 -0.2816 -0.2294  0.5922
   43CHL1  H11A 3143   1.034   5.485   7.361  0.1423 -0.8151  0.7681
   43CHL1  H11B 3144   1.082   5.629   7.289 -1.1315 -1.0949  0.0438
   43CHL1    C9 3145   1.240   5.491   7.267  0.2500  0.4106 -0.1255
   43CHL1    H9 3146   1.312   5.572   7.246  0.6469  0.2332  0.5240
   43CHL1   C10 3147   1.200   5.420   7.132  0.4205 -1.3681  0.1039
   43CHL1   C19 3148   1.080   5.336   7.158 -0.3480 -0.0985  0.1780
   43CHL1  H19A 3149   1.045   5.284   7.066  2.8074  1.1903 -1.8212
   43CHL1  H19B 3150   1.101   5.264   7.240 -2.4592 -1.6067 -0.5492
   43CHL1  H19C 3151   0.990   5.395   7.186 -2.0414 -1.4812 -2.1968
   43CHL1    C1 3152   1.156   5.525   7.022 -0.1582 -0.3605 -1.2418
   43CHL1   H1A 3153   1.076   5.590   7.063 -1.5718 -3.3717  0.9201
   43CHL1   H1B 3154   1.244   5.593   7.022  1.2961 -2.1371  2.2333
   43CHL1    C2 3155   1.121   5.472   6.878 -0.0762 -0.0469 -0.3725
   43CHL1   H2A 3156   1.091   5.561   6.818 -1.5982 -0.0660  0.3398
   43CHL1   H2B 3157   1.032   5.405   6.879  0.0614 -0.2757  2.9965
   43CHL1   C20 3158   1.260   5.546   7.835 -0.6653  0.2469  0.2958
   43CHL1   H20 3159   1.238   5.440   7.861  1.4894 -0.8115 -1.9655
   43CHL1   C21 3160   1.131   5.633   7.832  0.4023  0.4848 -0.1957
   43CHL1  H21A 3161   1.089   5.631   7.935 -3.2113 -3.2677 -1.5782
   43CHL1  H21B 3162   1.047   5.589   7.774  0.8766 -0.6090 -0.0737
   43CHL1  H21C 3163   1.152   5.738   7.803  1.1420  0.2303 -0.5806
   43CHL1   C22 3164   1.346   5.607   7.945 -0.2515  0.3123  0.0192
   43CHL1  H22A 3165   1.452   5.577   7.929  0.4160  0.1352  4.2884
   43CHL1  H22B 3166   1.333   5.717   7.932  0.2824  0.4417  0.5913
   43CHL1   C23 3167   1.302   5.554   8.095 -0.7427 -0.3946  0.4926
   43CHL1  H23A 3168   1.193   5.570   8.108 -0.9271  0.6764 -2.0133
   43CHL1  H23B 3169   1.315   5.445   8.110  0.1959 -0.5155 -1.0917
   43CHL1   C24 3170   1.393   5.609   8.203 -0.2931 -0.2952 -0.2091
   43CHL1  H24A 3171   1.496   5.568   8.195 -0.0362  0.6857 -2.2144
   43CHL1  H24B 3172   1.403   5.719   8.190  1.9530 -0.0144  3.2974
   43CHL1   C25 3173   1.333   5.556   8.336 -0.0943 -0.7469 -0.5795
   43CHL1   H25 3174   1.310   5.448   8.324  0.8215 -1.1610  1.2112
   43CHL1   C26 3175   1.445   5.549   8.437  0.0357 -0.8140 -0.4218
   43CHL1  H26A 3176   1.530   5.486   8.404  0.3379 -2.0429  2.5745
   43CHL1  H26B 3177   1.482   5.651   8.461 -3.2981  0.5390 -0.7967
   43CHL1  H26C 3178   1.419   5.503   8.535  0.7211 -1.1789 -0.4087
   43CHL1   C27 3179   1.211   5.630   8.387  0.6383  0.1379 -0.8598
   43CHL1  H27A 3180   1.186   5.609   8.493 -1.3041 -0.0640 -1.3386
   43CHL1  H27B 3181   1.228   5.740   8.390  0.6092  0.0851  1.7705
   43CHL1  H27C 3182   1.128   5.595   8.321  1.1617 -3.3588  0.2377
   44CHL1    C3 3183   0.745   4.228   6.794 -0.1246 -0.0230  0.0210
   44CHL1    H3 3184   0.674   4.314   6.789  1.2797  1.1168 -0.6703
   44CHL1    O3 3185   0.784   4.173   6.671 -0.1202  0.2820 -0.1700
   44CHL1   H3' 3186   0.729   4.210   6.602  2.6893 -0.9882 -3.2557
   44CHL1    C4 3187   0.873   4.282   6.867 -0.4898  0.1443  0.0023
   44CHL1   H4A 3188   0.950   4.201   6.871 -0.1839  0.4784  1.3177
   44CHL1   H4B 3189   0.912   4.365   6.806  1.2638 -0.9199 -0.3631
   44CHL1    C5 3190   0.847   4.328   7.013  0.0509 -0.0345 -0.2969
   44CHL1    C6 3191   0.884   4.445   7.063 -0.0439 -0.6647 -0.2738
   44CHL1    H6 3192   0.944   4.512   7.000 -0.1639 -1.1954 -0.9548
   44CHL1    C7 3193   0.849   4.484   7.200  0.5897 -0.1720 -0.2668
   44CHL1   H7A 3194   0.938   4.538   7.239  0.4685 -0.0723 -0.1276
   44CHL1   H7B 3195   0.764   4.553   7.184  1.5373  1.3905  1.2913
   44CHL1    C8 3196   0.816   4.369   7.297 -0.5016  0.6638  0.5958
   44CHL1    H8 3197   0.907   4.307   7.311 -1.0838 -1.1088 -2.7685
   44CHL1   C14 3198   0.774   4.427   7.425 -0.7475  0.0230  0.1098
   44CHL1   H14 3199   0.690   4.498   7.409 -0.3497  1.2079  2.9365
   44CHL1   C15 3200   0.870   4.517   7.506  0.7005 -0.0284 -0.4998
   44CHL1  H15A 3201   0.966   4.463   7.491  0.5773  0.0355 -1.5655
   44CHL1  H15B 3202   0.885   4.618   7.463 -3.5037  0.2218 -1.6319
   44CHL1   C16 3203   0.827   4.512   7.653 -0.7997  0.0781 -0.3544
   44CHL1  H16A 3204   0.912   4.471   7.712  0.4599 -0.6888 -2.6141
   44CHL1  H16B 3205   0.790   4.612   7.681 -0.8551  0.2173 -0.9098
   44CHL1   C17 3206   0.712   4.406   7.655 -0.4461  0.3969  0.2980
   44CHL1   H17 3207   0.621   4.469   7.644  0.1306  1.3436  0.8579
   44CHL1   C13 3208   0.728   4.316   7.528  0.2982 -0.6112  0.2112
   44CHL1   C18 3209   0.838   4.214   7.546 -0.7042 -0.2681 -0.0946
   44CHL1  H18A 3210   0.859   4.164   7.449 -0.7251 -1.4474  0.5037
   44CHL1  H18B 3211   0.934   4.266   7.568 -1.1782  0.9346 -0.8019
   44CHL1  H18C 3212   0.833   4.140   7.629  2.2627 -0.5775 -0.1361
   44CHL1   C12 3213   0.604   4.254   7.462 -0.6891 -0.5908  0.1895
   44CHL1  H12A 3214   0.550   4.186   7.532 -2.1852 -1.7548 -2.0214
   44CHL1  H12B 3215   0.529   4.330   7.432 -0.2686 -1.3453 -2.9702
   44CHL1   C11 3216   0.640   4.185   7.327  0.5414 -0.2607 -0.3271
   44CHL1  H11A 3217   0.705   4.097   7.343  2.5559  1.4214  0.8724
   44CHL1  H11B 3218   0.550   4.139   7.279  1.3068 -0.3661 -1.7045
   44CHL1    C9 3219   0.708   4.285   7.226 -1.4498 -0.2637 -0.0637
   44CHL1    H9 3220   0.624   4.354   7.205  1.0118  2.6339 -0.6026
   44CHL1   C10 3221   0.766   4.231   7.092  0.6547  0.3288 -0.0733
   44CHL1   C19 3222   0.853   4.107   7.131  0.0130 -0.1990 -0.0252
   44CHL1  H19A 3223   0.794   4.023   7.173 -0.4300  1.1858  2.2073
   44CHL1  H19B 3224   0.892   4.058   7.040  1.5894 -0.1819  0.6349
   44CHL1  H19C 3225   0.936   4.130   7.201 -0.6910 -2.3031  1.5536
   44CHL1    C1 3226   0.644   4.171   7.016  0.3061 -0.5099  0.0741
   44CHL1   H1A 3227   0.590   4.103   7.085  1.4703  1.7523  3.3349
   44CHL1   H1B 3228   0.569   4.251   7.001 -0.8140 -1.7719 -1.2375
   44CHL1    C2 3229   0.675   4.115   6.880 -0.0437  0.0008 -0.3392
   44CHL1   H2A 3230   0.591   4.087   6.812 -0.6850  0.2647  0.3499
   44CHL1   H2B 3231   0.744   4.028   6.878 -0.9620 -0.8103  1.8699
   44CHL1   C20 3232   0.701   4.349   7.796  0.2697  0.4870  0.8225
   44CHL1   H20 3233   0.801   4.304   7.816  0.6056  0.7747 -0.1974
   44CHL1   C21 3234   0.610   4.228   7.799 -0.0921 -0.3947  0.0192
   44CHL1  H21A 3235   0.639   4.149   7.727 -0.0375  0.0250 -0.4225
   44CHL1  H21B 3236   0.500   4.241   7.786 -0.1137 -0.5541  0.0422
   44CHL1  H21C 3237   0.618   4.185   7.901  3.1505 -0.2050 -0.0936
   44CHL1   C22 3238   0.661   4.455   7.901  0.3353  0.0121 -0.4652
   44CHL1  H22A 3239   0.741   4.533   7.901 -0.6178  1.0815  3.0933
   44CHL1  H22B 3240   0.566   4.510   7.882 -1.4238 -1.8550  2.5338
   44CHL1   C23 3241   0.664   4.406   8.041  0.4113  0.5327  0.4442
   44CHL1  H23A 3242   0.568   4.350   8.050  0.9131 -0.2578  0.9329
   44CHL1  H23B 3243   0.740   4.325   8.046 -1.1610 -0.9235  1.0764
   44CHL1   C24 3244   0.681   4.522   8.135  0.0890 -0.3996 -1.1224
   44CHL1  H24A 3245   0.773   4.576   8.105  1.7585 -1.2985  2.1755
   44CHL1  H24B 3246   0.595   4.592   8.126 -0.0475 -0.2955  0.8502
   44CHL1   C25 3247   0.707   4.473   8.277  0.5285 -0.3221 -0.7694
   44CHL1   H25 3248   0.806   4.423   8.281  0.7407  0.1269 -0.4247
   44CHL1   C26 3249   0.712   4.589   8.371  0.3291 -0.0091  0.1080
   44CHL1  H26A 3250   0.769   4.669   8.318 -1.2571  0.6144 -0.6810
   44CHL1  H26B 3251   0.606   4.622   8.378 -0.5750 -2.6512 -0.8238
   44CHL1  H26C 3252   0.755   4.561   8.469 -2.1595  1.7871  1.7740
   44CHL1   C27 3253   0.602   4.367   8.323 -0.1878  0.4292  0.5478
   44CHL1  H27A 3254   0.497   4.390   8.294 -0.7692 -2.1495  0.4757
   44CHL1  H27B 3255   0.634   4.272   8.275  0.5508  0.5507  0.7903
   44CHL1  H27C 3256   0.603   4.362   8.434  0.3365  0.7520  0.5565
   45CHL1    C3 3257   2.177   2.249   6.639 -0.0692  0.2250  0.0874
   45CHL1    H3 3258   2.197   2.146   6.676 -1.4331 -0.5401 -1.2600
   45CHL1    O3 3259   2.156   2.255   6.500 -0.3716 -0.5259  0.0559
   45CHL1   H3' 3260   2.115   2.172   6.473 -2.4529  0.5520 -0.2043
   45CHL1    C4 3261   2.050   2.292   6.708 -0.3093  0.2726 -0.2370
   45CHL1   H4A 3262   2.029   2.389   6.657  2.5197  2.2012  2.1021
   45CHL1   H4B 3263   1.969   2.218   6.689 -0.5898  0.2060  1.1269
   45CHL1    C5 3264   2.071   2.326   6.856  0.0198 -0.1538 -0.1758
   45CHL1    C6 3265   1.987   2.280   6.943  0.2186  0.0027 -0.0378
   45CHL1    H6 3266   1.904   2.222   6.899  0.8422 -1.1236  0.2619
   45CHL1    C7 3267   1.991   2.308   7.093  0.3195  0.0691 -0.0047
   45CHL1   H7A 3268   1.895   2.346   7.135  0.3266  1.5049 -1.2433
   45CHL1   H7B 3269   2.017   2.210   7.140 -0.6291 -1.4277 -2.5185
   45CHL1    C8 3270   2.104   2.419   7.125  0.0211  0.0403  0.2141
   45CHL1    H8 3271   2.059   2.516   7.096 -0.7522 -0.2260  0.4922
   45CHL1   C14 3272   2.137   2.416   7.274 -0.1383  0.2119  0.3113
   45CHL1   H14 3273   2.178   2.315   7.297 -1.1149 -0.2513  0.0556
   45CHL1   C15 3274   2.013   2.428   7.367 -0.4831  0.5399 -0.3983
   45CHL1  H15A 3275   1.936   2.495   7.325  0.2103  0.0894 -2.4189
   45CHL1  H15B 3276   1.961   2.334   7.395  2.0419 -0.5892  0.6347
   45CHL1   C16 3277   2.079   2.481   7.497 -0.2542  0.2444  0.3689
   45CHL1  H16A 3278   2.025   2.574   7.527  0.1568  1.0068 -1.2067
   45CHL1  H16B 3279   2.060   2.412   7.582  0.5536  0.1535  0.4746
   45CHL1   C17 3280   2.229   2.504   7.470  0.1807 -0.0600  0.0654
   45CHL1   H17 3281   2.282   2.409   7.493 -0.4432 -1.3014 -3.4257
   45CHL1   C13 3282   2.243   2.520   7.317  0.2710  0.0766 -0.3937
   45CHL1   C18 3283   2.182   2.666   7.292 -0.3591  0.0024 -0.0810
   45CHL1  H18A 3284   2.152   2.686   7.187 -0.4358 -1.5312 -0.3526
   45CHL1  H18B 3285   2.090   2.684   7.352  1.2440 -0.1649  2.4997
   45CHL1  H18C 3286   2.259   2.743   7.313  1.0263 -1.1676 -0.7932
   45CHL1   C12 3287   2.374   2.491   7.244  0.2873  0.1023  0.0851
   45CHL1  H12A 3288   2.449   2.572   7.257  0.9810 -0.3707 -0.9679
   45CHL1  H12B 3289   2.422   2.401   7.289 -2.1625 -1.8230 -1.0205
   45CHL1   C11 3290   2.351   2.490   7.092  0.2096  1.0365  0.7721
   45CHL1  H11A 3291   2.327   2.593   7.057 -2.3314 -0.3199 -1.6228
   45CHL1  H11B 3292   2.446   2.461   7.043 -1.6854 -1.4307 -1.5592
   45CHL1    C9 3293   2.236   2.397   7.051 -0.0224 -0.0280 -0.0579
   45CHL1    H9 3294   2.278   2.296   7.072 -0.4393 -0.3316 -0.6504
   45CHL1   C10 3295   2.200   2.405   6.897  0.5429 -0.3337 -0.4003
   45CHL1   C19 3296   2.185   2.554   6.851 -0.3896 -0.5577 -0.7272
   45CHL1  H19A 3297   2.282   2.608   6.844 -0.1138 -0.2848  3.8867
   45CHL1  H19B 3298   2.152   2.557   6.745  1.9554  2.5386 -1.4269
   45CHL1  H19C 3299   2.121   2.611   6.921  1.0068  0.8885 -0.5936
   45CHL1    C1 3300   2.326   2.355   6.825  0.4283 -0.1807  1.0234
   45CHL1   H1A 3301   2.413   2.424   6.836 -1.0735  1.8150  0.6937
   45CHL1   H1B 3302   2.349   2.255   6.868 -0.8730 -0.6238  0.7013
   45CHL1    C2 3303   2.307   2.336   6.671 -0.1657  0.3000 -0.9013
   45CHL1   H2A 3304   2.394   2.288   6.622 -0.7748 -4.5247  2.3620
   45CHL1   H2B 3305   2.287   2.435   6.626  2.5671  0.4020 -1.9679
   45CHL1   C20 3306   2.289   2.617   7.566  0.0571  1.0414 -0.0146
   45CHL1   H20 3307   2.225   2.703   7.537  1.3587  2.5396  1.4773
   45CHL1   C21 3308   2.441   2.650   7.545  0.3966  0.1623 -0.4712
   45CHL1  H21A 3309   2.498   2.555   7.552 -0.9500 -0.6611 -0.4565
   45CHL1  H21B 3310   2.465   2.728   7.620 -1.1218  0.5822 -0.4121
   45CHL1  H21C 3311   2.447   2.686   7.440  0.4446 -1.3518 -1.0113
   45CHL1   C22 3312   2.263   2.613   7.717  0.5325  0.5613  0.1367
   45CHL1  H22A 3313   2.307   2.702   7.766 -0.3744  1.6899 -1.0545
   45CHL1  H22B 3314   2.154   2.603   7.735  0.6689 -1.1674  0.1174
   45CHL1   C23 3315   2.329   2.495   7.788 -0.3422 -0.1508 -0.0904
   45CHL1  H23A 3316   2.318   2.407   7.720  0.6011 -0.7123  0.4640
   45CHL1  H23B 3317   2.439   2.506   7.797 -0.4300 -0.9269  2.3377
   45CHL1   C24 3318   2.290   2.452   7.929 -0.6479 -0.0459 -0.3614
   45CHL1  H24A 3319   2.181   2.432   7.922 -0.4740 -0.3077 -2.5784
   45CHL1  H24B 3320   2.336   2.359   7.970  1.5913  0.6711 -1.1833
   45CHL1   C25 3321   2.295   2.565   8.033 -0.4081 -0.0572 -0.3491
   45CHL1   H25 3322   2.226   2.644   7.996  1.2365  1.8927  0.6393
   45CHL1   C26 3323   2.237   2.519   8.167 -0.1485 -0.0874  0.1266
   45CHL1  H26A 3324   2.237   2.594   8.248  0.9415  0.6412 -0.5358
   45CHL1  H26B 3325   2.128   2.502   8.155  0.1655 -1.9352 -0.2463
   45CHL1  H26C 3326   2.279   2.423   8.203  0.5639  0.1779  0.0163
   45CHL1   C27 3327   2.438   2.637   8.047 -0.3151 -0.2804  0.1384
   45CHL1  H27A 3328   2.463   2.677   7.946  0.2173  1.1379  0.8281
   45CHL1  H27B 3329   2.434   2.719   8.122  0.1879 -0.2284  0.1163
   45CHL1  H27C 3330   2.516   2.561   8.069 -1.0417 -0.7555  1.1014
   46CHL1    C3 3331   1.627   3.609   7.072 -0.3662  0.6225  0.8094
   46CHL1    H3 3332   1.555   3.535   7.112  0.2314 -0.1036  0.5325
   46CHL1    O3 3333   1.593   3.635   6.938  0.2281  0.2479 -0.7061
   46CHL1   H3' 3334   1.616   3.571   6.870 -1.8781 -1.9532  0.5799
   46CHL1    C4 3335   1.617   3.736   7.160 -0.4433 -0.3598 -0.6642
   46CHL1   H4A 3336   1.693   3.814   7.135  0.3555 -1.1190 -0.6283
   46CHL1   H4B 3337   1.521   3.787   7.137  0.2419  1.8128  1.0894
   46CHL1    C5 3338   1.632   3.696   7.306 -0.1964  0.0034  0.5356
   46CHL1    C6 3339   1.527   3.726   7.396  0.1648 -0.5075  0.3080
   46CHL1    H6 3340   1.434   3.758   7.347  0.4136 -2.8144 -1.8191
   46CHL1    C7 3341   1.543   3.704   7.540 -0.2548 -0.1872  0.0165
   46CHL1   H7A 3342   1.497   3.790   7.594  1.0896  0.3759  0.2954
   46CHL1   H7B 3343   1.483   3.614   7.566  1.1578 -0.8553  1.0205
   46CHL1    C8 3344   1.685   3.674   7.577 -0.9005  0.1768  0.0585
   46CHL1    H8 3345   1.743   3.768   7.585  2.3099 -1.8068  0.8984
   46CHL1   C14 3346   1.682   3.616   7.717 -0.4163 -0.6773  0.2180
   46CHL1   H14 3347   1.620   3.524   7.714  0.5686 -1.3100 -1.4068
   46CHL1   C15 3348   1.631   3.703   7.828  0.5771  0.4868  0.0021
   46CHL1  H15A 3349   1.657   3.807   7.799 -0.1774  0.3338 -1.2327
   46CHL1  H15B 3350   1.521   3.693   7.840  0.3309  3.1471  0.3229
   46CHL1   C16 3351   1.691   3.657   7.967 -0.2075 -0.4072 -0.1635
   46CHL1  H16A 3352   1.747   3.740   8.017 -1.2044 -0.0858  0.4464
   46CHL1  H16B 3353   1.616   3.615   8.038 -1.3495  2.1718  0.2328
   46CHL1   C17 3354   1.789   3.542   7.921 -0.7656  0.2556 -0.4058
   46CHL1   H17 3355   1.735   3.445   7.913 -1.2500  0.4313  0.7450
   46CHL1   C13 3356   1.829   3.580   7.771 -0.1629 -0.3676  0.3684
   46CHL1   C18 3357   1.914   3.713   7.772  0.4139  0.9792 -0.7088
   46CHL1  H18A 3358   1.926   3.743   7.666 -1.3232  1.2654 -0.8378
   46CHL1  H18B 3359   1.878   3.788   7.845  0.4480 -0.3127  0.6685
   46CHL1  H18C 3360   2.013   3.681   7.813 -0.0373 -1.0477 -1.1697
   46CHL1   C12 3361   1.886   3.467   7.679  0.0638 -0.3895  0.2364
   46CHL1  H12A 3362   1.992   3.440   7.701 -0.1027  0.7593  2.6649
   46CHL1  H12B 3363   1.823   3.377   7.694 -0.5254 -0.1356 -0.7115
   46CHL1   C11 3364   1.896   3.517   7.536 -0.4683 -0.1897 -0.9063
   46CHL1  H11A 3365   1.971   3.599   7.544 -0.3971 -0.3947  0.6659
   46CHL1  H11B 3366   1.928   3.442   7.461 -2.7574 -1.5650 -0.5394
   46CHL1    C9 3367   1.754   3.577   7.483  0.0600 -0.1667  0.0453
   46CHL1    H9 3368   1.684   3.491   7.484  0.8799 -0.8504  1.4372
   46CHL1   C10 3369   1.763   3.631   7.341 -0.5501  0.7095  0.4255
   46CHL1   C19 3370   1.875   3.739   7.323 -0.0658  0.1911  0.3189
   46CHL1  H19A 3371   1.880   3.811   7.408 -0.8025 -0.3133  0.8004
   46CHL1  H19B 3372   1.974   3.688   7.329  1.6431  3.2357 -0.7567
   46CHL1  H19C 3373   1.886   3.787   7.224 -0.8304 -0.0981  0.0966
   46CHL1    C1 3374   1.790   3.522   7.240  0.0386  0.1140  0.3524
   46CHL1   H1A 3375   1.899   3.503   7.236 -0.0935 -0.9098  1.3519
   46CHL1   H1B 3376   1.740   3.429   7.276  0.2651  0.3419  1.2603
   46CHL1    C2 3377   1.769   3.551   7.087 -0.2971 -0.5814 -0.4398
   46CHL1   H2A 3378   1.777   3.462   7.020 -2.1077 -2.8084  2.1808
   46CHL1   H2B 3379   1.831   3.631   7.040 -0.1802 -0.0920  0.5473
   46CHL1   C20 3380   1.892   3.512   8.030 -0.3536  0.3539  0.2200
   46CHL1   H20 3381   1.956   3.602   8.041  0.1578  0.3059 -2.0894
   46CHL1   C21 3382   1.985   3.396   7.978 -0.5542 -1.0941  0.4676
   46CHL1  H21A 3383   2.037   3.415   7.882  2.5255  2.1785  2.6217
   46CHL1  H21B 3384   1.934   3.299   7.966 -0.8761 -0.8679  0.0199
   46CHL1  H21C 3385   2.073   3.390   8.047  0.1455  2.2957 -0.0047
   46CHL1   C22 3386   1.827   3.479   8.170  0.6458 -0.0822 -0.7560
   46CHL1  H22A 3387   1.739   3.546   8.184  0.7846  0.6745 -3.2306
   46CHL1  H22B 3388   1.787   3.376   8.162 -0.1530  0.0443  1.2740
   46CHL1   C23 3389   1.926   3.501   8.285 -0.1491 -0.1669  0.1993
   46CHL1  H23A 3390   2.021   3.452   8.254 -0.8903 -0.4531 -1.7379
   46CHL1  H23B 3391   1.933   3.612   8.295 -0.0368 -0.2697  1.2885
   46CHL1   C24 3392   1.860   3.446   8.411  0.8368  0.7288 -0.0643
   46CHL1  H24A 3393   1.789   3.524   8.445 -1.9916 -1.3491 -1.0221
   46CHL1  H24B 3394   1.817   3.344   8.398 -1.8807  1.6802  1.1574
   46CHL1   C25 3395   1.956   3.436   8.535  0.8816  0.4223 -0.0974
   46CHL1   H25 3396   1.998   3.539   8.536  1.9762 -0.0294  1.9310
   46CHL1   C26 3397   1.883   3.422   8.673 -0.8388  0.1762 -1.0599
   46CHL1  H26A 3398   1.953   3.433   8.758  0.1599  1.8829 -2.0894
   46CHL1  H26B 3399   1.810   3.504   8.687 -1.3902 -0.4434 -0.2441
   46CHL1  H26C 3400   1.835   3.321   8.674  0.4972 -0.4727  1.2894
   46CHL1   C27 3401   2.063   3.328   8.517  0.0551  0.2751  0.3732
   46CHL1  H27A 3402   2.137   3.326   8.600  0.7604  3.2069 -0.1302
   46CHL1  H27B 3403   2.015   3.227   8.519 -1.5400  1.0254  1.8132
   46CHL1  H27C 3404   2.106   3.352   8.418 -0.9714 -0.6960 -0.3355
   47CHL1    C3 3405   0.995   3.651   6.756 -0.6502  0.0281  0.1158
   47CHL1    H3 3406   1.064   3.736   6.737 -3.2001  2.4809  1.4354
   47CHL1    O3 3407   0.983   3.603   6.624 -0.0401  0.2707  0.0022
   47CHL1   H3' 3408   0.890   3.581   6.620 -0.4349  1.5587  1.4920
   47CHL1    C4 3409   1.071   3.555   6.851 -0.2698  0.9579 -0.5005
   47CHL1   H4A 3410   1.043   3.451   6.823 -3.3219  1.6460 -0.2649
   47CHL1   H4B 3411   1.176   3.569   6.818  0.3432  0.9020  1.4116
   47CHL1    C5 3412   1.053   3.580   7.000  1.3155  0.1562  0.2017
   47CHL1    C6 3413   1.162   3.579   7.081 -0.1371 -0.1510 -0.0725
   47CHL1    H6 3414   1.258   3.548   7.036 -0.3894 -1.5448  0.3284
   47CHL1    C7 3415   1.159   3.615   7.227  0.1763 -0.3233  0.4243
   47CHL1   H7A 3416   1.219   3.549   7.292  1.0420  1.1455  1.1337
   47CHL1   H7B 3417   1.205   3.716   7.236 -1.2446  0.2701  1.2656
   47CHL1    C8 3418   1.022   3.600   7.289  0.3973 -0.8434 -0.4949
   47CHL1    H8 3419   0.981   3.497   7.286  0.5284 -0.8741 -1.7419
   47CHL1   C14 3420   1.034   3.664   7.422 -0.8444 -0.1774 -0.2455
   47CHL1   H14 3421   1.067   3.764   7.388 -2.7017  0.2611 -0.8487
   47CHL1   C15 3422   1.138   3.610   7.522 -0.0139 -0.2507  0.1005
   47CHL1  H15A 3423   1.146   3.500   7.530 -2.3959 -0.3854  0.7835
   47CHL1  H15B 3424   1.241   3.652   7.515  0.1849 -0.8804 -0.8266
   47CHL1   C16 3425   1.087   3.665   7.657  0.8619  0.2809 -0.4858
   47CHL1  H16A 3426   1.081   3.584   7.733  0.3805  1.1938  0.4570
   47CHL1  H16B 3427   1.157   3.744   7.694  1.7471  0.3191 -2.2258
   47CHL1   C17 3428   0.943   3.729   7.635  0.2544  0.5069 -0.3883
   47CHL1   H17 3429   0.954   3.839   7.627  3.1572  0.4421  2.0640
   47CHL1   C13 3430   0.900   3.671   7.497 -0.1052  0.2245 -0.5343
   47CHL1   C18 3431   0.850   3.526   7.525 -0.7736 -1.1433 -0.6442
   47CHL1  H18A 3432   0.751   3.525   7.574 -0.5274 -1.4861 -0.1571
   47CHL1  H18B 3433   0.848   3.468   7.430 -1.8578 -1.5537 -0.3662
   47CHL1  H18C 3434   0.933   3.474   7.578  0.8915  1.5374 -0.5367
   47CHL1   C12 3435   0.800   3.749   7.419 -0.2405 -0.4205 -0.0670
   47CHL1  H12A 3436   0.696   3.753   7.457 -0.1570  0.4534  0.0806
   47CHL1  H12B 3437   0.829   3.855   7.400 -1.3109 -0.3035 -1.0831
   47CHL1   C11 3438   0.792   3.692   7.282  0.1584  0.3252  0.2685
   47CHL1  H11A 3439   0.774   3.584   7.302  3.8144 -0.3341  0.3369
   47CHL1  H11B 3440   0.711   3.734   7.218  0.7582  0.5638 -0.3499
   47CHL1    C9 3441   0.926   3.680   7.206  0.1338 -0.3720  0.5841
   47CHL1    H9 3442   0.973   3.780   7.189  0.4976 -0.5631  0.4617
   47CHL1   C10 3443   0.912   3.621   7.058 -0.3130 -0.9040  0.5714
   47CHL1   C19 3444   0.809   3.505   7.059 -0.0580 -0.0349 -0.1521
   47CHL1  H19A 3445   0.846   3.427   7.129  0.5073  1.4051  1.1668
   47CHL1  H19B 3446   0.709   3.542   7.090  0.7806  1.4891  0.7929
   47CHL1  H19C 3447   0.803   3.459   6.958  1.7389  2.2959 -1.3719
   47CHL1    C1 3448   0.868   3.730   6.959 -0.5481  0.0847 -0.7073
   47CHL1   H1A 3449   0.767   3.768   6.985 -0.0186  1.7096 -0.9862
   47CHL1   H1B 3450   0.939   3.815   6.964 -1.0346  0.4127  1.3138
   47CHL1    C2 3451   0.859   3.688   6.813 -0.2736  0.3269  0.5669
   47CHL1   H2A 3452   0.825   3.781   6.762  2.6938  1.2431  0.1992
   47CHL1   H2B 3453   0.782   3.608   6.800  0.5307 -0.5218  1.0070
   47CHL1   C20 3454   0.861   3.715   7.765 -0.1911  0.4311 -0.6264
   47CHL1   H20 3455   0.832   3.610   7.788  0.5939  0.8897  2.7984
   47CHL1   C21 3456   0.719   3.775   7.760 -0.6562  0.0509  0.4254
   47CHL1  H21A 3457   0.713   3.885   7.766 -0.1652  0.0556  0.8789
   47CHL1  H21B 3458   0.651   3.730   7.836  0.4309 -1.7578  0.3658
   47CHL1  H21C 3459   0.672   3.755   7.661 -0.2463 -1.2773  0.4906
   47CHL1   C22 3460   0.935   3.765   7.895  0.0702  0.1370  0.1331
   47CHL1  H22A 3461   0.863   3.768   7.980 -0.1002 -2.9773  0.1537
   47CHL1  H22B 3462   1.007   3.689   7.931  0.0903 -0.5578 -1.3507
   47CHL1   C23 3463   0.998   3.901   7.877  0.1085  0.5452  0.8369
   47CHL1  H23A 3464   1.070   3.907   7.793  2.3343  0.2418  2.6747
   47CHL1  H23B 3465   0.909   3.963   7.854  1.0063  1.3357 -0.6365
   47CHL1   C24 3466   1.075   3.968   7.989 -0.0379 -0.5493  0.5550
   47CHL1  H24A 3467   1.160   3.904   8.023  0.3071 -0.4404 -0.0825
   47CHL1  H24B 3468   1.116   4.063   7.948 -2.1747 -1.3197 -3.6380
   47CHL1   C25 3469   0.996   4.001   8.118  0.5075 -0.3006  0.3947
   47CHL1   H25 3470   0.937   3.912   8.148  1.2405 -0.4217  1.4942
   47CHL1   C26 3471   1.083   4.051   8.233  0.3152 -0.0673  0.6516
   47CHL1  H26A 3472   1.141   4.142   8.208 -1.1242  0.5960 -0.3442
   47CHL1  H26B 3473   1.037   4.040   8.333  0.5569 -0.6594  0.6992
   47CHL1  H26C 3474   1.164   3.974   8.238  0.8149  0.1061 -2.9407
   47CHL1   C27 3475   0.890   4.108   8.094 -0.4671 -0.2157  0.5952
   47CHL1  H27A 3476   0.804   4.063   8.041 -1.3222  1.9674  0.0706
   47CHL1  H27B 3477   0.857   4.154   8.190  0.3009  0.3337  0.6045
   47CHL1  H27C 3478   0.935   4.193   8.037 -0.5227  0.1396  1.0767
   48CHL1    C3 3479   4.922   5.850   6.418 -0.0684 -0.6667 -0.9424
   48CHL1    H3 3480   4.966   5.751   6.445 -1.5615 -1.4173 -1.2192
   48CHL1    O3 3481   4.959   5.868   6.283 -0.1401  0.1819  0.4521
   48CHL1   H3' 3482   4.880   5.876   6.229  0.3677 -0.8963 -0.4755
   48CHL1    C4 3483   4.771   5.847   6.439  0.1394  0.4971  0.2911
   48CHL1   H4A 3484   4.731   5.942   6.396 -2.5107 -1.2036 -1.1714
   48CHL1   H4B 3485   4.715   5.770   6.381 -1.4565  1.7329  0.1454
   48CHL1    C5 3486   4.731   5.836   6.587  0.1960  0.6964  0.1686
   48CHL1    C6 3487   4.659   5.730   6.637  0.2888  0.0985 -0.2842
   48CHL1    H6 3488   4.611   5.662   6.566  0.7037 -1.3164  0.7846
   48CHL1    C7 3489   4.626   5.712   6.780  0.2349 -0.6608  0.0665
   48CHL1   H7A 3490   4.520   5.684   6.801 -0.5398  1.6190 -0.6259
   48CHL1   H7B 3491   4.684   5.630   6.828  1.4323  1.2564  1.9496
   48CHL1    C8 3492   4.661   5.829   6.873  0.2712 -0.3131  0.7152
   48CHL1    H8 3493   4.568   5.889   6.861  0.6720  0.2530  0.3976
   48CHL1   C14 3494   4.663   5.797   7.027 -0.4631  0.4090  0.2726
   48CHL1   H14 3495   4.751   5.730   7.042 -1.7305 -0.7541  2.8235
   48CHL1   C15 3496   4.540   5.718   7.077  0.2610 -0.8430  0.3444
   48CHL1  H15A 3497   4.446   5.766   7.042  0.4983 -0.9864 -0.4987
   48CHL1  H15B 3498   4.542   5.614   7.040  1.6365  0.1909 -2.5817
   48CHL1   C16 3499   4.547   5.736   7.234  0.1121  0.7500  0.4864
   48CHL1  H16A 3500   4.443   5.768   7.256  0.4653  1.0826  1.6817
   48CHL1  H16B 3501   4.572   5.646   7.295 -1.9621 -0.2039 -0.0082
   48CHL1   C17 3502   4.653   5.848   7.256 -0.0122 -0.5517 -0.5368
   48CHL1   H17 3503   4.750   5.800   7.280  1.1754  2.3786  0.7908
   48CHL1   C13 3504   4.684   5.913   7.118  0.1361 -0.4060 -0.1178
   48CHL1   C18 3505   4.572   6.019   7.098  0.3079  0.7941 -0.1437
   48CHL1  H18A 3506   4.538   6.043   6.995  1.2825  1.3966 -0.3410
   48CHL1  H18B 3507   4.478   5.994   7.150 -0.7461  3.0296 -0.9080
   48CHL1  H18C 3508   4.612   6.113   7.143  1.0301  1.3929 -1.9844
   48CHL1   C12 3509   4.815   5.975   7.074  0.2394 -0.3722 -0.3569
   48CHL1  H12A 3510   4.832   6.059   7.145  0.3480 -1.3068  0.7215
   48CHL1  H12B 3511   4.895   5.901   7.092 -1.8120 -2.2778  1.2616
   48CHL1   C11 3512   4.832   6.019   6.932  0.5505  0.1954 -0.8318
   48CHL1  H11A 3513   4.769   6.109   6.913 -1.8100 -1.2149  0.0075
   48CHL1  H11B 3514   4.939   6.041   6.913  1.0658 -1.8717 -0.4522
   48CHL1    C9 3515   4.787   5.906   6.831 -0.4741  0.5135 -0.2016
   48CHL1    H9 3516   4.855   5.819   6.838 -1.8227 -0.6088 -0.6148
   48CHL1   C10 3517   4.800   5.945   6.680 -0.4889 -0.0138  0.3253
   48CHL1   C19 3518   4.737   6.085   6.644  0.6180  0.1913 -1.0256
   48CHL1  H19A 3519   4.799   6.162   6.695  0.1150 -0.2486  0.2609
   48CHL1  H19B 3520   4.754   6.086   6.534  0.9454 -3.5835 -1.0738
   48CHL1  H19C 3521   4.628   6.100   6.664  0.7671 -0.6742  0.5366
   48CHL1    C1 3522   4.953   5.943   6.649  0.1271 -0.3477  0.0915
   48CHL1   H1A 3523   4.996   6.029   6.704  1.3974 -0.9677  0.0786
   48CHL1   H1B 3524   4.986   5.847   6.694 -0.3354 -0.1925  0.7720
   48CHL1    C2 3525   4.995   5.958   6.494 -0.4475 -0.6010  0.4898
   48CHL1   H2A 3526   5.103   5.939   6.475 -0.1452  1.7088 -0.3461
   48CHL1   H2B 3527   4.975   6.061   6.457 -1.8571 -0.8640  0.5267
   48CHL1   C20 3528   4.615   5.926   7.383 -0.4372  0.2079  0.3624
   48CHL1   H20 3529   4.510   5.961   7.377 -0.5652 -0.2183  0.0904
   48CHL1   C21 3530   4.703   6.054   7.404  0.5177  0.1264  0.5771
   48CHL1  H21A 3531   4.689   6.123   7.317  1.5288  0.0556  0.3560
   48CHL1  H21B 3532   4.807   6.016   7.406  0.3061 -0.5013  0.0095
   48CHL1  H21C 3533   4.668   6.109   7.494 -0.2077 -2.3968  1.8674
   48CHL1   C22 3534   4.617   5.838   7.514 -0.2502  0.3988  0.6150
   48CHL1  H22A 3535   4.523   5.779   7.508 -0.1765  0.1176  2.0055
   48CHL1  H22B 3536   4.702   5.766   7.512 -0.2163  0.3044  3.6137
   48CHL1   C23 3537   4.618   5.909   7.649  0.2597  0.1100 -0.5455
   48CHL1  H23A 3538   4.715   5.962   7.661 -0.1333  0.4418  1.1756
   48CHL1  H23B 3539   4.538   5.984   7.661  0.5813  0.1740  1.4041
   48CHL1   C24 3540   4.610   5.808   7.766 -0.0690 -0.1018  0.6462
   48CHL1  H24A 3541   4.506   5.770   7.769 -0.8165  1.8635  0.5830
   48CHL1  H24B 3542   4.677   5.720   7.752  1.4636  0.9827  1.0422
   48CHL1   C25 3543   4.640   5.855   7.905 -0.4602  0.2008  0.1212
   48CHL1   H25 3544   4.750   5.869   7.905 -0.5045  0.5807  0.7518
   48CHL1   C26 3545   4.566   5.986   7.938  0.2347 -0.1382  0.3851
   48CHL1  H26A 3546   4.599   6.066   7.870 -2.6288  0.4750 -0.3371
   48CHL1  H26B 3547   4.456   5.971   7.942  0.2363  0.1222  1.7037
   48CHL1  H26C 3548   4.583   6.023   8.042 -2.0867  1.9229  0.0560
   48CHL1   C27 3549   4.625   5.753   8.014  0.2455  0.2185 -0.8500
   48CHL1  H27A 3550   4.631   5.790   8.119 -2.4492 -4.4213  1.0915
   48CHL1  H27B 3551   4.525   5.705   8.008  0.3977 -0.1710 -0.3530
   48CHL1  H27C 3552   4.703   5.674   8.014  0.6828  0.6448  0.5024
   49CHL1    C3 3553   3.487   0.144   6.775 -0.5357  0.1289  0.4920
   49CHL1    H3 3554   3.380   0.138   6.805 -0.6852  1.5440  0.2827
   49CHL1    O3 3555   3.490   0.154   6.635  0.2296 -1.4397  0.4248
   49CHL1   H3' 3556   3.405   0.120   6.607  1.2101 -2.4678 -1.4202
   49CHL1    C4 3557   3.543   0.274   6.843 -0.1032 -0.1196  0.3885
   49CHL1   H4A 3558   3.650   0.296   6.826 -0.3965  1.7066  0.8026
   49CHL1   H4B 3559   3.488   0.358   6.795 -1.1112 -0.8736  0.1947
   49CHL1    C5 3560   3.521   0.264   6.991 -0.7109  0.4805 -0.2807
   49CHL1    C6 3561   3.447   0.350   7.060  0.1135  0.2350 -0.4941
   49CHL1    H6 3562   3.402   0.430   6.999  1.7204  0.1321 -1.8586
   49CHL1    C7 3563   3.424   0.341   7.207  0.5519 -0.0935 -0.3255
   49CHL1   H7A 3564   3.434   0.447   7.238 -0.9043  0.4877 -1.8027
   49CHL1   H7B 3565   3.325   0.297   7.231 -0.1929  0.0317 -3.0931
   49CHL1    C8 3566   3.533   0.253   7.280  0.1808  0.8615 -0.0155
   49CHL1    H8 3567   3.627   0.311   7.273 -1.1939  2.8463 -3.0680
   49CHL1   C14 3568   3.480   0.222   7.423  0.3194 -0.1108 -0.6614
   49CHL1   H14 3569   3.388   0.160   7.415  1.5733 -2.0506 -0.5201
   49CHL1   C15 3570   3.447   0.343   7.505  0.5784 -0.8509 -0.3383
   49CHL1  H15A 3571   3.506   0.429   7.466  0.5801 -0.4165  0.6040
   49CHL1  H15B 3572   3.339   0.371   7.499  1.2574  2.1199  0.7572
   49CHL1   C16 3573   3.486   0.308   7.647  0.0605 -0.1859  0.2349
   49CHL1  H16A 3574   3.547   0.379   7.706  0.6606 -2.2667  2.1746
   49CHL1  H16B 3575   3.390   0.316   7.703 -0.0953 -3.2246  0.4972
   49CHL1   C17 3576   3.522   0.160   7.647  0.3753  0.8050 -0.9492
   49CHL1   H17 3577   3.427   0.104   7.664  0.5011  1.0105  0.4298
   49CHL1   C13 3578   3.580   0.135   7.505 -0.0374 -0.1353 -0.0094
   49CHL1   C18 3579   3.728   0.191   7.502  0.2972 -0.1669  0.8030
   49CHL1  H18A 3580   3.794   0.115   7.550  0.0805 -0.0940  1.2101
   49CHL1  H18B 3581   3.775   0.211   7.403 -0.7844  0.5110  0.4198
   49CHL1  H18C 3582   3.720   0.283   7.563  0.5990 -1.0141  2.1515
   49CHL1   C12 3583   3.567  -0.005   7.441  0.2481  0.0187  1.1687
   49CHL1  H12A 3584   3.620  -0.090   7.488  0.7007 -1.6825 -2.2458
   49CHL1  H12B 3585   3.460  -0.034   7.434 -0.9770  4.6458 -2.0074
   49CHL1   C11 3586   3.612   0.006   7.288  0.1639  0.3441 -0.1029
   49CHL1  H11A 3587   3.721   0.025   7.288 -0.1285  2.0512 -0.1405
   49CHL1  H11B 3588   3.597  -0.095   7.242 -0.1028 -0.1413  1.0327
   49CHL1    C9 3589   3.542   0.119   7.209  0.0245 -0.4640 -0.0180
   49CHL1    H9 3590   3.437   0.089   7.191 -0.5041 -1.2593  3.9137
   49CHL1   C10 3591   3.595   0.137   7.059  0.9987 -0.4635 -0.0746
   49CHL1   C19 3592   3.749   0.163   7.053  0.0514  0.0139 -0.8880
   49CHL1  H19A 3593   3.762   0.257   7.110 -1.0523  0.4621 -1.3640
   49CHL1  H19B 3594   3.808   0.080   7.099 -0.7642 -0.2790 -0.3622
   49CHL1  H19C 3595   3.787   0.168   6.949 -2.9614 -2.2202 -2.1545
   49CHL1    C1 3596   3.563   0.010   6.977  0.0837  0.8819  0.5686
   49CHL1   H1A 3597   3.640  -0.061   7.015  2.0063  2.1180 -0.9184
   49CHL1   H1B 3598   3.459  -0.020   6.999 -0.4453  2.5493  0.4487
   49CHL1    C2 3599   3.567   0.024   6.825 -0.3726 -0.4952  0.4899
   49CHL1   H2A 3600   3.540  -0.063   6.761  2.2239  0.1314 -1.5437
   49CHL1   H2B 3601   3.672   0.047   6.797 -0.5620 -0.5178 -0.2589
   49CHL1   C20 3602   3.617   0.121   7.768  0.0745  0.0386  0.7150
   49CHL1   H20 3603   3.715   0.172   7.758 -0.1793  0.5661  0.9125
   49CHL1   C21 3604   3.649  -0.027   7.762 -1.0501  0.6412  0.1021
   49CHL1  H21A 3605   3.699  -0.066   7.854 -1.3796  0.5330  0.2379
   49CHL1  H21B 3606   3.716  -0.050   7.677 -0.8704 -1.3182  0.7284
   49CHL1  H21C 3607   3.551  -0.079   7.752 -1.9104  2.0517  1.0181
   49CHL1   C22 3608   3.550   0.158   7.902  0.0332  0.6273 -0.1187
   49CHL1  H22A 3609   3.509   0.262   7.902 -1.1500  0.1990 -2.0056
   49CHL1  H22B 3610   3.463   0.089   7.903 -0.4549  1.2228 -0.5011
   49CHL1   C23 3611   3.643   0.139   8.020  0.5515  0.8320  0.2672
   49CHL1  H23A 3612   3.654   0.033   8.053  0.1752  1.1175  1.3497
   49CHL1  H23B 3613   3.745   0.180   8.001 -0.0423  2.8406  1.3079
   49CHL1   C24 3614   3.590   0.224   8.142  0.6855  0.3293  0.1066
   49CHL1  H24A 3615   3.663   0.206   8.224  0.5638 -0.7653 -0.0141
   49CHL1  H24B 3616   3.578   0.333   8.125  1.4754  0.3256 -0.4832
   49CHL1   C25 3617   3.446   0.174   8.184 -0.4306 -0.8050 -0.5413
   49CHL1   H25 3618   3.376   0.193   8.100 -0.3942  2.6473  0.1698
   49CHL1   C26 3619   3.440   0.019   8.210 -0.4253 -0.6667 -0.0839
   49CHL1  H26A 3620   3.347  -0.002   8.268 -0.6917 -1.8594 -0.9277
   49CHL1  H26B 3621   3.434  -0.043   8.118 -0.4502  0.6789 -0.9949
   49CHL1  H26C 3622   3.534  -0.002   8.266  1.8195  3.6054 -2.0001
   49CHL1   C27 3623   3.391   0.248   8.313 -0.3522  0.0271 -0.2690
   49CHL1  H27A 3624   3.388   0.358   8.293  0.7604  0.0257 -0.4982
   49CHL1  H27B 3625   3.288   0.211   8.330 -0.6855 -0.0093 -2.1741
   49CHL1  H27C 3626   3.459   0.215   8.394  0.2524 -2.9140 -1.8792
   50CHL1    C3 3627   4.732   0.999   6.726 -0.4644  0.1762 -0.0242
   50CHL1    H3 3628   4.720   0.911   6.792 -3.0023  1.5705  1.4138
   50CHL1    O3 3629   4.728   0.963   6.592 -0.3569  0.7404 -0.7481
   50CHL1   H3' 3630   4.790   0.890   6.586  0.5214  1.2365  1.7375
   50CHL1    C4 3631   4.617   1.097   6.759  0.5774 -0.4747  0.4579
   50CHL1   H4A 3632   4.629   1.178   6.684  0.5409  0.4659  1.4467
   50CHL1   H4B 3633   4.519   1.053   6.731  0.2706 -0.5776  1.6523
   50CHL1    C5 3634   4.606   1.144   6.903  0.8672  0.6100  0.1424
   50CHL1    C6 3635   4.499   1.120   6.973 -0.0587 -0.4042 -0.0995
   50CHL1    H6 3636   4.406   1.075   6.933 -0.6139  0.8245 -0.1954
   50CHL1    C7 3637   4.487   1.159   7.115 -0.7763  0.7189  0.3649
   50CHL1   H7A 3638   4.392   1.215   7.127 -1.7544 -0.8618  0.2359
   50CHL1   H7B 3639   4.477   1.063   7.170  3.8001  1.0758  2.0370
   50CHL1    C8 3640   4.603   1.241   7.171 -0.1834 -0.0221 -0.7728
   50CHL1    H8 3641   4.574   1.347   7.158  0.4594  0.2416 -0.0910
   50CHL1   C14 3642   4.615   1.220   7.323  0.1936  0.2212  0.8855
   50CHL1   H14 3643   4.648   1.115   7.341 -1.1699  0.0750  2.6299
   50CHL1   C15 3644   4.485   1.232   7.410  0.6193  0.6197 -0.3678
   50CHL1  H15A 3645   4.425   1.319   7.377 -0.5023 -0.4700 -1.2328
   50CHL1  H15B 3646   4.438   1.131   7.409  2.0976 -0.1141  1.0134
   50CHL1   C16 3647   4.540   1.272   7.549  0.6060 -0.8095 -0.7278
   50CHL1  H16A 3648   4.493   1.370   7.570  0.2893 -1.0674 -0.2395
   50CHL1  H16B 3649   4.506   1.209   7.633  2.7083 -0.2688  0.5567
   50CHL1   C17 3650   4.700   1.285   7.528 -0.3278 -0.7814 -0.2742
   50CHL1   H17 3651   4.740   1.182   7.532 -0.1916 -0.7254 -0.1561
   50CHL1   C13 3652   4.717   1.312   7.378  0.2458  0.9080 -0.2164
   50CHL1   C18 3653   4.678   1.460   7.356 -0.2213  0.1160  0.0013
   50CHL1  H18A 3654   4.697   1.490   7.250  0.2012 -1.2502 -0.3200
   50CHL1  H18B 3655   4.576   1.488   7.393  0.3895 -0.1813  1.9492
   50CHL1  H18C 3656   4.750   1.529   7.405 -2.9413  1.4964  2.2277
   50CHL1   C12 3657   4.856   1.287   7.313  0.2652 -0.1621  0.0977
   50CHL1  H12A 3658   4.929   1.360   7.354 -1.1418  0.6843  1.1617
   50CHL1  H12B 3659   4.878   1.179   7.329  2.5111  0.3500  0.6993
   50CHL1   C11 3660   4.857   1.302   7.158  0.0804  0.0807  0.0041
   50CHL1  H11A 3661   4.859   1.411   7.136  0.6265  0.7264  3.0311
   50CHL1  H11B 3662   4.948   1.257   7.115  0.2841  0.4835  0.0097
   50CHL1    C9 3663   4.743   1.212   7.097  0.8035  0.3633 -0.4186
   50CHL1    H9 3664   4.761   1.111   7.140 -0.5304  0.5749  0.7001
   50CHL1   C10 3665   4.732   1.210   6.948  0.3570 -0.4179 -0.1444
   50CHL1   C19 3666   4.752   1.352   6.884 -0.4657 -0.5718  0.5823
   50CHL1  H19A 3667   4.745   1.349   6.773 -1.3585 -1.1863  0.6449
   50CHL1  H19B 3668   4.679   1.418   6.936  1.0224 -0.0133  2.0125
   50CHL1  H19C 3669   4.847   1.400   6.914 -0.6295 -1.1285  2.0481
   50CHL1    C1 3670   4.852   1.110   6.903 -0.0843  0.1102 -0.7695
   50CHL1   H1A 3671   4.951   1.157   6.918  0.6565 -0.9395 -2.2577
   50CHL1   H1B 3672   4.850   1.017   6.964  1.8030 -1.7579 -3.4191
   50CHL1    C2 3673   4.864   1.061   6.758  0.4756  0.7912  0.2355
   50CHL1   H2A 3674   4.945   0.985   6.758  0.4332  0.7398 -0.4398
   50CHL1   H2B 3675   4.887   1.136   6.680  0.1493 -1.5475 -2.2009
   50CHL1   C20 3676   4.772   1.372   7.631 -0.6275 -0.1341 -0.1172
   50CHL1   H20 3677   4.790   1.476   7.597  2.3703 -1.3150 -2.3925
   50CHL1   C21 3678   4.914   1.313   7.658 -0.3462  0.2199  0.5379
   50CHL1  H21A 3679   4.909   1.207   7.692 -1.0449  0.1091  0.1072
   50CHL1  H21B 3680   4.975   1.384   7.719  0.2268  1.1451 -1.0810
   50CHL1  H21C 3681   4.956   1.311   7.556  0.4132  0.6434  0.8362
   50CHL1   C22 3682   4.697   1.393   7.764 -0.0562  0.3921 -0.1721
   50CHL1  H22A 3683   4.602   1.450   7.759  1.4072  2.9054 -0.1579
   50CHL1  H22B 3684   4.676   1.293   7.807  1.3435 -0.4979 -1.4891
   50CHL1   C23 3685   4.779   1.474   7.862 -1.1041  0.1895  0.4396
   50CHL1  H23A 3686   4.875   1.423   7.887  1.7755  2.2707 -5.3817
   50CHL1  H23B 3687   4.801   1.563   7.798 -0.4204 -0.0598  0.3259
   50CHL1   C24 3688   4.696   1.515   7.976 -0.0492 -0.1990 -0.9499
   50CHL1  H24A 3689   4.615   1.589   7.958 -1.9214 -2.2009 -0.9859
   50CHL1  H24B 3690   4.636   1.428   8.011  0.1273  0.3471  0.7890
   50CHL1   C25 3691   4.777   1.561   8.094 -0.2824  0.3903 -0.2711
   50CHL1   H25 3692   4.846   1.638   8.053  1.6984 -1.8440 -1.3107
   50CHL1   C26 3693   4.683   1.634   8.187 -0.7768  0.1013  0.3770
   50CHL1  H26A 3694   4.623   1.705   8.127  1.7882 -0.6783 -3.2539
   50CHL1  H26B 3695   4.623   1.565   8.250  0.3153  0.2208  1.5848
   50CHL1  H26C 3696   4.739   1.690   8.266 -0.6222 -1.5597  1.4782
   50CHL1   C27 3697   4.849   1.443   8.163 -0.2155  0.0069 -0.0164
   50CHL1  H27A 3698   4.777   1.375   8.214 -1.7949  1.5203 -0.1717
   50CHL1  H27B 3699   4.903   1.381   8.088 -1.1841  0.2968 -0.9650
   50CHL1  H27C 3700   4.923   1.484   8.235  0.2656 -1.6391  0.4508
   51CHL1    C3 3701   4.766   0.320   6.736 -0.3514  0.3769 -0.7568
   51CHL1    H3 3702   4.875   0.304   6.718  0.5031  3.0116  1.6431
   51CHL1    O3 3703   4.710   0.319   6.605 -0.2009  0.2748  0.3382
   51CHL1   H3' 3704   4.772   0.371   6.553  0.5331 -0.6352  0.2996
   51CHL1    C4 3705   4.703   0.223   6.834 -0.1418  0.1126 -0.4643
   51CHL1   H4A 3706   4.594   0.247   6.829  0.4366  2.4306 -3.2224
   51CHL1   H4B 3707   4.717   0.126   6.781  2.0024  0.0446  0.2019
   51CHL1    C5 3708   4.763   0.236   6.974  0.3039  0.7078 -0.2447
   51CHL1    C6 3709   4.830   0.133   7.025 -0.5407 -0.3433 -0.1149
   51CHL1    H6 3710   4.818   0.036   6.975 -1.1596 -0.1206 -0.4059
   51CHL1    C7 3711   4.887   0.140   7.166 -0.0344 -0.1094 -0.2179
   51CHL1   H7A 3712   4.878   0.042   7.216  3.5745 -0.3493  0.1279
   51CHL1   H7B 3713   4.996   0.161   7.162 -0.5702  3.3972  1.5298
   51CHL1    C8 3714   4.836   0.259   7.247  0.3047  0.4684 -0.4651
   51CHL1    H8 3715   4.730   0.227   7.258  0.6725 -0.2914  1.1765
   51CHL1   C14 3716   4.919   0.267   7.376 -0.3486  0.4105 -0.0323
   51CHL1   H14 3717   5.027   0.275   7.351  0.0308  0.3462  1.5542
   51CHL1   C15 3718   4.930   0.145   7.470  0.4658 -0.3868  0.0204
   51CHL1  H15A 3719   4.826   0.122   7.504  0.1741  0.2205 -0.4534
   51CHL1  H15B 3720   4.991   0.066   7.420  0.8291 -0.6398  0.8632
   51CHL1   C16 3721   4.995   0.212   7.592 -0.3841  0.5785  0.4778
   51CHL1  H16A 3722   4.945   0.173   7.683 -0.8300 -2.0371 -0.8487
   51CHL1  H16B 3723   5.103   0.184   7.599  0.1101  1.9899 -1.1140
   51CHL1   C17 3724   4.983   0.370   7.581 -0.4704 -0.6113  0.2554
   51CHL1   H17 3725   5.080   0.412   7.549 -1.6437  0.9772 -1.3579
   51CHL1   C13 3726   4.887   0.392   7.461 -0.7588  0.2604  0.2888
   51CHL1   C18 3727   4.743   0.375   7.514  0.2993  0.1834 -0.9042
   51CHL1  H18A 3728   4.688   0.328   7.430 -0.6081 -0.5008  0.0777
   51CHL1  H18B 3729   4.738   0.309   7.603 -1.6988  3.3313  1.4213
   51CHL1  H18C 3730   4.707   0.473   7.553  0.5004 -0.6419  1.3891
   51CHL1   C12 3731   4.913   0.521   7.381 -0.0265  0.8505 -0.2754
   51CHL1  H12A 3732   4.895   0.609   7.446 -0.5489  0.3298  0.2857
   51CHL1  H12B 3733   5.020   0.504   7.354 -0.3329 -2.4893  0.3611
   51CHL1   C11 3734   4.826   0.516   7.253  0.1806 -0.1551 -0.6824
   51CHL1  H11A 3735   4.720   0.528   7.281 -0.0308  0.6703 -1.7806
   51CHL1  H11B 3736   4.852   0.602   7.187 -1.1201 -2.2364 -4.0290
   51CHL1    C9 3737   4.849   0.382   7.163 -0.1120 -0.2542  0.7059
   51CHL1    H9 3738   4.953   0.379   7.124 -0.2639 -2.2576  0.4196
   51CHL1   C10 3739   4.758   0.378   7.035 -0.3402  0.4009  0.3613
   51CHL1   C19 3740   4.615   0.415   7.080 -0.4419 -0.6569  0.3527
   51CHL1  H19A 3741   4.552   0.391   6.991 -2.4727 -1.6611  2.0140
   51CHL1  H19B 3742   4.579   0.349   7.162 -1.5900 -0.2519  0.1897
   51CHL1  H19C 3743   4.601   0.522   7.104  2.7360 -0.0309 -0.3621
   51CHL1    C1 3744   4.806   0.482   6.926 -0.2903  0.4759  0.1464
   51CHL1   H1A 3745   4.789   0.584   6.966 -0.2127  0.6525 -0.2668
   51CHL1   H1B 3746   4.916   0.471   6.912 -0.1371  0.1219  1.5463
   51CHL1    C2 3747   4.738   0.462   6.793 -0.7366  0.9553 -0.0071
   51CHL1   H2A 3748   4.796   0.529   6.726 -0.7525  0.1122 -0.8853
   51CHL1   H2B 3749   4.628   0.472   6.797 -0.8914 -0.8539  0.9111
   51CHL1   C20 3750   4.960   0.425   7.720  0.6298 -0.8753  0.0175
   51CHL1   H20 3751   4.873   0.368   7.761  0.6268  0.1312  1.4404
   51CHL1   C21 3752   4.944   0.578   7.723 -0.2318  0.2236 -0.7557
   51CHL1  H21A 3753   4.941   0.617   7.827 -0.5341  0.6935 -0.9423
   51CHL1  H21B 3754   4.847   0.603   7.676 -1.3465 -1.2898  0.6722
   51CHL1  H21C 3755   5.016   0.639   7.665 -1.1240  1.1368 -0.9029
   51CHL1   C22 3756   5.077   0.393   7.819  0.6776  0.0714  0.6748
   51CHL1  H22A 3757   5.101   0.287   7.795  1.1359  0.1868  0.6356
   51CHL1  H22B 3758   5.161   0.460   7.793 -0.6429  1.1258 -1.0195
   51CHL1   C23 3759   5.029   0.399   7.970  0.6773  0.0923  0.1329
   51CHL1  H23A 3760   5.002   0.504   7.997  0.0021 -0.7667  2.9496
   51CHL1  H23B 3761   4.934   0.344   7.987  1.4058 -1.0744  0.5088
   51CHL1   C24 3762   5.139   0.349   8.059 -0.3979 -0.6314  0.0401
   51CHL1  H24A 3763   5.177   0.256   8.011  0.2106  0.1106 -0.9314
   51CHL1  H24B 3764   5.228   0.415   8.055 -1.9283  1.5500  1.4966
   51CHL1   C25 3765   5.091   0.333   8.203  0.0335 -0.0549  0.1018
   51CHL1   H25 3766   4.989   0.289   8.200  0.1776 -0.5603  1.8522
   51CHL1   C26 3767   5.190   0.242   8.282  0.2855 -0.4992  0.4349
   51CHL1  H26A 3768   5.212   0.147   8.229  0.0619 -0.9465  1.1281
   51CHL1  H26B 3769   5.285   0.296   8.301  0.3052 -0.6120  0.6588
   51CHL1  H26C 3770   5.142   0.220   8.381 -3.2874  2.7348 -0.4494
   51CHL1   C27 3771   5.074   0.462   8.282  0.0993 -0.4322  0.0094
   51CHL1  H27A 3772   5.167   0.522   8.277  0.0136 -0.3611 -0.7204
   51CHL1  H27B 3773   4.995   0.534   8.251 -3.5689 -2.7112  3.5914
   51CHL1  H27C 3774   5.042   0.451   8.388  0.2846 -1.4407 -0.0332
   52CHL1    C3 3775   6.588   2.216   6.996 -0.2467 -0.3606 -0.1604
   52CHL1    H3 3776   6.488   2.240   7.038  0.4089 -0.3951  1.4485
   52CHL1    O3 3777   6.591   2.226   6.857 -0.1619 -0.0773 -0.4189
   52CHL1   H3' 3778   6.625   2.142   6.826  0.6934  0.6941 -1.6376
   52CHL1    C4 3779   6.698   2.312   7.057  0.2174  0.6291 -0.5545
   52CHL1   H4A 3780   6.797   2.291   7.012  0.1851 -0.8105  0.0159
   52CHL1   H4B 3781   6.662   2.414   7.032 -0.4961  0.1054 -1.7311
   52CHL1    C5 3782   6.721   2.300   7.211 -0.5875 -0.3901  0.5208
   52CHL1    C6 3783   6.733   2.406   7.298 -0.1922 -0.2758  0.5305
   52CHL1    H6 3784   6.718   2.504   7.251 -0.7418  0.7557  2.7459
   52CHL1    C7 3785   6.732   2.391   7.442 -0.2675  0.8318 -0.0943
   52CHL1   H7A 3786   6.823   2.442   7.480 -0.1142  0.2462  0.3429
   52CHL1   H7B 3787   6.641   2.437   7.485 -1.3033 -0.4203 -0.9049
   52CHL1    C8 3788   6.762   2.250   7.499 -0.4122  0.4750  0.6409
   52CHL1    H8 3789   6.871   2.228   7.493 -0.5029  0.2841 -0.3182
   52CHL1   C14 3790   6.718   2.246   7.646 -0.1741  0.1085  0.2544
   52CHL1   H14 3791   6.607   2.256   7.646 -0.4272 -2.2829 -0.0513
   52CHL1   C15 3792   6.751   2.361   7.747  0.3736  0.2670 -0.2504
   52CHL1  H15A 3793   6.859   2.387   7.750  0.0302  1.6335  2.3853
   52CHL1  H15B 3794   6.691   2.454   7.732  2.1091  1.3693 -0.4390
   52CHL1   C16 3795   6.714   2.294   7.875  0.3454 -0.3787 -0.3979
   52CHL1  H16A 3796   6.799   2.318   7.943  0.4627 -1.2598 -0.2369
   52CHL1  H16B 3797   6.630   2.343   7.928  2.4098  1.4902  1.2547
   52CHL1   C17 3798   6.688   2.140   7.858  0.4385 -0.1163 -1.2056
   52CHL1   H17 3799   6.579   2.132   7.843  0.1774 -1.5959  1.2744
   52CHL1   C13 3800   6.744   2.113   7.719 -0.9634 -0.6298 -0.3340
   52CHL1   C18 3801   6.899   2.077   7.729 -0.2805 -0.4909 -0.2929
   52CHL1  H18A 3802   6.946   2.151   7.797 -1.4469  1.2983 -1.3851
   52CHL1  H18B 3803   6.919   1.968   7.740 -0.1746 -0.5296 -0.8351
   52CHL1  H18C 3804   6.954   2.090   7.633 -1.0032 -0.3546 -0.6926
   52CHL1   C12 3805   6.672   2.003   7.635  0.1099  0.2234 -0.2636
   52CHL1  H12A 3806   6.693   1.904   7.680 -1.2842  0.3702  0.7665
   52CHL1  H12B 3807   6.564   2.023   7.652  0.2663  0.8186  0.0644
   52CHL1   C11 3808   6.711   2.002   7.488 -0.4913 -0.1783 -0.6639
   52CHL1  H11A 3809   6.818   1.975   7.477 -0.1419  0.7701  0.2944
   52CHL1  H11B 3810   6.647   1.927   7.436 -1.2147 -0.3423  0.4430
   52CHL1    C9 3811   6.688   2.141   7.421 -0.6213 -0.5063  0.5095
   52CHL1    H9 3812   6.582   2.167   7.442 -0.6585 -0.6344  0.4773
   52CHL1   C10 3813   6.723   2.158   7.265 -0.3554  0.2420 -0.1899
   52CHL1   C19 3814   6.867   2.103   7.241 -0.4353  0.0981  0.5932
   52CHL1  H19A 3815   6.938   2.168   7.296 -0.5182  1.3890 -0.7825
   52CHL1  H19B 3816   6.883   1.996   7.266 -2.1314 -0.1309  0.7583
   52CHL1  H19C 3817   6.888   2.121   7.133  1.4088  0.7065  1.0391
   52CHL1    C1 3818   6.625   2.063   7.190  0.4853  0.1468 -0.7651
   52CHL1   H1A 3819   6.649   1.960   7.224  0.0105  0.9617  2.1405
   52CHL1   H1B 3820   6.525   2.077   7.235  0.7627 -0.1374 -0.0442
   52CHL1    C2 3821   6.614   2.065   7.040 -0.9728 -0.7491  0.6489
   52CHL1   H2A 3822   6.538   1.994   7.001  0.9922 -2.7973  0.4013
   52CHL1   H2B 3823   6.715   2.036   7.003 -0.0717 -0.5809  2.9420
   52CHL1   C20 3824   6.735   2.061   7.983  0.7822 -0.4794  0.2107
   52CHL1   H20 3825   6.845   2.074   7.992  0.7834 -0.7909  0.6382
   52CHL1   C21 3826   6.715   1.909   7.975  0.4876  0.7934  0.2861
   52CHL1  H21A 3827   6.610   1.885   7.945 -0.2167 -1.2054  4.0223
   52CHL1  H21B 3828   6.734   1.867   8.076 -2.5414  0.3831  0.7602
   52CHL1  H21C 3829   6.782   1.867   7.898  0.5632  1.8491 -0.2231
   52CHL1   C22 3830   6.659   2.101   8.110  0.1964  0.2633 -0.7056
   52CHL1  H22A 3831   6.706   2.051   8.197  0.0234  0.9488 -0.2138
   52CHL1  H22B 3832   6.667   2.211   8.122  1.3160  0.2098 -0.9337
   52CHL1   C23 3833   6.512   2.071   8.117  0.0675 -0.0440  0.2941
   52CHL1  H23A 3834   6.464   2.155   8.062  1.4666 -0.4315 -1.5801
   52CHL1  H23B 3835   6.495   1.964   8.096 -0.0738 -0.0864  0.6195
   52CHL1   C24 3836   6.458   2.084   8.256 -0.1733  0.6204 -0.1951
   52CHL1  H24A 3837   6.529   2.025   8.318 -0.4262  1.9887  1.4450
   52CHL1  H24B 3838   6.446   2.186   8.297  0.3208  0.3675  0.5915
   52CHL1   C25 3839   6.318   2.024   8.287  0.3038  0.3358 -0.1729
   52CHL1   H25 3840   6.279   2.054   8.387 -2.9840  0.2793 -1.3574
   52CHL1   C26 3841   6.213   2.089   8.189 -1.2630  0.0931  0.2081
   52CHL1  H26A 3842   6.217   2.050   8.085 -0.4413 -2.2955  1.1044
   52CHL1  H26B 3843   6.115   2.053   8.228 -0.6745  0.3558  1.9633
   52CHL1  H26C 3844   6.214   2.200   8.193 -3.4481  0.0601  2.9054
   52CHL1   C27 3845   6.313   1.869   8.281  0.3025 -0.8444 -0.1496
   52CHL1  H27A 3846   6.322   1.831   8.177 -2.2033 -0.5702 -0.5007
   52CHL1  H27B 3847   6.395   1.833   8.347  0.2371 -0.2084  0.2792
   52CHL1  H27C 3848   6.218   1.836   8.327 -0.1337  0.0712 -0.3990
   53CHL1    C3 3849   2.261   4.831   6.973  0.6075  0.2265  0.5512
   53CHL1    H3 3850   2.159   4.873   6.992  0.8069  0.4544  1.1372
   53CHL1    O3 3851   2.277   4.807   6.835 -0.6199  0.0969 -0.1876
   53CHL1   H3' 3852   2.194   4.830   6.793 -2.6944 -0.7437  3.2833
   53CHL1    C4 3853   2.369   4.931   7.024  0.2088 -0.5875  0.2404
   53CHL1   H4A 3854   2.464   4.876   7.009  0.2274 -0.8785  1.3397
   53CHL1   H4B 3855   2.359   5.031   6.976  1.1604 -0.4762  0.2656
   53CHL1    C5 3856   2.350   4.953   7.175  0.0364  0.1535 -0.9348
   53CHL1    C6 3857   2.331   5.073   7.226  0.2692  0.3084 -0.6891
   53CHL1    H6 3858   2.331   5.153   7.150 -2.0625 -0.4966 -1.5544
   53CHL1    C7 3859   2.310   5.112   7.370  0.1552  0.5893 -0.2794
   53CHL1   H7A 3860   2.387   5.188   7.395  1.0824 -1.0649  2.0809
   53CHL1   H7B 3861   2.208   5.156   7.375  1.4945  3.8634 -0.4049
   53CHL1    C8 3862   2.337   4.989   7.462 -0.5253 -0.1453  0.7825
   53CHL1    H8 3863   2.448   4.983   7.462 -0.4233  1.3437 -0.9674
   53CHL1   C14 3864   2.293   5.015   7.602 -0.6777 -0.2532  0.8657
   53CHL1   H14 3865   2.183   5.028   7.594 -0.6475 -0.8181 -0.6310
   53CHL1   C15 3866   2.333   5.150   7.673 -0.1532 -0.4708 -0.2080
   53CHL1  H15A 3867   2.442   5.167   7.659  0.1344 -0.8207  1.4120
   53CHL1  H15B 3868   2.273   5.237   7.638 -0.7437 -1.6960 -2.2973
   53CHL1   C16 3869   2.318   5.116   7.824  0.2773  0.1339 -0.1024
   53CHL1  H16A 3870   2.422   5.114   7.863 -0.6010  0.4584  2.3503
   53CHL1  H16B 3871   2.251   5.189   7.875  2.0161  1.6977  0.0192
   53CHL1   C17 3872   2.267   4.965   7.827  0.0819 -0.7174 -0.4952
   53CHL1   H17 3873   2.158   4.981   7.815 -0.0625 -0.8185  0.6156
   53CHL1   C13 3874   2.321   4.901   7.695 -0.1813 -0.6655 -0.6729
   53CHL1   C18 3875   2.470   4.862   7.722  0.0177  0.0553  0.4416
   53CHL1  H18A 3876   2.519   4.952   7.765 -0.2325  0.5506 -0.3158
   53CHL1  H18B 3877   2.485   4.781   7.797  1.6160 -0.2930 -0.2385
   53CHL1  H18C 3878   2.527   4.827   7.634 -0.1612  1.5129 -0.2616
   53CHL1   C12 3879   2.242   4.781   7.646  0.1987 -0.3782 -0.0885
   53CHL1  H12A 3880   2.243   4.699   7.721  0.8243  0.6436  1.0516
   53CHL1  H12B 3881   2.134   4.806   7.635  0.0109 -2.0125 -2.2229
   53CHL1   C11 3882   2.294   4.738   7.509 -0.1044 -0.2769 -0.2080
   53CHL1  H11A 3883   2.401   4.709   7.521 -0.9595 -3.8943 -0.7061
   53CHL1  H11B 3884   2.237   4.649   7.475 -1.2599  0.0015  0.9813
   53CHL1    C9 3885   2.283   4.857   7.405  0.5341  0.4111 -0.5328
   53CHL1    H9 3886   2.175   4.881   7.399  0.5170  0.1243 -1.5682
   53CHL1   C10 3887   2.336   4.827   7.266 -0.1066  0.0740 -0.6845
   53CHL1   C19 3888   2.472   4.758   7.266  0.2677 -0.4757 -0.4599
   53CHL1  H19A 3889   2.504   4.734   7.162  1.5225  0.4845 -0.3101
   53CHL1  H19B 3890   2.541   4.829   7.317 -0.7561  0.3012 -0.1410
   53CHL1  H19C 3891   2.467   4.663   7.324 -2.0140  0.4258  0.8648
   53CHL1    C1 3892   2.236   4.720   7.200 -0.1147  0.3491 -0.1529
   53CHL1   H1A 3893   2.250   4.621   7.247 -1.3746  0.6549  0.8815
   53CHL1   H1B 3894   2.133   4.755   7.223  0.2315 -0.5483  2.9541
   53CHL1    C2 3895   2.263   4.699   7.049 -0.2239 -0.0920  0.1474
   53CHL1   H2A 3896   2.181   4.629   7.022 -0.2187 -0.7578  1.7951
   53CHL1   H2B 3897   2.358   4.644   7.032 -0.5628 -0.1201 -1.6776
   53CHL1   C20 3898   2.282   4.890   7.956  0.2453 -0.4800 -0.3486
   53CHL1   H20 3899   2.286   4.781   7.932  1.5154 -0.8329  1.3460
   53CHL1   C21 3900   2.153   4.906   8.034 -0.5635  0.1034  0.2525
   53CHL1  H21A 3901   2.066   4.886   7.968  1.2225  0.3691 -2.2304
   53CHL1  H21B 3902   2.153   5.004   8.088  1.4872  1.8168 -2.7200
   53CHL1  H21C 3903   2.149   4.833   8.118 -1.2648  0.9203  0.9524
   53CHL1   C22 3904   2.404   4.927   8.047  0.6532 -0.3294  0.4230
   53CHL1  H22A 3905   2.491   4.937   7.978  0.9050  0.0113  0.7938
   53CHL1  H22B 3906   2.384   5.028   8.088 -0.2297  0.7668 -2.5208
   53CHL1   C23 3907   2.431   4.812   8.145  0.4316 -0.0763  0.0868
   53CHL1  H23A 3908   2.350   4.810   8.221  0.7910  1.7832  0.5284
   53CHL1  H23B 3909   2.436   4.714   8.093 -0.4376 -0.4841  0.7579
   53CHL1   C24 3910   2.566   4.846   8.219  0.0419  0.2807  0.3944
   53CHL1  H24A 3911   2.647   4.814   8.150  2.4891 -0.5428  3.5301
   53CHL1  H24B 3912   2.567   4.951   8.253  0.7502  0.2540  0.4638
   53CHL1   C25 3913   2.591   4.751   8.347 -0.8424  0.5309 -0.5949
   53CHL1   H25 3914   2.566   4.647   8.319  0.8051  0.6330 -2.5470
   53CHL1   C26 3915   2.744   4.759   8.402  0.3729  0.0428  0.5435
   53CHL1  H26A 3916   2.755   4.691   8.490 -1.3630 -2.4600 -1.1217
   53CHL1  H26B 3917   2.810   4.717   8.324  2.4396 -0.7786  2.6575
   53CHL1  H26C 3918   2.768   4.865   8.426 -3.6043  1.1639 -0.1008
   53CHL1   C27 3919   2.494   4.791   8.466  0.1829 -0.0306  0.2824
   53CHL1  H27A 3920   2.505   4.712   8.543 -0.3668  0.2609  0.6626
   53CHL1  H27B 3921   2.509   4.890   8.515 -0.7288 -0.3801  1.2765
   53CHL1  H27C 3922   2.389   4.794   8.431  0.1415 -1.0587  0.3123
   54CHL1    C3 3923   2.524   0.131   6.918  0.2293 -0.0128  0.2843
   54CHL1    H3 3924   2.576   0.229   6.922  0.0816  0.2385 -2.7575
   54CHL1    O3 3925   2.509   0.088   6.781 -0.1263 -0.4037 -0.0648
   54CHL1   H3' 3926   2.489  -0.006   6.783 -1.2504 -0.1697  0.3867
   54CHL1    C4 3927   2.597   0.027   7.000 -0.0524  0.2571  0.3846
   54CHL1   H4A 3928   2.546  -0.069   6.978  1.6232 -0.5388 -0.0502
   54CHL1   H4B 3929   2.702   0.009   6.968  0.7022 -0.5182  3.1532
   54CHL1    C5 3930   2.592   0.057   7.148  0.3998 -0.5791  0.0255
   54CHL1    C6 3931   2.701   0.054   7.221  0.3140  0.0663  0.2936
   54CHL1    H6 3932   2.796   0.027   7.173  0.2263  0.9901 -0.4224
   54CHL1    C7 3933   2.717   0.084   7.368  0.4397 -0.5867 -0.3573
   54CHL1   H7A 3934   2.774   0.006   7.422 -0.6437 -1.8698 -1.0470
   54CHL1   H7B 3935   2.768   0.183   7.375  0.8345 -0.7503 -0.9078
   54CHL1    C8 3936   2.579   0.094   7.445 -0.9884 -0.3238  0.1667
   54CHL1    H8 3937   2.546  -0.009   7.468 -0.3571 -0.2380  1.4806
   54CHL1   C14 3938   2.592   0.158   7.584  0.2119  0.2774  0.5371
   54CHL1   H14 3939   2.631   0.261   7.573 -3.1450  1.5499 -0.0318
   54CHL1   C15 3940   2.686   0.087   7.688 -0.0535 -0.6051 -0.7197
   54CHL1  H15A 3941   2.694  -0.024   7.691  0.1909 -0.7021 -3.4942
   54CHL1  H15B 3942   2.787   0.133   7.689  0.4953 -1.8243  0.1096
   54CHL1   C16 3943   2.629   0.126   7.833 -0.1615 -0.4545  0.0623
   54CHL1  H16A 3944   2.589   0.032   7.878  1.2753 -0.6920  0.8650
   54CHL1  H16B 3945   2.703   0.165   7.906  1.3803 -1.2097 -1.0598
   54CHL1   C17 3946   2.507   0.225   7.799  0.3247  0.4750 -0.2312
   54CHL1   H17 3947   2.562   0.317   7.773  0.8594  0.5053  0.9794
   54CHL1   C13 3948   2.462   0.173   7.660  0.1994  0.1059 -0.6577
   54CHL1   C18 3949   2.391   0.036   7.684 -0.6033 -0.1367 -0.2527
   54CHL1  H18A 3950   2.393   0.012   7.792  0.1721  1.9114  0.2081
   54CHL1  H18B 3951   2.286   0.042   7.650 -0.9424  1.9446  1.0770
   54CHL1  H18C 3952   2.437  -0.047   7.626  0.2488  1.4736 -1.9335
   54CHL1   C12 3953   2.368   0.270   7.577  0.5354  0.2415  0.0475
   54CHL1  H12A 3954   2.267   0.291   7.619 -0.2532 -0.4914 -1.4295
   54CHL1  H12B 3955   2.406   0.375   7.570 -2.1917  1.2225 -0.6480
   54CHL1   C11 3956   2.348   0.214   7.433 -1.1034  0.1586  0.2873
   54CHL1  H11A 3957   2.276   0.130   7.442 -0.3864 -0.7717 -2.3234
   54CHL1  H11B 3958   2.298   0.291   7.370 -0.8709 -0.8339 -1.1135
   54CHL1    C9 3959   2.476   0.175   7.356  0.3210 -0.2283 -0.8780
   54CHL1    H9 3960   2.524   0.273   7.333  0.2024  0.2040  0.6316
   54CHL1   C10 3961   2.458   0.106   7.213  0.2838 -0.1338 -0.2974
   54CHL1   C19 3962   2.368  -0.020   7.224 -0.1058  0.7504 -0.4991
   54CHL1  H19A 3963   2.262   0.008   7.243  0.0048 -0.0289  1.3941
   54CHL1  H19B 3964   2.359  -0.082   7.132 -0.5467  2.7712 -1.8327
   54CHL1  H19C 3965   2.394  -0.077   7.316 -5.7537 -4.0464 -1.5115
   54CHL1    C1 3966   2.385   0.205   7.114 -0.6416  0.1235  0.0276
   54CHL1   H1A 3967   2.281   0.224   7.148 -1.4384 -0.2343 -2.1725
   54CHL1   H1B 3968   2.436   0.304   7.113  0.7325 -0.5600  0.5104
   54CHL1    C2 3969   2.388   0.162   6.963  0.4022  0.4542  0.2387
   54CHL1   H2A 3970   2.345   0.241   6.899 -0.8452  0.5551  1.1779
   54CHL1   H2B 3971   2.313   0.082   6.948 -0.9871  1.8520 -0.3613
   54CHL1   C20 3972   2.410   0.241   7.921 -0.1648 -0.6526 -0.2919
   54CHL1   H20 3973   2.350   0.147   7.922  1.3205 -1.7045 -3.0526
   54CHL1   C21 3974   2.306   0.353   7.913  0.1861  0.0189 -0.4385
   54CHL1  H21A 3975   2.239   0.321   7.996 -3.1248  2.3085 -2.0991
   54CHL1  H21B 3976   2.231   0.355   7.831 -0.8272 -0.3063  0.4603
   54CHL1  H21C 3977   2.344   0.457   7.925  1.4892 -0.4366 -0.5367
   54CHL1   C22 3978   2.494   0.243   8.052  0.9279 -0.0790 -0.2792
   54CHL1  H22A 3979   2.552   0.150   8.072  0.8904  0.1763  1.1162
   54CHL1  H22B 3980   2.566   0.327   8.041 -1.3519  2.0067  0.3891
   54CHL1   C23 3981   2.426   0.267   8.185  0.4387  0.0039 -0.1157
   54CHL1  H23A 3982   2.376   0.366   8.175  2.4114  0.9168 -1.3791
   54CHL1  H23B 3983   2.348   0.193   8.212  0.8745 -0.7549 -0.9198
   54CHL1   C24 3984   2.530   0.270   8.299 -0.4711  0.0593  0.1938
   54CHL1  H24A 3985   2.560   0.164   8.314  0.6208 -0.0595 -2.4179
   54CHL1  H24B 3986   2.614   0.341   8.284 -0.9873  0.4841 -0.7460
   54CHL1   C25 3987   2.471   0.336   8.428  0.0621  0.1500 -0.5507
   54CHL1   H25 3988   2.380   0.281   8.460  0.8936 -0.9165  0.0453
   54CHL1   C26 3989   2.577   0.314   8.542 -0.1396  0.5130  0.1672
   54CHL1  H26A 3990   2.586   0.206   8.569  1.1792  1.2314  2.8145
   54CHL1  H26B 3991   2.678   0.351   8.513 -0.5444  1.1451 -0.4347
   54CHL1  H26C 3992   2.557   0.376   8.632 -0.3627  1.9110 -0.8263
   54CHL1   C27 3993   2.465   0.487   8.412  0.1386  0.0239  0.0097
   54CHL1  H27A 3994   2.557   0.542   8.380  1.2863 -0.4674  2.3780
   54CHL1  H27B 3995   2.383   0.509   8.341  0.8551  0.4330 -0.7043
   54CHL1  H27C 3996   2.426   0.546   8.498 -0.4215 -1.0418  0.4917
   55CHL1    C3 3997   2.670   2.005   7.001 -0.5123  0.8438 -0.0582
   55CHL1    H3 3998   2.566   2.043   6.996 -1.5120 -1.6926  0.6352
   55CHL1    O3 3999   2.715   1.988   6.866  0.2425 -0.1247  0.2165
   55CHL1   H3' 4000   2.673   2.057   6.813 -1.8388 -2.3862 -1.2293
   55CHL1    C4 4001   2.756   2.113   7.070 -0.0351 -0.1007 -0.6974
   55CHL1   H4A 4002   2.858   2.067   7.063 -0.2447 -0.4614 -1.4811
   55CHL1   H4B 4003   2.762   2.206   7.009  0.3303 -0.5311 -1.3311
   55CHL1    C5 4004   2.732   2.138   7.208 -0.8176  0.3297  0.3678
   55CHL1    C6 4005   2.721   2.261   7.261  0.0154 -0.3665 -0.5371
   55CHL1    H6 4006   2.721   2.352   7.200 -0.3095  0.5157  0.7803
   55CHL1    C7 4007   2.699   2.294   7.406  0.0070  0.5181  0.4566
   55CHL1   H7A 4008   2.774   2.372   7.433 -1.0377  2.2151 -1.3928
   55CHL1   H7B 4009   2.593   2.325   7.421 -0.1240  0.3969 -0.2063
   55CHL1    C8 4010   2.719   2.166   7.497  0.1932  0.8012  0.1017
   55CHL1    H8 4011   2.826   2.137   7.506 -0.1477 -0.5665 -0.1895
   55CHL1   C14 4012   2.662   2.192   7.638 -0.0249  0.8587  0.4013
   55CHL1   H14 4013   2.556   2.217   7.620 -0.5258 -0.5308  1.3430
   55CHL1   C15 4014   2.714   2.315   7.718 -0.3515  0.3146 -0.0832
   55CHL1  H15A 4015   2.825   2.317   7.717 -0.3054 -1.3888 -1.4714
   55CHL1  H15B 4016   2.669   2.405   7.674  1.6310  1.0875 -0.5898
   55CHL1   C16 4017   2.656   2.277   7.865  0.2911  0.0817  0.1229
   55CHL1  H16A 4018   2.744   2.304   7.927 -0.2161 -0.4958  1.1067
   55CHL1  H16B 4019   2.578   2.354   7.886  0.2597  0.1314 -0.1734
   55CHL1   C17 4020   2.611   2.132   7.860  0.5610 -0.7129 -0.6725
   55CHL1   H17 4021   2.502   2.140   7.841  0.5149  1.4886  0.3236
   55CHL1   C13 4022   2.665   2.078   7.729  0.6060  0.3258 -0.6531
   55CHL1   C18 4023   2.812   2.034   7.750 -0.0009 -0.1529 -0.5335
   55CHL1  H18A 4024   2.883   2.113   7.779  0.5315  0.3251 -3.0462
   55CHL1  H18B 4025   2.819   1.950   7.822  1.2279  1.1961  0.9385
   55CHL1  H18C 4026   2.845   1.997   7.650  0.4291  1.1791 -0.8921
   55CHL1   C12 4027   2.579   1.961   7.664 -0.1333 -0.1899  0.1297
   55CHL1  H12A 4028   2.564   1.876   7.733  0.7939 -0.8173 -0.4422
   55CHL1  H12B 4029   2.479   2.008   7.646 -1.1782 -2.9443 -1.5260
   55CHL1   C11 4030   2.635   1.918   7.520  0.5380 -0.3131 -0.3305
   55CHL1  H11A 4031   2.728   1.859   7.534  1.4483  1.3783  0.8198
   55CHL1  H11B 4032   2.565   1.852   7.464  0.8386  0.7164 -1.9440
   55CHL1    C9 4033   2.654   2.042   7.431 -0.7465  0.9041  0.2854
   55CHL1    H9 4034   2.548   2.070   7.412 -0.8564 -0.1393 -0.6864
   55CHL1   C10 4035   2.716   2.012   7.290 -0.2264  0.4408 -0.3064
   55CHL1   C19 4036   2.848   1.935   7.306  0.1319  0.1995 -0.5909
   55CHL1  H19A 4037   2.904   1.919   7.212 -1.7921  2.4138 -2.1950
   55CHL1  H19B 4038   2.914   1.986   7.379  1.7427 -0.1484 -1.7863
   55CHL1  H19C 4039   2.836   1.832   7.344  2.1153  1.0229  2.4408
   55CHL1    C1 4040   2.621   1.914   7.213 -0.0644 -0.8804  0.3224
   55CHL1   H1A 4041   2.607   1.821   7.273 -0.2159 -0.2405  1.2965
   55CHL1   H1B 4042   2.523   1.966   7.209  0.0342 -0.6994  0.2316
   55CHL1    C2 4043   2.663   1.872   7.074 -0.0101  0.0974 -0.0575
   55CHL1   H2A 4044   2.586   1.803   7.033 -0.0795 -1.1942  2.1706
   55CHL1   H2B 4045   2.765   1.827   7.074  0.2126  0.5462 -1.7564
   55CHL1   C20 4046   2.603   2.058   7.996  0.0013 -0.1320  0.2918
   55CHL1   H20 4047   2.698   2.004   8.020 -0.1006  0.2951  1.7392
   55CHL1   C21 4048   2.488   1.960   7.998 -0.1405 -0.4406  0.0638
   55CHL1  H21A 4049   2.514   1.886   7.920  0.2762  1.1270 -1.3093
   55CHL1  H21B 4050   2.394   2.016   7.983 -0.6028 -0.6767  1.8820
   55CHL1  H21C 4051   2.477   1.906   8.095 -0.5399  2.4489  1.6793
   55CHL1   C22 4052   2.601   2.155   8.122  0.1794 -0.1195  0.8325
   55CHL1  H22A 4053   2.697   2.211   8.124  0.0874  0.0079  2.0069
   55CHL1  H22B 4054   2.512   2.215   8.094  0.0271 -1.3242 -1.3403
   55CHL1   C23 4055   2.574   2.103   8.260 -1.1451  0.3235  1.0171
   55CHL1  H23A 4056   2.478   2.052   8.240 -0.4541 -0.6585  0.1556
   55CHL1  H23B 4057   2.646   2.025   8.292  0.0336 -0.4859 -3.2907
   55CHL1   C24 4058   2.567   2.232   8.357  0.4623  0.1883 -0.3243
   55CHL1  H24A 4059   2.667   2.278   8.371  0.0333  1.3204 -0.9235
   55CHL1  H24B 4060   2.496   2.303   8.310  0.3307 -0.2501 -0.7959
   55CHL1   C25 4061   2.521   2.190   8.499  1.2417  0.5615 -0.1205
   55CHL1   H25 4062   2.601   2.136   8.552  0.9729 -0.1050 -0.3901
   55CHL1   C26 4063   2.516   2.314   8.590 -0.3292 -0.2562 -0.0390
   55CHL1  H26A 4064   2.436   2.382   8.554  0.7276  1.9243  1.6400
   55CHL1  H26B 4065   2.491   2.292   8.696 -0.1771 -0.0852  0.0332
   55CHL1  H26C 4066   2.612   2.370   8.585  0.5582 -1.6843  0.4476
   55CHL1   C27 4067   2.392   2.113   8.525 -0.4389 -0.2996 -0.3528
   55CHL1  H27A 4068   2.380   2.084   8.631 -1.8213  0.2855 -0.3416
   55CHL1  H27B 4069   2.309   2.180   8.497 -0.5913 -1.3388 -2.5167
   55CHL1  H27C 4070   2.384   2.022   8.461 -1.0246 -1.5767  1.4795
   56CHL1    C3 4071   1.680   6.416   6.781 -0.5259 -1.2029  0.5281
   56CHL1    H3 4072   1.786   6.385   6.767 -0.0196  0.7551 -0.2170
   56CHL1    O3 4073   1.614   6.427   6.661 -0.5454 -0.4546 -0.1546
   56CHL1   H3' 4074   1.607   6.516   6.627 -0.5304 -0.5088 -0.2975
   56CHL1    C4 4075   1.603   6.307   6.865  0.3338 -0.8616  0.4787
   56CHL1   H4A 4076   1.495   6.329   6.849  0.8930  3.2919  1.8349
   56CHL1   H4B 4077   1.644   6.218   6.813  0.0092 -1.6875  1.6163
   56CHL1    C5 4078   1.647   6.304   7.010  0.0364 -0.4147 -0.2920
   56CHL1    C6 4079   1.676   6.194   7.084 -0.2690  0.2507 -0.1980
   56CHL1    H6 4080   1.668   6.096   7.034 -1.0288  0.8549 -1.2864
   56CHL1    C7 4081   1.697   6.191   7.231  0.4949  0.4645  0.1115
   56CHL1   H7A 4082   1.650   6.099   7.272  1.3211 -1.3300 -2.7724
   56CHL1   H7B 4083   1.807   6.188   7.248  0.4711  0.2865  0.2391
   56CHL1    C8 4084   1.642   6.321   7.305 -0.1881  0.0130  0.2645
   56CHL1    H8 4085   1.532   6.315   7.298 -0.0280  0.1128 -2.9971
   56CHL1   C14 4086   1.685   6.327   7.457  0.1318 -0.2233  0.4648
   56CHL1   H14 4087   1.795   6.341   7.445 -0.4096  1.7405 -2.6527
   56CHL1   C15 4088   1.640   6.211   7.536 -0.2608  0.1622  0.8459
   56CHL1  H15A 4089   1.533   6.196   7.512  0.4557 -0.8130 -1.9413
   56CHL1  H15B 4090   1.703   6.121   7.517  2.3504  1.6257  2.2656
   56CHL1   C16 4091   1.652   6.260   7.683  0.5438  0.0164  0.4326
   56CHL1  H16A 4092   1.560   6.244   7.742 -0.7475  1.9217 -1.0306
   56CHL1  H16B 4093   1.738   6.208   7.732  1.5763  1.5601  0.3017
   56CHL1   C17 4094   1.684   6.411   7.674 -0.7426 -0.1123  0.2877
   56CHL1   H17 4095   1.794   6.425   7.671 -0.9083  1.7504  1.5502
   56CHL1   C13 4096   1.634   6.452   7.529 -0.2256 -0.6923 -1.3318
   56CHL1   C18 4097   1.474   6.458   7.526  0.4201 -0.4180 -0.8467
   56CHL1  H18A 4098   1.433   6.370   7.580  0.0799  0.7966  0.9018
   56CHL1  H18B 4099   1.433   6.550   7.571 -0.2712 -1.0545 -0.1686
   56CHL1  H18C 4100   1.436   6.458   7.421 -1.2505 -1.8919 -0.2477
   56CHL1   C12 4101   1.703   6.574   7.463  0.2739  0.1452  0.7407
   56CHL1  H12A 4102   1.676   6.669   7.514  0.7623  1.8514 -2.0423
   56CHL1  H12B 4103   1.813   6.571   7.476  0.4477 -0.3596 -0.7804
   56CHL1   C11 4104   1.665   6.580   7.308 -0.3228 -0.2834  0.4730
   56CHL1  H11A 4105   1.558   6.609   7.299 -0.7771 -2.5344 -2.2153
   56CHL1  H11B 4106   1.723   6.662   7.260  0.2862 -0.1302  1.4661
   56CHL1    C9 4107   1.696   6.443   7.233 -0.2194 -0.2924  0.4692
   56CHL1    H9 4108   1.806   6.430   7.229 -0.1202  0.4331  0.7417
   56CHL1   C10 4109   1.644   6.445   7.078 -0.3130 -0.1103 -0.2980
   56CHL1   C19 4110   1.489   6.493   7.075 -0.1983  0.2719 -0.5957
   56CHL1  H19A 4111   1.484   6.599   7.108 -2.9863  0.1033 -0.3361
   56CHL1  H19B 4112   1.438   6.479   6.977  0.3827  1.1048 -1.0180
   56CHL1  H19C 4113   1.441   6.429   7.153  1.1487 -1.7847 -1.4097
   56CHL1    C1 4114   1.736   6.541   6.993 -0.1154  0.5076  0.7700
   56CHL1   H1A 4115   1.731   6.645   7.032  1.0682  0.7928  0.1646
   56CHL1   H1B 4116   1.840   6.502   6.993  0.6873  2.5853  0.0615
   56CHL1    C2 4117   1.682   6.554   6.847  0.0867  0.3695  0.1807
   56CHL1   H2A 4118   1.756   6.615   6.792  2.5802 -1.6722  1.1701
   56CHL1   H2B 4119   1.584   6.606   6.851 -0.6360 -0.8259 -1.9137
   56CHL1   C20 4120   1.632   6.495   7.795 -0.6517  0.5302  0.1625
   56CHL1   H20 4121   1.525   6.472   7.817 -0.4149 -0.0540  0.7324
   56CHL1   C21 4122   1.648   6.646   7.771  0.0169  0.4210 -0.2829
   56CHL1  H21A 4123   1.637   6.701   7.867  1.1016 -0.7117  0.5113
   56CHL1  H21B 4124   1.577   6.689   7.697  0.2304  1.7278  0.2600
   56CHL1  H21C 4125   1.746   6.658   7.719  0.3237  0.2748  0.2616
   56CHL1   C22 4126   1.706   6.433   7.921  0.2066 -0.4973  0.1868
   56CHL1  H22A 4127   1.702   6.322   7.920 -1.8476 -0.4391 -1.4970
   56CHL1  H22B 4128   1.813   6.463   7.926 -0.4972  1.7865  2.6210
   56CHL1   C23 4129   1.633   6.480   8.054 -0.5843  0.0307 -0.0304
   56CHL1  H23A 4130   1.646   6.589   8.067 -3.4221  0.5493 -1.0419
   56CHL1  H23B 4131   1.525   6.458   8.039 -0.6215  1.0562 -1.3837
   56CHL1   C24 4132   1.683   6.405   8.183  0.6536 -0.9511 -0.3789
   56CHL1  H24A 4133   1.642   6.302   8.170 -0.3060 -0.6478  0.2372
   56CHL1  H24B 4134   1.793   6.395   8.170  1.0345  3.6568 -1.4706
   56CHL1   C25 4135   1.642   6.470   8.320  0.6867  0.1996 -0.1283
   56CHL1   H25 4136   1.542   6.517   8.318  0.7464  0.2985 -2.3688
   56CHL1   C26 4137   1.639   6.360   8.428 -0.2732  0.5460 -0.3936
   56CHL1  H26A 4138   1.742   6.327   8.453 -0.2968  0.1877 -0.7731
   56CHL1  H26B 4139   1.577   6.270   8.407 -0.4608  0.4813  0.4179
   56CHL1  H26C 4140   1.593   6.402   8.520 -2.3179  0.1810 -1.2038
   56CHL1   C27 4141   1.747   6.573   8.375  0.2067 -0.4249 -0.0724
   56CHL1  H27A 4142   1.728   6.675   8.333 -1.9089 -1.5108 -1.8570
   56CHL1  H27B 4143   1.752   6.589   8.484 -0.3143  3.6909 -0.5819
   56CHL1  H27C 4144   1.848   6.545   8.336  1.4969  2.0851  1.3563
   57SAPC     N 4145   1.460   2.971  11.119 -0.0412 -0.9011  0.5417
   57SAPC   C12 4146   1.348   2.964  11.013  0.4806 -0.6831 -0.2891
   57SAPC  H12A 4147   1.290   3.053  11.033 -0.5406 -1.5240  0.5472
   57SAPC  H12B 4148   1.276   2.892  11.050 -0.8986  1.6289  1.7168
   57SAPC   C13 4149   1.531   2.842  11.116 -0.3013 -0.7566 -0.3764
   57SAPC  H13A 4150   1.471   2.762  11.157  2.3946 -2.3775  0.5290
   57SAPC  H13B 4151   1.571   2.807  11.022  0.3904 -2.4505  0.5173
   57SAPC  H13C 4152   1.615   2.851  11.183 -0.1078  1.5069 -0.9032
   57SAPC   C14 4153   1.549   3.086  11.094 -1.1236 -0.0959 -0.4428
   57SAPC  H14A 4154   1.565   3.092  10.987  2.2704  0.0095  0.0245
   57SAPC  H14B 4155   1.504   3.183  11.109  1.9819  1.5533 -1.4693
   57SAPC  H14C 4156   1.652   3.080  11.126 -0.8772 -0.3485 -1.2567
   57SAPC   C15 4157   1.389   2.979  11.255  0.3818 -0.3655  0.1416
   57SAPC  H15A 4158   1.462   2.992  11.334  0.6174 -2.8324  0.3726
   57SAPC  H15B 4159   1.314   3.056  11.258  1.5137  0.7737 -0.2872
   57SAPC  H15C 4160   1.347   2.884  11.285  2.4985 -1.5179 -0.3743
   57SAPC   C11 4161   1.389   2.955  10.863  0.0339  0.0755 -0.3687
   57SAPC  H11A 4162   1.457   3.038  10.835 -0.9598  0.6351 -1.1620
   57SAPC  H11B 4163   1.291   2.977  10.816 -1.2065 -1.6264  1.3603
   57SAPC     P 4164   1.472   2.775  10.690  0.1027  0.0467 -0.3531
   57SAPC   O13 4165   1.607   2.817  10.648  0.1652 -0.8867  0.0868
   57SAPC   O14 4166   1.449   2.627  10.698  0.3241 -0.0490  0.4790
   57SAPC   O12 4167   1.444   2.828  10.834 -0.1511 -0.1016  0.4063
   57SAPC   O11 4168   1.367   2.842  10.596  0.0502 -0.7261  0.0621
   57SAPC    C1 4169   1.245   2.783  10.548 -0.0450  0.1431 -0.1895
   57SAPC    HA 4170   1.257   2.672  10.548 -3.6337 -0.3155  0.4842
   57SAPC    HB 4171   1.160   2.807  10.615  0.7561  2.1623  0.1426
   57SAPC    C2 4172   1.205   2.816  10.397 -0.3939 -0.0120  0.8315
   57SAPC    HS 4173   1.130   2.740  10.367 -2.1733  1.3829  1.6318
   57SAPC   O21 4174   1.317   2.818  10.305  0.0501 -0.4266 -0.2193
   57SAPC   C21 4175   1.380   2.701  10.287 -0.1645 -0.4896 -0.1116
   57SAPC   O22 4176   1.346   2.597  10.344  0.0593 -0.6131 -0.0475
   57SAPC   C22 4177   1.498   2.707  10.187  0.6822  0.0007  0.1159
   57SAPC   H2R 4178   1.579   2.769  10.233  0.5800 -0.6533  1.1996
   57SAPC   H2S 4179   1.535   2.603  10.185  0.5038 -0.0685  0.4076
   57SAPC    C3 4180   1.130   2.954  10.381 -0.4657  0.0113  0.7348
   57SAPC    HX 4181   1.208   3.024  10.416  0.9764 -1.2611  0.1453
   57SAPC    HY 4182   1.039   2.953  10.445 -1.8366 -2.5511 -1.1459
   57SAPC   O31 4183   1.108   2.989  10.243 -0.4246  0.2359 -0.5848
   57SAPC   C31 4184   0.982   3.010  10.213 -0.0402  0.3823  0.3108
   57SAPC   O32 4185   0.892   3.027  10.292  0.3249  0.3043 -0.4406
   57SAPC   C32 4186   0.967   3.026  10.068  0.2896  0.1549 -0.6605
   57SAPC   H2X 4187   1.051   2.971  10.020  0.4287  1.0387 -1.4562
   57SAPC   H2Y 4188   0.988   3.132  10.041 -1.9641  0.7142 -0.2939
   57SAPC   C23 4189   1.462   2.736  10.045 -0.0581 -0.3903  0.2722
   57SAPC   H3R 4190   1.558   2.717   9.993 -0.1344  0.0468 -0.0365
   57SAPC   H3S 4191   1.442   2.844  10.023  0.1575 -0.1601  1.1921
   57SAPC   C24 4192   1.358   2.641   9.982 -0.2104  0.5167  0.3612
   57SAPC   H4R 4193   1.358   2.543  10.034  0.0467  0.7602  0.8277
   57SAPC   H4S 4194   1.400   2.614   9.883  1.9635  0.4203  1.2753
   57SAPC   C25 4195   1.220   2.698   9.978  0.1955  0.2271 -0.3232
   57SAPC   H5R 4196   1.167   2.699  10.074 -0.7117  0.7841 -0.8251
   57SAPC   C26 4197   1.166   2.766   9.873 -0.3585  0.1448  0.2860
   57SAPC   H6R 4198   1.063   2.803   9.881 -1.1332 -1.6186 -1.2526
   57SAPC   C27 4199   1.243   2.791   9.742  0.1796  0.4643 -0.1208
   57SAPC   H7R 4200   1.244   2.689   9.697  1.5314 -0.0673  1.0665
   57SAPC   H7S 4201   1.346   2.826   9.763 -0.0468  0.3779  1.1780
   57SAPC   C28 4202   1.188   2.890   9.645 -0.0035  0.5535 -0.3140
   57SAPC   H8R 4203   1.117   2.958   9.694  0.3338  0.5478  0.1846
   57SAPC   C29 4204   1.210   2.909   9.517 -0.2215  0.5376  0.3038
   57SAPC   H9R 4205   1.158   2.988   9.459 -1.5468 -0.8014 -0.3574
   57SAPC  C210 4206   1.294   2.811   9.449  0.0823  0.2004  0.5756
   57SAPC  H10R 4207   1.319   2.720   9.507 -0.7292 -0.1734  0.3509
   57SAPC  H10S 4208   1.389   2.868   9.442 -1.5216  2.9489  0.3446
   57SAPC  C211 4209   1.252   2.772   9.312  0.4539 -0.1453 -0.4090
   57SAPC  H11R 4210   1.317   2.812   9.232  1.0969  0.5344  0.4471
   57SAPC  C212 4211   1.157   2.687   9.269 -0.3552  0.3306 -0.5759
   57SAPC  H12R 4212   1.140   2.667   9.163  0.9106  1.0691 -0.9252
   57SAPC  C213 4213   1.054   2.623   9.360 -0.3927  0.3430  0.0773
   57SAPC  H13R 4214   0.983   2.698   9.400  0.6276  0.1320  2.3721
   57SAPC  H13S 4215   1.119   2.591   9.445  1.3503 -1.2400 -1.7915
   57SAPC  C214 4216   0.988   2.496   9.325 -0.7446 -0.0576 -0.2943
   57SAPC  H14R 4217   0.888   2.498   9.280 -1.6129 -2.2125  1.4828
   57SAPC  C215 4218   1.034   2.374   9.351 -0.3018 -0.2961 -0.5362
   57SAPC  H15R 4219   0.970   2.286   9.339 -0.0593 -0.1347 -3.2161
   57SAPC  C216 4220   1.160   2.325   9.427 -0.0118 -0.0013 -0.2430
   57SAPC  H16R 4221   1.240   2.397   9.397  0.2927 -0.4573 -0.5307
   57SAPC  H16S 4222   1.188   2.224   9.389 -0.5386  0.0034 -0.6446
   57SAPC  C217 4223   1.122   2.323   9.573 -0.2301  0.7167 -0.4573
   57SAPC  H17R 4224   1.026   2.267   9.582  0.6357 -0.7928 -0.5451
   57SAPC  H17S 4225   1.107   2.422   9.621  0.3552  0.7873 -0.4181
   57SAPC  C218 4226   1.236   2.239   9.644 -0.1402  0.7579  0.3404
   57SAPC  H18R 4227   1.337   2.281   9.630 -0.4983  0.6590 -3.0885
   57SAPC  H18S 4228   1.220   2.135   9.607  1.6295  0.9809 -1.0894
   57SAPC  C219 4229   1.209   2.234   9.797  0.7642 -0.0243  0.5539
   57SAPC  H19R 4230   1.106   2.198   9.819  0.1482  1.6800  0.5103
   57SAPC  H19S 4231   1.207   2.340   9.830  0.2140  0.1277  0.0281
   57SAPC  C220 4232   1.307   2.152   9.882  0.5055  0.3458  0.6952
   57SAPC  H20R 4233   1.266   2.155   9.985 -1.6679  0.1757 -0.1292
   57SAPC  H20S 4234   1.411   2.192   9.887  1.1715 -1.5052  2.2957
   57SAPC  H20T 4235   1.307   2.043   9.859  0.2295 -0.0202  2.3711
   57SAPC   C33 4236   0.823   2.987  10.025 -0.4790  0.5387  0.3261
   57SAPC   H3X 4237   0.750   3.061  10.066 -1.4525  0.1389 -0.6845
   57SAPC   H3Y 4238   0.806   2.888  10.071 -0.1319 -0.7450 -2.2712
   57SAPC   C34 4239   0.805   2.987   9.874 -0.2890  0.5525 -0.0414
   57SAPC   H4X 4240   0.702   2.954   9.847  1.0010 -0.1212 -4.6628
   57SAPC   H4Y 4241   0.886   2.927   9.826 -1.9825  0.4288 -2.8977
   57SAPC   C35 4242   0.812   3.133   9.805 -0.3143  0.6076  0.3316
   57SAPC   H5X 4243   0.913   3.174   9.823  0.0619  0.2757 -0.9624
   57SAPC   H5Y 4244   0.729   3.203   9.829 -1.7008 -0.5882 -0.8479
   57SAPC   C36 4245   0.788   3.143   9.649 -0.0225  0.0368 -0.2251
   57SAPC   H6X 4246   0.775   3.250   9.621 -0.9069 -0.8280 -3.3802
   57SAPC   H6Y 4247   0.693   3.091   9.624  0.1278  0.0458 -0.8235
   57SAPC   C37 4248   0.906   3.094   9.568 -0.0680  0.2831  0.0585
   57SAPC   H7X 4249   0.915   2.985   9.587 -0.4140  0.5588  1.9361
   57SAPC   H7Y 4250   0.998   3.145   9.602  0.4749 -1.2351  0.9275
   57SAPC   C38 4251   0.884   3.130   9.416  0.5896  0.0313 -0.1662
   57SAPC   H8X 4252   0.790   3.101   9.363  1.2250  0.8491 -1.7577
   57SAPC   H8Y 4253   0.960   3.071   9.361 -0.8136 -1.1479 -0.9014
   57SAPC   C39 4254   0.919   3.274   9.383 -0.3313  0.1821  0.1582
   57SAPC   H9X 4255   1.013   3.307   9.434  0.2877  0.6295 -1.2335
   57SAPC   H9Y 4256   0.838   3.338   9.424 -2.0029 -1.3744 -0.6752
   57SAPC  C310 4257   0.954   3.293   9.236  0.4046 -0.6776 -0.0897
   57SAPC  H10X 4258   0.867   3.260   9.175  0.3465 -0.7859  0.0522
   57SAPC  H10Y 4259   1.047   3.242   9.203  1.2969  0.2956  0.8848
   57SAPC  C311 4260   0.973   3.444   9.196  0.0702  0.4066 -0.7783
   57SAPC  H11X 4261   1.053   3.489   9.258 -0.5793  0.5225 -0.0266
   57SAPC  H11Y 4262   0.884   3.499   9.233  1.0500  0.9315  0.8330
   57SAPC  C312 4263   0.990   3.452   9.047  0.2162 -0.0770  0.4240
   57SAPC  H12X 4264   1.081   3.398   9.016  1.1562  0.9751  1.2774
   57SAPC  H12Y 4265   1.003   3.562   9.031 -3.6155  0.6307  1.6292
   57SAPC  C313 4266   0.876   3.413   8.952  0.8171 -0.0013  0.5257
   57SAPC  H13X 4267   0.797   3.486   8.980 -0.4113 -0.9585 -0.3607
   57SAPC  H13Y 4268   0.837   3.309   8.961 -2.4885  1.1379 -0.0307
   57SAPC  C314 4269   0.915   3.440   8.801 -0.1662 -0.4153 -0.4788
   57SAPC  H14X 4270   0.986   3.525   8.791  0.4474 -0.9987 -1.1640
   57SAPC  H14Y 4271   0.827   3.470   8.741 -1.1067 -0.2613  0.9417
   57SAPC  C315 4272   0.976   3.318   8.756 -0.1258  0.1987 -0.3825
   57SAPC  H15X 4273   0.928   3.220   8.774  0.5427  0.1311  1.1095
   57SAPC  H15Y 4274   1.069   3.308   8.817 -0.1952  1.2012 -0.1022
   57SAPC  C316 4275   1.010   3.314   8.609 -0.2467 -0.2022  0.2593
   57SAPC  H16X 4276   1.033   3.413   8.564 -2.8090  0.4175  0.2338
   57SAPC  H16Y 4277   0.915   3.289   8.558 -0.4564  1.9098 -0.4254
   57SAPC  C317 4278   1.109   3.207   8.574  1.0145 -0.2964 -0.2857
   57SAPC  H17X 4279   1.086   3.117   8.635 -2.0447 -0.0094 -0.9413
   57SAPC  H17Y 4280   1.212   3.238   8.604  0.3530  0.2850  1.3986
   57SAPC  C318 4281   1.100   3.170   8.431  0.2103  0.2448 -0.6819
   57SAPC  H18X 4282   0.993   3.146   8.408 -0.1565 -0.2602  1.4802
   57SAPC  H18Y 4283   1.153   3.078   8.399 -0.4893 -0.2914 -0.3221
   57SAPC  H18Z 4284   1.122   3.257   8.366 -0.8591  1.0450  0.0068
   58SAPC     N 4285   3.817   0.612  10.861 -0.3963 -1.2965 -0.1239
   58SAPC   C12 4286   3.685   0.545  10.874 -0.3256 -0.8763 -0.2124
   58SAPC  H12A 4287   3.619   0.592  10.944  0.3722 -2.8445  1.8443
   58SAPC  H12B 4288   3.709   0.455  10.929 -1.4464  0.1875  2.0784
   58SAPC   C13 4289   3.874   0.627  10.997  0.1699 -0.0254  0.2983
   58SAPC  H13A 4290   3.947   0.552  11.023  1.6099  1.1474 -0.2937
   58SAPC  H13B 4291   3.924   0.723  10.999  1.4078 -0.6796  1.0307
   58SAPC  H13C 4292   3.792   0.627  11.068  0.6552 -1.6035  0.8923
   58SAPC   C14 4293   3.905   0.534  10.765 -0.6069  0.1835 -0.4753
   58SAPC  H14A 4294   3.910   0.427  10.779 -1.4408  0.0576 -1.0296
   58SAPC  H14B 4295   3.874   0.549  10.662  1.2010  1.5790 -0.8226
   58SAPC  H14C 4296   4.003   0.577  10.770 -1.6484  2.6136 -0.1449
   58SAPC   C15 4297   3.799   0.746  10.801  0.0779 -0.5417 -0.1633
   58SAPC  H15A 4298   3.725   0.806  10.852  0.5909 -0.9327  1.0666
   58SAPC  H15B 4299   3.889   0.805  10.793 -0.6185  0.4625 -0.6577
   58SAPC  H15C 4300   3.765   0.746  10.698 -0.2095  0.4402 -0.0710
   58SAPC   C11 4301   3.608   0.498  10.752  0.5289  0.5505 -0.1961
   58SAPC  H11A 4302   3.531   0.421  10.772  1.7581 -0.6847 -0.1776
   58SAPC  H11B 4303   3.673   0.445  10.679 -1.7976 -1.1195 -1.1119
   58SAPC     P 4304   3.426   0.685  10.748 -0.3848 -0.0853 -0.1290
   58SAPC   O13 4305   3.339   0.577  10.805 -0.2809 -0.0936  0.1910
   58SAPC   O14 4306   3.470   0.782  10.842 -0.0574 -0.2392  0.4378
   58SAPC   O12 4307   3.553   0.612  10.688  0.2327  0.2907 -0.1613
   58SAPC   O11 4308   3.356   0.755  10.624  0.7217 -0.3957 -0.7770
   58SAPC    C1 4309   3.257   0.857  10.636 -0.1062 -0.3031 -0.0644
   58SAPC    HA 4310   3.168   0.817  10.690  0.2164  1.0859  1.5498
   58SAPC    HB 4311   3.305   0.936  10.698 -1.6011 -0.3283  1.1559
   58SAPC    C2 4312   3.232   0.918  10.494 -0.5526  0.3321 -0.2514
   58SAPC    HS 4313   3.204   0.827  10.437 -0.3316 -0.6509  1.1971
   58SAPC   O21 4314   3.357   0.973  10.448 -0.1350 -0.3499 -0.0331
   58SAPC   C21 4315   3.426   0.919  10.342  0.2361 -0.4062  0.4689
   58SAPC   O22 4316   3.380   0.829  10.276  0.9045  0.0088  0.1057
   58SAPC   C22 4317   3.568   0.988  10.334  0.9066 -0.5129 -0.0461
   58SAPC   H2R 4318   3.609   1.005  10.436 -2.7638  0.6055  1.2973
   58SAPC   H2S 4319   3.642   0.934  10.271  1.6007 -0.0271  0.3408
   58SAPC    C3 4320   3.111   1.010  10.489  0.9662  0.0305 -0.1168
   58SAPC    HX 4321   3.124   1.082  10.573 -1.7267  0.7955 -0.3111
   58SAPC    HY 4322   3.019   0.950  10.503  1.3893 -0.7763 -0.8009
   58SAPC   O31 4323   3.094   1.078  10.363  0.1669  0.5023 -0.8127
   58SAPC   C31 4324   3.141   1.201  10.352  0.0951  0.3302 -0.1714
   58SAPC   O32 4325   3.198   1.258  10.439 -0.2059 -0.6525  0.1586
   58SAPC   C32 4326   3.108   1.272  10.212 -0.0706  0.5035 -0.1650
   58SAPC   H2X 4327   3.190   1.345  10.195  2.6323 -2.4201 -0.1336
   58SAPC   H2Y 4328   3.011   1.319  10.235 -1.0603 -1.7059  0.3609
   58SAPC   C23 4329   3.556   1.134  10.287  0.0367 -0.6675 -0.4465
   58SAPC   H3R 4330   3.656   1.183  10.288 -0.9475  1.3910  0.2129
   58SAPC   H3S 4331   3.490   1.190  10.357  0.9001  1.3205 -1.1776
   58SAPC   C24 4332   3.504   1.148  10.146  0.3824 -0.2686 -0.0856
   58SAPC   H4R 4333   3.407   1.094  10.141  0.0540  0.3217 -0.0970
   58SAPC   H4S 4334   3.586   1.100  10.087  2.3577  2.4978  0.3227
   58SAPC   C25 4335   3.503   1.287  10.090 -1.0516  0.2017 -0.2606
   58SAPC   H5R 4336   3.518   1.361  10.170 -0.2479 -1.1981  0.8938
   58SAPC   C26 4337   3.491   1.320   9.958 -0.2285  0.0736 -0.2687
   58SAPC   H6R 4338   3.500   1.429   9.945  1.4324  0.0578  0.5773
   58SAPC   C27 4339   3.480   1.221   9.841  0.0146  0.5078  0.0198
   58SAPC   H7R 4340   3.425   1.253   9.750 -0.8651  1.3894  0.8482
   58SAPC   H7S 4341   3.417   1.138   9.879 -0.7879  2.0509  2.1519
   58SAPC   C28 4342   3.615   1.167   9.795  0.1486  0.4947  0.2208
   58SAPC   H8R 4343   3.632   1.060   9.815  0.5271  1.1416  3.7261
   58SAPC   C29 4344   3.715   1.231   9.739  0.2741 -0.1678  0.1268
   58SAPC   H9R 4345   3.809   1.179   9.717  0.3118 -0.9438  2.0899
   58SAPC  C210 4346   3.715   1.375   9.708 -0.0765 -0.0164  1.0940
   58SAPC  H10R 4347   3.819   1.404   9.686 -0.2526 -0.1849  0.0371
   58SAPC  H10S 4348   3.669   1.424   9.797 -0.5544  1.1114  0.2304
   58SAPC  C211 4349   3.631   1.407   9.582  0.2193 -0.6516 -0.0183
   58SAPC  H11R 4350   3.540   1.458   9.616  0.6366 -0.2231  0.4710
   58SAPC  C212 4351   3.660   1.383   9.450 -0.2750 -0.0723  0.6021
   58SAPC  H12R 4352   3.591   1.424   9.374  1.5092  1.8112 -0.0580
   58SAPC  C213 4353   3.782   1.308   9.388  0.4576  0.1729  0.6230
   58SAPC  H13R 4354   3.862   1.314   9.465 -0.1882 -0.4876  1.3444
   58SAPC  H13S 4355   3.820   1.363   9.299  2.2607  1.3003  2.0351
   58SAPC  C214 4356   3.753   1.167   9.363  0.2219  0.1605  0.2821
   58SAPC  H14R 4357   3.724   1.120   9.458  2.2410  4.2881  3.0582
   58SAPC  C215 4358   3.751   1.097   9.245  0.2138 -0.0985  0.4655
   58SAPC  H15R 4359   3.753   0.987   9.235  0.9160  0.0318 -1.0070
   58SAPC  C216 4360   3.781   1.160   9.109  0.0515  0.2121  0.1471
   58SAPC  H16R 4361   3.733   1.260   9.112 -2.6309 -0.9517 -1.6229
   58SAPC  H16S 4362   3.748   1.095   9.025  1.1136 -1.4695  0.9960
   58SAPC  C217 4363   3.940   1.168   9.091  0.1163 -0.4782  0.0192
   58SAPC  H17R 4364   4.000   1.101   9.156  0.5172 -1.1362 -1.0294
   58SAPC  H17S 4365   3.976   1.271   9.109  2.7876 -1.2813 -0.5673
   58SAPC  C218 4366   3.989   1.130   8.950  0.0026  0.6780 -0.0987
   58SAPC  H18R 4367   3.956   1.215   8.887  5.4245  2.2404 -1.0711
   58SAPC  H18S 4368   3.948   1.034   8.912  1.7756 -0.2643  0.3484
   58SAPC  C219 4369   4.140   1.132   8.922 -0.1145  0.6122  0.2665
   58SAPC  H19R 4370   4.199   1.052   8.972 -1.4282 -0.4704  0.0886
   58SAPC  H19S 4371   4.185   1.220   8.973  1.0710 -1.4279  2.8568
   58SAPC  C220 4372   4.172   1.123   8.775 -0.1761  0.2341 -0.9721
   58SAPC  H20R 4373   4.118   1.197   8.713  1.1143  2.5333  0.5705
   58SAPC  H20S 4374   4.136   1.025   8.736 -0.6475  0.4605 -1.1153
   58SAPC  H20T 4375   4.279   1.140   8.754 -0.5974  1.8762 -1.8872
   58SAPC   C33 4376   3.080   1.171  10.095 -0.4631  0.5684 -0.4239
   58SAPC   H3X 4377   2.986   1.113  10.110 -0.9145  1.0682 -1.2634
   58SAPC   H3Y 4378   3.165   1.100  10.093 -2.4702 -1.9007 -1.2443
   58SAPC   C34 4379   3.074   1.232   9.951  0.5718 -0.3566 -0.1859
   58SAPC   H4X 4380   3.160   1.301   9.936  0.0986  0.0336 -1.0983
   58SAPC   H4Y 4381   2.984   1.297   9.952 -0.8322 -2.2430  0.5150
   58SAPC   C35 4382   3.060   1.126   9.830  0.3092 -0.2463 -0.2969
   58SAPC   H5X 4383   2.988   1.044   9.852  0.8940 -0.1609  2.0361
   58SAPC   H5Y 4384   3.156   1.072   9.813  1.2704  0.9728  1.1275
   58SAPC   C36 4385   3.008   1.175   9.691 -0.0665  0.1615 -0.1216
   58SAPC   H6X 4386   2.905   1.215   9.705  0.4979  0.8541  2.2447
   58SAPC   H6Y 4387   2.992   1.089   9.623 -2.3354  0.1214  0.4292
   58SAPC   C37 4388   3.086   1.293   9.620  0.1270  0.0532 -0.2913
   58SAPC   H7X 4389   3.186   1.252   9.593  0.7224  0.2233  1.5432
   58SAPC   H7Y 4390   3.099   1.376   9.693 -0.7560 -0.4249  0.4164
   58SAPC   C38 4391   3.005   1.341   9.498 -0.0326 -0.6502 -0.6339
   58SAPC   H8X 4392   2.896   1.346   9.517  0.4398  3.5912  1.6927
   58SAPC   H8Y 4393   3.008   1.268   9.415 -0.8487 -0.1220 -1.1335
   58SAPC   C39 4394   3.056   1.481   9.446  0.1376  0.4579 -0.2882
   58SAPC   H9X 4395   3.167   1.475   9.441  0.3946  1.5431  3.2514
   58SAPC   H9Y 4396   3.041   1.555   9.527 -0.5618 -3.1447  3.0808
   58SAPC  C310 4397   3.002   1.522   9.313 -0.0731 -0.0453 -0.8922
   58SAPC  H10X 4398   2.917   1.593   9.325  0.0670  0.1641 -1.1230
   58SAPC  H10Y 4399   2.956   1.433   9.267  1.1436 -1.3287  0.3227
   58SAPC  C311 4400   3.100   1.591   9.218  0.4161 -0.4111 -0.0853
   58SAPC  H11X 4401   3.195   1.535   9.204 -1.2128 -3.2849 -0.0282
   58SAPC  H11Y 4402   3.126   1.680   9.279 -3.2104  0.0477  0.9303
   58SAPC  C312 4403   3.046   1.634   9.084  0.2478 -0.6118  0.2947
   58SAPC  H12X 4404   3.023   1.552   9.013 -0.2709  1.3158 -1.8271
   58SAPC  H12Y 4405   3.113   1.711   9.039  0.6504 -0.1168  1.7172
   58SAPC  C313 4406   2.915   1.716   9.092 -0.7664 -0.3654 -0.0410
   58SAPC  H13X 4407   2.930   1.774   9.186  3.7420  0.5257 -1.1574
   58SAPC  H13Y 4408   2.822   1.656   9.100  0.8616 -2.9284  0.3192
   58SAPC  C314 4409   2.904   1.809   8.969  0.4832  0.4925 -0.3392
   58SAPC  H14X 4410   2.909   1.749   8.875 -1.2151 -0.2898  0.0424
   58SAPC  H14Y 4411   2.987   1.882   8.965 -0.6503  1.8251  0.0885
   58SAPC  C315 4412   2.766   1.876   8.977 -0.7622 -0.4096 -0.6796
   58SAPC  H15X 4413   2.771   1.971   8.920  0.6572 -0.6915 -1.0517
   58SAPC  H15Y 4414   2.732   1.912   9.077  2.5724 -1.9324  1.0916
   58SAPC  C316 4415   2.651   1.791   8.912 -0.3436 -0.3448 -0.3298
   58SAPC  H16X 4416   2.628   1.709   8.983  1.9057  0.0895  0.9477
   58SAPC  H16Y 4417   2.689   1.750   8.816 -3.7948 -0.1261 -1.8398
   58SAPC  C317 4418   2.526   1.876   8.887  0.1783  0.7039 -0.5523
   58SAPC  H17X 4419   2.551   1.980   8.858 -2.4630  1.7392  0.7386
   58SAPC  H17Y 4420   2.470   1.882   8.983 -2.8260 -1.2618 -2.1190
   58SAPC  C318 4421   2.441   1.833   8.767  0.7730 -0.3963  0.5193
   58SAPC  H18X 4422   2.354   1.900   8.752  0.6754 -0.7614 -0.6388
   58SAPC  H18Y 4423   2.392   1.737   8.797  0.3212 -0.8129 -1.4557
   58SAPC  H18Z 4424   2.501   1.834   8.673  1.4498  0.1605  0.9628
   59SAPC     N 4425   4.426   2.398  11.155  0.8594  0.1515 -0.1808
   59SAPC   C12 4426   4.557   2.421  11.096 -0.0713 -0.0668  0.5749
   59SAPC  H12A 4427   4.630   2.416  11.175 -0.4517  2.0844  1.0826
   59SAPC  H12B 4428   4.560   2.522  11.057  0.4101 -0.0326  0.7019
   59SAPC   C13 4429   4.402   2.479  11.273 -0.7410 -0.3827  0.3304
   59SAPC  H13A 4430   4.304   2.459  11.313 -1.3964 -3.6010 -2.6070
   59SAPC  H13B 4431   4.471   2.463  11.354  0.7243  0.4612 -0.7238
   59SAPC  H13C 4432   4.413   2.585  11.257  1.3665 -0.3919  1.6429
   59SAPC   C14 4433   4.317   2.435  11.055 -0.4657 -0.1033 -0.1081
   59SAPC  H14A 4434   4.332   2.540  11.038 -0.5474 -0.3100 -1.5663
   59SAPC  H14B 4435   4.322   2.403  10.951  4.2889 -2.5092  0.7539
   59SAPC  H14C 4436   4.218   2.417  11.095 -0.1900  0.2183  0.7212
   59SAPC   C15 4437   4.418   2.255  11.183  0.0975  0.2014 -0.0940
   59SAPC  H15A 4438   4.490   2.221  11.257  0.5092 -0.1350 -0.6502
   59SAPC  H15B 4439   4.316   2.222  11.192  0.8466 -2.4635 -0.9321
   59SAPC  H15C 4440   4.453   2.205  11.094  1.7618 -1.6626  1.5476
   59SAPC   C11 4441   4.625   2.330  10.982  0.3741  0.1863 -0.0273
   59SAPC  H11A 4442   4.713   2.383  10.941 -0.7685 -0.5888 -3.6070
   59SAPC  H11B 4443   4.551   2.335  10.899 -1.3715  3.2223  1.5954
   59SAPC     P 4444   4.748   2.134  11.113  0.2081  0.0983 -0.1170
   59SAPC   O13 4445   4.778   2.239  11.209  0.0816  0.3836  0.4639
   59SAPC   O14 4446   4.696   2.005  11.159  0.0454  0.2819 -0.0722
   59SAPC   O12 4447   4.646   2.189  11.007  0.1010  0.2388  0.0232
   59SAPC   O11 4448   4.871   2.100  11.025 -0.0861 -0.0717  0.4395
   59SAPC    C1 4449   4.866   2.026  10.905  0.9666  0.4928  0.4110
   59SAPC    HA 4450   4.838   1.921  10.929  2.0640  0.2926  0.8747
   59SAPC    HB 4451   4.796   2.070  10.831  1.2410  0.3833  0.0879
   59SAPC    C2 4452   5.009   2.008  10.834 -0.1767 -0.4543  0.3980
   59SAPC    HS 4453   5.075   1.972  10.916  1.1570  1.3547  0.1459
   59SAPC   O21 4454   5.050   2.127  10.775 -0.1981  0.3367 -0.2744
   59SAPC   C21 4455   5.183   2.131  10.758 -0.1881  0.8996  0.2066
   59SAPC   O22 4456   5.264   2.050  10.794  0.1492 -0.3072  0.9522
   59SAPC   C22 4457   5.221   2.260  10.682 -0.2084 -0.2192 -0.5817
   59SAPC   H2R 4458   5.136   2.302  10.623 -0.1007 -1.2036 -1.4552
   59SAPC   H2S 4459   5.265   2.328  10.758 -0.1849 -1.0247  0.1367
   59SAPC    C3 4460   5.005   1.905  10.718  0.5797 -0.8686  0.2322
   59SAPC    HX 4461   4.961   1.809  10.752 -0.3207 -1.1438 -1.6440
   59SAPC    HY 4462   5.109   1.880  10.687  0.4170 -0.7417 -0.4137
   59SAPC   O31 4463   4.948   1.963  10.596 -0.4267  0.1238 -0.1044
   59SAPC   C31 4464   4.815   1.949  10.578 -0.1733  0.0539 -0.1038
   59SAPC   O32 4465   4.745   1.890  10.655 -0.1351  0.1529 -0.3728
   59SAPC   C32 4466   4.775   1.996  10.436 -0.0252  0.2105  0.3944
   59SAPC   H2X 4467   4.764   2.106  10.437  2.4578  0.5219 -1.3797
   59SAPC   H2Y 4468   4.678   1.946  10.413 -1.3664  2.3097  1.3505
   59SAPC   C23 4469   5.348   2.242  10.585  0.3996  0.3787 -0.3733
   59SAPC   H3R 4470   5.435   2.201  10.640 -0.3232  0.1676  0.6291
   59SAPC   H3S 4471   5.368   2.342  10.541 -1.0894  1.6457  1.7216
   59SAPC   C24 4472   5.316   2.162  10.457 -0.0168 -0.6628  0.8313
   59SAPC   H4R 4473   5.274   2.063  10.485  2.3329 -2.3207 -1.2670
   59SAPC   H4S 4474   5.411   2.135  10.406  0.1560 -1.4574  1.5537
   59SAPC   C25 4475   5.225   2.233  10.364 -0.1056 -0.3222 -0.0281
   59SAPC   H5R 4476   5.120   2.243  10.397  0.2863  0.0412  1.1590
   59SAPC   C26 4477   5.262   2.285  10.244  0.2197  0.0545 -0.0786
   59SAPC   H6R 4478   5.179   2.325  10.184 -1.2405 -0.1531  1.7569
   59SAPC   C27 4479   5.395   2.288  10.175  0.1926 -0.3766 -0.3427
   59SAPC   H7R 4480   5.412   2.199  10.110 -0.3444 -1.2749  0.7279
   59SAPC   H7S 4481   5.485   2.302  10.239 -0.1942 -0.7419  0.2938
   59SAPC   C28 4482   5.395   2.415  10.091 -0.5454 -0.3831  0.2875
   59SAPC   H8R 4483   5.421   2.509  10.141 -2.4358  0.2968  0.0427
   59SAPC   C29 4484   5.380   2.424   9.957 -0.5417 -0.0472 -0.0414
   59SAPC   H9R 4485   5.385   2.525   9.913  0.6030 -0.0111  0.1743
   59SAPC  C210 4486   5.355   2.306   9.866 -0.4821  0.0296 -0.2750
   59SAPC  H10R 4487   5.269   2.330   9.799  0.6278  3.0609 -0.6832
   59SAPC  H10S 4488   5.317   2.218   9.922  0.1213  0.0847  0.2226
   59SAPC  C211 4489   5.480   2.262   9.784  0.0357 -0.7132 -0.0749
   59SAPC  H11R 4490   5.561   2.220   9.845  1.7693  1.8708 -0.5352
   59SAPC  C212 4491   5.492   2.270   9.653 -0.8992 -0.7170  0.1079
   59SAPC  H12R 4492   5.580   2.214   9.616 -0.4288 -1.3785  2.1883
   59SAPC  C213 4493   5.390   2.330   9.558  0.4337  0.4324 -0.7851
   59SAPC  H13R 4494   5.299   2.368   9.608  0.2843 -2.6710  1.4690
   59SAPC  H13S 4495   5.368   2.250   9.484  4.9793 -0.2423 -1.5970
   59SAPC  C214 4496   5.452   2.450   9.500  0.9142  0.3050 -0.5222
   59SAPC  H14R 4497   5.491   2.522   9.573 -0.4925 -0.7778  1.3566
   59SAPC  C215 4498   5.456   2.472   9.369  0.4537  0.4578 -0.6886
   59SAPC  H15R 4499   5.516   2.560   9.342  2.2363  0.0799  1.9153
   59SAPC  C216 4500   5.404   2.396   9.260  0.5231 -0.5651 -0.2713
   59SAPC  H16R 4501   5.331   2.467   9.216  1.5017  0.3151 -0.4784
   59SAPC  H16S 4502   5.349   2.308   9.301  0.9331 -0.9755 -0.5910
   59SAPC  C217 4503   5.494   2.346   9.142  0.2796  0.1072  0.2751
   59SAPC  H17R 4504   5.449   2.249   9.112 -0.4276  0.4140  0.3472
   59SAPC  H17S 4505   5.600   2.329   9.173  0.8608  0.0853 -1.6930
   59SAPC  C218 4506   5.522   2.437   9.021 -0.0059 -0.4383  0.5034
   59SAPC  H18R 4507   5.583   2.527   9.045 -0.4330 -0.1895  0.6639
   59SAPC  H18S 4508   5.428   2.490   8.995  0.7532  1.3115  1.2532
   59SAPC  C219 4509   5.569   2.362   8.894  0.0772  0.0607  1.2606
   59SAPC  H19R 4510   5.510   2.268   8.898 -2.8013  1.8302  1.9393
   59SAPC  H19S 4511   5.677   2.335   8.896  0.3927  1.3052  1.5713
   59SAPC  C220 4512   5.547   2.418   8.756 -0.4981  0.1852  0.1098
   59SAPC  H20R 4513   5.443   2.414   8.717 -0.5687 -0.0221  0.3196
   59SAPC  H20S 4514   5.611   2.367   8.681 -1.2469  0.4290 -0.7076
   59SAPC  H20T 4515   5.583   2.523   8.766 -0.0820  0.2403 -1.7472
   59SAPC   C33 4516   4.893   1.973  10.334 -0.4004 -0.5202 -0.3621
   59SAPC   H3X 4517   4.910   1.866  10.311  0.3846 -0.4940  0.0737
   59SAPC   H3Y 4518   4.987   2.018  10.372 -0.4716 -0.8108  0.1656
   59SAPC   C34 4519   4.869   2.051  10.199  0.2023 -0.3723 -0.4981
   59SAPC   H4X 4520   4.863   2.161  10.217 -1.6454 -0.8067  1.9163
   59SAPC   H4Y 4521   4.764   2.025  10.172 -0.1994  0.5500  0.1060
   59SAPC   C35 4522   4.981   2.025  10.101  0.6142 -0.2186 -0.3077
   59SAPC   H5X 4523   5.006   1.917  10.092  1.4516 -0.0803  0.3017
   59SAPC   H5Y 4524   5.066   2.082  10.144 -1.2247  1.6312  0.9448
   59SAPC   C36 4525   4.961   2.075   9.962 -0.7349  0.8317  0.4849
   59SAPC   H6X 4526   4.944   2.184   9.974 -0.3241  0.8266  1.1479
   59SAPC   H6Y 4527   4.862   2.044   9.921 -0.0953 -0.2098 -0.2621
   59SAPC   C37 4528   5.072   2.043   9.864 -0.0459 -0.1455  0.4982
   59SAPC   H7X 4529   5.069   1.933   9.854 -0.5345 -0.0691 -0.2169
   59SAPC   H7Y 4530   5.174   2.067   9.903  0.9051 -3.4493  0.1246
   59SAPC   C38 4531   5.057   2.116   9.729 -0.0521 -0.8994  0.3342
   59SAPC   H8X 4532   5.080   2.223   9.749 -0.6501 -0.9802  1.4948
   59SAPC   H8Y 4533   4.950   2.109   9.698  0.0950  0.4404 -0.5204
   59SAPC   C39 4534   5.139   2.063   9.617  0.5503 -0.5164  0.4052
   59SAPC   H9X 4535   5.137   1.952   9.614  0.2038 -0.5877  2.4287
   59SAPC   H9Y 4536   5.246   2.086   9.639  0.2699 -0.0194  1.2692
   59SAPC  C310 4537   5.091   2.106   9.482 -0.2022  0.2913  0.0197
   59SAPC  H10X 4538   5.095   2.217   9.474 -1.1333  0.5262  2.4478
   59SAPC  H10Y 4539   4.985   2.080   9.463 -0.7383  3.2771 -1.3026
   59SAPC  C311 4540   5.166   2.043   9.366 -0.3231  0.2014  0.5229
   59SAPC  H11X 4541   5.169   1.933   9.385  2.8138 -0.3426 -2.5023
   59SAPC  H11Y 4542   5.273   2.072   9.360  0.0674 -1.5324 -1.8075
   59SAPC  C312 4543   5.115   2.078   9.228  0.4301  0.1189  0.0753
   59SAPC  H12X 4544   5.092   2.187   9.224 -3.5199 -0.5964  0.5341
   59SAPC  H12Y 4545   5.015   2.032   9.213 -2.2473  5.4023  0.5191
   59SAPC  C313 4546   5.214   2.046   9.115  0.3407  0.1613  0.6041
   59SAPC  H13X 4547   5.221   1.937   9.095  1.2282  0.0671  1.4421
   59SAPC  H13Y 4548   5.315   2.085   9.137  1.3949 -1.0850 -1.8125
   59SAPC  C314 4549   5.165   2.106   8.979  0.3362 -0.0896 -0.0436
   59SAPC  H14X 4550   5.146   2.213   9.003  0.1286 -0.1856  0.2356
   59SAPC  H14Y 4551   5.070   2.054   8.952 -1.0171  1.0902  2.2528
   59SAPC  C315 4552   5.267   2.075   8.863  0.5828 -0.7483  0.3915
   59SAPC  H15X 4553   5.290   1.967   8.873 -0.5282 -1.2390 -1.9697
   59SAPC  H15Y 4554   5.362   2.130   8.884  0.0433 -0.2901  1.6696
   59SAPC  C316 4555   5.226   2.099   8.713  0.2733 -0.4466  0.5807
   59SAPC  H16X 4556   5.234   2.209   8.696  1.2411 -0.6928 -0.6453
   59SAPC  H16Y 4557   5.122   2.064   8.694  0.9997 -2.8004  0.7998
   59SAPC  C317 4558   5.303   2.001   8.620 -0.1725  0.5130  0.8573
   59SAPC  H17X 4559   5.248   1.907   8.601 -0.3027  0.4247  1.6527
   59SAPC  H17Y 4560   5.398   1.974   8.671 -1.9179 -2.2168  2.7769
   59SAPC  C318 4561   5.322   2.065   8.482 -0.1929  0.3472  0.4332
   59SAPC  H18X 4562   5.420   2.118   8.473  2.5832 -3.9764  3.1292
   59SAPC  H18Y 4563   5.234   2.130   8.466  0.3721  1.7133  2.6160
   59SAPC  H18Z 4564   5.326   1.987   8.403  2.1368 -0.9069  1.7000
   60SAPC     N 4565   5.985   0.476  11.070  0.2959 -0.1417  0.4368
   60SAPC   C12 4566   5.974   0.527  10.932  0.4001  0.1248  0.5199
   60SAPC  H12A 4567   5.939   0.627  10.913 -1.2625 -0.8941 -2.0716
   60SAPC  H12B 4568   5.900   0.467  10.880 -0.2893 -1.1119  2.8430
   60SAPC   C13 4569   6.038   0.333  11.072  0.1411 -0.1577 -0.2480
   60SAPC  H13A 4570   6.028   0.287  11.169 -0.3751  0.8364  0.1825
   60SAPC  H13B 4571   5.985   0.272  11.001 -0.8893 -0.2579  0.5876
   60SAPC  H13C 4572   6.143   0.325  11.052  0.2184  1.8718 -0.8448
   60SAPC   C14 4573   6.067   0.571  11.158 -0.1923  0.3050  0.4228
   60SAPC  H14A 4574   6.022   0.669  11.165  0.9110  0.9172 -0.8289
   60SAPC  H14B 4575   6.081   0.540  11.260  0.2441  0.3057  0.3650
   60SAPC  H14C 4576   6.164   0.574  11.109 -0.2464  1.2142  0.3622
   60SAPC   C15 4577   5.854   0.463  11.146 -0.1450 -0.9291  0.2500
   60SAPC  H15A 4578   5.799   0.380  11.104 -0.0091 -0.9467  0.1068
   60SAPC  H15B 4579   5.866   0.443  11.252  0.3395 -0.3802  0.2987
   60SAPC  H15C 4580   5.804   0.558  11.134  2.3007  0.2576 -0.9150
   60SAPC   C11 4581   6.103   0.533  10.847  0.4423  0.0725 -0.4447
   60SAPC  H11A 4582   6.062   0.546  10.745  0.7712  1.4812 -0.3969
   60SAPC  H11B 4583   6.154   0.434  10.844  2.7331  1.1173  1.9584
   60SAPC     P 4584   6.208   0.769  10.822  0.0726 -0.2743 -0.5210
   60SAPC   O13 4585   6.068   0.824  10.829 -0.2084 -0.0173  0.3777
   60SAPC   O14 4586   6.307   0.847  10.889  0.9590  0.0304 -0.0987
   60SAPC   O12 4587   6.199   0.623  10.885 -0.2708 -0.3003 -0.4377
   60SAPC   O11 4588   6.251   0.744  10.674 -0.4981  0.4115  0.5614
   60SAPC    C1 4589   6.191   0.816  10.568 -0.1598  0.3920  0.8543
   60SAPC    HA 4590   6.081   0.804  10.554  0.0387  0.6662 -1.1364
   60SAPC    HB 4591   6.213   0.923  10.586  3.8152 -0.4273  1.1493
   60SAPC    C2 4592   6.262   0.776  10.437  0.4663 -0.3969 -0.1862
   60SAPC    HS 4593   6.234   0.856  10.365 -1.7964 -0.0707  0.9843
   60SAPC   O21 4594   6.222   0.644  10.389  0.3217  0.1980  0.3385
   60SAPC   C21 4595   6.190   0.628  10.258 -0.0087 -0.0685  0.1132
   60SAPC   O22 4596   6.190   0.715  10.174 -0.3282 -0.0249 -0.1833
   60SAPC   C22 4597   6.164   0.481  10.226 -0.2871  0.2266  0.1549
   60SAPC   H2R 4598   6.113   0.432  10.312 -0.8249  1.2506  0.4270
   60SAPC   H2S 4599   6.093   0.467  10.142  1.0675 -0.2479 -0.9249
   60SAPC    C3 4600   6.420   0.788  10.450 -0.3261  0.2700  0.0175
   60SAPC    HX 4601   6.454   0.714  10.525 -0.8149  0.5674  0.5349
   60SAPC    HY 4602   6.431   0.890  10.492  2.1777  0.7089 -1.5955
   60SAPC   O31 4603   6.484   0.760  10.325  0.1302  0.4333  0.1989
   60SAPC   C31 4604   6.511   0.869  10.249 -0.2707  0.3040 -0.1203
   60SAPC   O32 4605   6.511   0.985  10.292 -1.0670 -0.0776  0.2795
   60SAPC   C32 4606   6.556   0.830  10.113  0.8108 -0.0091  0.7431
   60SAPC   H2X 4607   6.496   0.751  10.064  0.2785  0.7725  0.1078
   60SAPC   H2Y 4608   6.658   0.788  10.121 -0.2456 -2.7657  0.0075
   60SAPC   C23 4609   6.298   0.408  10.198  0.5120  0.5120  0.3040
   60SAPC   H3R 4610   6.268   0.303  10.180 -0.0071  0.6680  0.2676
   60SAPC   H3S 4611   6.367   0.391  10.284  0.8445  0.3732  0.0124
   60SAPC   C24 4612   6.377   0.456  10.075  0.0291  0.0068 -0.1351
   60SAPC   H4R 4613   6.472   0.399  10.081  0.5543  0.9865  0.7927
   60SAPC   H4S 4614   6.403   0.561  10.099 -1.8125 -0.0450  2.2823
   60SAPC   C25 4615   6.293   0.430   9.947 -0.7541 -0.2250  0.2278
   60SAPC   H5R 4616   6.266   0.326   9.923 -0.2074 -0.3005 -0.0734
   60SAPC   C26 4617   6.272   0.527   9.853 -0.0254 -0.1997 -0.2149
   60SAPC   H6R 4618   6.219   0.500   9.761 -1.2207 -1.0364  0.6969
   60SAPC   C27 4619   6.314   0.667   9.868  1.3954 -1.2502 -0.3468
   60SAPC   H7R 4620   6.417   0.687   9.830  1.1676  0.3763 -0.1385
   60SAPC   H7S 4621   6.316   0.707   9.971  2.4010 -2.0411 -0.0387
   60SAPC   C28 4622   6.223   0.751   9.790 -0.1176 -0.0989 -0.7471
   60SAPC   H8R 4623   6.138   0.793   9.847 -0.7540 -2.8870  0.4327
   60SAPC   C29 4624   6.226   0.774   9.654  0.4375 -0.0759  0.9860
   60SAPC   H9R 4625   6.150   0.842   9.612  2.6112  1.5786 -0.3955
   60SAPC  C210 4626   6.322   0.715   9.552 -0.2209 -0.2074 -0.5158
   60SAPC  H10R 4627   6.416   0.682   9.601 -0.5333  0.3668  0.4811
   60SAPC  H10S 4628   6.360   0.792   9.481  0.0739 -0.2163 -0.3710
   60SAPC  C211 4629   6.284   0.585   9.485 -0.2764  0.5861 -0.1462
   60SAPC  H11R 4630   6.224   0.515   9.545  0.5884  0.5143  0.6426
   60SAPC  C212 4631   6.291   0.558   9.348 -0.9209 -0.5935  0.0006
   60SAPC  H12R 4632   6.267   0.454   9.319 -2.2395  0.0644 -1.3181
   60SAPC  C213 4633   6.344   0.646   9.241 -0.1526  0.8327  0.4851
   60SAPC  H13R 4634   6.399   0.582   9.169 -0.2360  1.9484 -0.5931
   60SAPC  H13S 4635   6.405   0.727   9.287  0.3473 -0.0992  1.4956
   60SAPC  C214 4636   6.224   0.699   9.166 -0.6751  0.1491  0.4275
   60SAPC  H14R 4637   6.153   0.761   9.223 -4.0562 -4.4224  1.5564
   60SAPC  C215 4638   6.192   0.679   9.036  0.1241  0.3033  0.0349
   60SAPC  H15R 4639   6.096   0.716   8.999 -1.4039 -1.0034  2.5765
   60SAPC  C216 4640   6.275   0.608   8.932 -0.2503  0.1254 -0.2830
   60SAPC  H16R 4641   6.247   0.500   8.926  0.7556 -0.1383 -0.3600
   60SAPC  H16S 4642   6.379   0.615   8.969 -0.2234 -1.8735  0.0733
   60SAPC  C217 4643   6.279   0.668   8.792  0.0899 -0.1907 -0.0350
   60SAPC  H17R 4644   6.291   0.778   8.787  3.3274 -0.3597  2.2557
   60SAPC  H17S 4645   6.183   0.645   8.742 -0.4129 -0.0506  0.8655
   60SAPC  C218 4646   6.401   0.604   8.712  0.3001 -0.2395 -0.0701
   60SAPC  H18R 4647   6.376   0.498   8.690  0.3539  0.1309 -2.0653
   60SAPC  H18S 4648   6.494   0.602   8.772  0.8572 -1.2540 -0.9485
   60SAPC  C219 4649   6.431   0.687   8.589  0.0867  0.0734 -0.5449
   60SAPC  H19R 4650   6.469   0.788   8.614  2.7817 -1.4606  1.7947
   60SAPC  H19S 4651   6.332   0.694   8.539 -1.2973  1.5797  2.3141
   60SAPC  C220 4652   6.539   0.630   8.507 -0.4851  0.0963 -0.1858
   60SAPC  H20R 4653   6.528   0.519   8.506 -3.1388  0.2902  1.4186
   60SAPC  H20S 4654   6.639   0.645   8.554  0.1872 -3.3447 -0.4182
   60SAPC  H20T 4655   6.534   0.664   8.401 -0.8986 -1.1042 -0.5592
   60SAPC   C33 4656   6.564   0.941  10.005  0.8024 -0.0253  0.4450
   60SAPC   H3X 4657   6.599   1.031  10.059  2.7756  0.1018 -1.0200
   60SAPC   H3Y 4658   6.457   0.958   9.980  1.4779  0.4270 -2.2994
   60SAPC   C34 4659   6.630   0.906   9.880  0.1308  0.4212  0.7672
   60SAPC   H4X 4660   6.607   0.800   9.858  0.9263  0.3377  0.3258
   60SAPC   H4Y 4661   6.739   0.927   9.885  0.0350  1.0965  0.1984
   60SAPC   C35 4662   6.579   0.983   9.753  0.6319  0.0621 -0.1097
   60SAPC   H5X 4663   6.579   1.093   9.767 -1.6427 -0.1726  2.0503
   60SAPC   H5Y 4664   6.470   0.959   9.751  0.1387  2.0119  1.9028
   60SAPC   C36 4665   6.658   0.935   9.624 -0.0824 -0.5746 -0.9347
   60SAPC   H6X 4666   6.651   0.825   9.613  0.1365 -0.7738  0.8057
   60SAPC   H6Y 4667   6.762   0.964   9.651 -0.9866  0.8769  1.1252
   60SAPC   C37 4668   6.617   1.003   9.490 -0.1542 -0.2176  0.0284
   60SAPC   H7X 4669   6.605   1.113   9.505 -0.0356 -0.3785  1.3998
   60SAPC   H7Y 4670   6.519   0.962   9.457  0.1108 -1.6425  0.9574
   60SAPC   C38 4671   6.712   0.971   9.364  0.5068 -0.3191 -0.1579
   60SAPC   H8X 4672   6.704   0.863   9.337  2.7945  0.0563 -2.4988
   60SAPC   H8Y 4673   6.815   0.996   9.395  0.3014 -0.1403  0.3832
   60SAPC   C39 4674   6.684   1.054   9.235  0.1527 -0.1413 -0.0408
   60SAPC   H9X 4675   6.697   1.160   9.263  1.4894 -0.3475  0.1701
   60SAPC   H9Y 4676   6.582   1.030   9.197  1.1149 -2.0600 -1.5077
   60SAPC  C310 4677   6.785   1.020   9.126 -0.2166 -0.2028 -0.7581
   60SAPC  H10X 4678   6.795   0.910   9.114  0.4826 -0.4224  1.7585
   60SAPC  H10Y 4679   6.888   1.054   9.149  0.9408 -1.1158 -4.1487
   60SAPC  C311 4680   6.732   1.064   8.989  1.2156 -0.1942  0.3315
   60SAPC  H11X 4681   6.698   1.169   8.988  0.8305 -0.3224 -0.2453
   60SAPC  H11Y 4682   6.637   1.016   8.959  1.2855  0.4115 -0.8752
   60SAPC  C312 4683   6.820   1.037   8.876  0.4845 -0.4610  1.2382
   60SAPC  H12X 4684   6.873   0.939   8.877 -1.1591 -1.4254 -0.8513
   60SAPC  H12Y 4685   6.901   1.112   8.877 -0.1448  0.2352  0.5216
   60SAPC  C313 4686   6.735   1.043   8.747  0.7668 -0.4790  0.7110
   60SAPC  H13X 4687   6.673   1.135   8.752 -1.1714 -1.4873 -3.1321
   60SAPC  H13Y 4688   6.665   0.958   8.734  1.0803 -0.4271 -1.5331
   60SAPC  C314 4689   6.805   1.041   8.615 -0.4912 -0.3564 -0.9407
   60SAPC  H14X 4690   6.858   0.944   8.609  0.0518 -0.1313 -0.0147
   60SAPC  H14Y 4691   6.878   1.123   8.598  2.3035 -2.9124 -1.6812
   60SAPC  C315 4692   6.700   1.042   8.505 -0.6705 -0.1488  0.0250
   60SAPC  H15X 4693   6.625   1.121   8.527 -0.7566  0.5267 -2.4706
   60SAPC  H15Y 4694   6.652   0.942   8.515 -2.8386  0.7381 -1.0717
   60SAPC  C316 4695   6.759   1.081   8.372 -0.0764  0.3349  0.5093
   60SAPC  H16X 4696   6.840   1.017   8.331 -2.6124 -1.5319 -1.7402
   60SAPC  H16Y 4697   6.801   1.184   8.382  1.6454 -0.1915 -1.0064
   60SAPC  C317 4698   6.654   1.085   8.257  0.0102  0.3728 -0.8710
   60SAPC  H17X 4699   6.572   1.157   8.280 -1.1506 -0.9214 -0.9028
   60SAPC  H17Y 4700   6.598   0.989   8.248  0.8395 -0.1349 -0.6893
   60SAPC  C318 4701   6.726   1.113   8.118  0.5120  0.3042  0.4076
   60SAPC  H18X 4702   6.823   1.060   8.104 -0.8153 -2.1377  0.2027
   60SAPC  H18Y 4703   6.748   1.222   8.123 -1.3519  0.8343 -1.9916
   60SAPC  H18Z 4704   6.650   1.092   8.039 -0.3457  0.1336  1.2628
   61SAPC     N 4705   0.983   5.799  10.819  0.5580  0.0228  0.8700
   61SAPC   C12 4706   0.862   5.791  10.737 -0.0584  0.0277 -0.6814
   61SAPC  H12A 4707   0.777   5.784  10.802  0.9648 -2.3104  0.4714
   61SAPC  H12B 4708   0.864   5.708  10.668 -0.4518 -0.2441 -0.3697
   61SAPC   C13 4709   0.999   5.678  10.907 -0.6970 -0.1527 -0.5042
   61SAPC  H13A 4710   0.908   5.667  10.964 -1.2101  0.9208 -1.1088
   61SAPC  H13B 4711   0.996   5.587  10.850  1.2232 -2.8913  3.4934
   61SAPC  H13C 4712   1.093   5.681  10.961 -0.6186 -1.5872 -0.5446
   61SAPC   C14 4713   1.114   5.821  10.742 -0.1666 -0.0818  0.4355
   61SAPC  H14A 4714   1.193   5.808  10.814 -2.0069 -0.2392  2.4863
   61SAPC  H14B 4715   1.126   5.746  10.666 -1.6951 -2.0938  2.1279
   61SAPC  H14C 4716   1.118   5.921  10.701 -1.3741  0.4597  1.5971
   61SAPC   C15 4717   0.957   5.906  10.925  0.2738 -1.1684 -0.3487
   61SAPC  H15A 4718   1.049   5.943  10.967 -0.5370 -0.2478  0.6845
   61SAPC  H15B 4719   0.919   5.997  10.880 -1.1611 -2.3502 -1.5598
   61SAPC  H15C 4720   0.900   5.876  11.012 -2.3535 -0.7262 -1.8686
   61SAPC   C11 4721   0.831   5.917  10.650 -0.5322  0.2720 -0.5830
   61SAPC  H11A 4722   0.747   5.909  10.577 -2.0080  4.2779  0.5460
   61SAPC  H11B 4723   0.918   5.947  10.588  1.3979  1.0187  2.3844
   61SAPC     P 4724   0.654   6.025  10.822 -0.1025  0.2351  0.0120
   61SAPC   O13 4725   0.651   5.890  10.888 -0.1707  0.1591 -0.0772
   61SAPC   O14 4726   0.657   6.135  10.919  0.1644  0.3419 -0.1232
   61SAPC   O12 4727   0.784   6.031  10.731  0.7346  0.6918 -0.3107
   61SAPC   O11 4728   0.535   6.047  10.717 -0.2252 -0.8376  0.3497
   61SAPC    C1 4729   0.558   6.150  10.622 -0.4732  0.3399 -0.8643
   61SAPC    HA 4730   0.571   6.246  10.675  0.2333  0.1588 -0.7100
   61SAPC    HB 4731   0.651   6.136  10.563  1.1871 -0.7901  1.9005
   61SAPC    C2 4732   0.446   6.156  10.522  0.0998 -0.2499  0.1232
   61SAPC    HS 4733   0.351   6.143  10.578 -0.8370  1.3471 -1.0512
   61SAPC   O21 4734   0.460   6.054  10.422  0.0756  0.8918 -0.3528
   61SAPC   C21 4735   0.358   6.030  10.346 -0.0576  0.0059  0.0500
   61SAPC   O22 4736   0.247   6.082  10.349  0.2273  0.4952 -0.1009
   61SAPC   C22 4737   0.392   5.920  10.247  0.4314  0.4689  0.3524
   61SAPC   H2R 4738   0.419   5.832  10.309  1.1168  1.0779  0.9247
   61SAPC   H2S 4739   0.297   5.902  10.192 -0.5755 -0.3437  2.3157
   61SAPC    C3 4740   0.430   6.299  10.470 -0.0864 -0.2386 -0.1426
   61SAPC    HX 4741   0.400   6.355  10.561  0.9456 -0.5264  0.3837
   61SAPC    HY 4742   0.348   6.317  10.398  0.6349  1.1242 -0.6347
   61SAPC   O31 4743   0.553   6.350  10.404  0.2375 -0.0550 -0.0360
   61SAPC   C31 4744   0.603   6.469  10.445  0.7610  0.2073  0.0485
   61SAPC   O32 4745   0.557   6.536  10.537  0.3873 -0.2880  0.2793
   61SAPC   C32 4746   0.722   6.510  10.360  0.1996 -0.3614 -0.0337
   61SAPC   H2X 4747   0.737   6.431  10.283  0.4089 -0.2801 -0.0772
   61SAPC   H2Y 4748   0.812   6.516  10.424  0.8102 -0.3693 -0.8845
   61SAPC   C23 4749   0.505   5.971  10.155  0.5195  0.5326  0.9388
   61SAPC   H3R 4750   0.524   5.884  10.089 -1.0641  0.2770  0.7917
   61SAPC   H3S 4751   0.594   5.992  10.218 -0.1593  1.3519  1.6371
   61SAPC   C24 4752   0.466   6.089  10.059 -0.1223  0.4121 -0.3363
   61SAPC   H4R 4753   0.444   6.172  10.129 -1.1920 -1.1374  1.1913
   61SAPC   H4S 4754   0.371   6.064  10.008 -0.0119  0.3549 -0.5181
   61SAPC   C25 4755   0.585   6.126   9.973  0.6525  0.5177 -0.1808
   61SAPC   H5R 4756   0.651   6.207  10.008 -1.2731  2.0224  0.0795
   61SAPC   C26 4757   0.588   6.089   9.846 -0.2230  0.2339  0.3949
   61SAPC   H6R 4758   0.671   6.134   9.790  1.4583 -0.3407  2.3540
   61SAPC   C27 4759   0.485   5.998   9.778  0.2313  0.1677  0.0565
   61SAPC   H7R 4760   0.386   6.044   9.799  1.3033  1.5528  2.1789
   61SAPC   H7S 4761   0.500   5.899   9.826 -0.5307  0.6369  1.3036
   61SAPC   C28 4762   0.500   6.008   9.625  0.5906 -0.0672 -0.1839
   61SAPC   H8R 4763   0.440   6.088   9.580 -2.1926 -1.7937  0.3127
   61SAPC   C29 4764   0.563   5.916   9.552 -0.9400  0.3615 -0.2343
   61SAPC   H9R 4765   0.571   5.924   9.442 -1.2599  1.5017 -0.1810
   61SAPC  C210 4766   0.635   5.793   9.603  0.5063 -0.2311  0.7521
   61SAPC  H10R 4767   0.626   5.776   9.713  0.3195 -1.3314  0.5791
   61SAPC  H10S 4768   0.741   5.806   9.572  0.4351 -1.8781 -0.2580
   61SAPC  C211 4769   0.575   5.665   9.534 -0.6859  0.7464 -0.4310
   61SAPC  H11R 4770   0.467   5.672   9.512 -1.0082 -2.1921  0.0004
   61SAPC  C212 4771   0.640   5.555   9.487 -0.7405  0.0361 -1.0038
   61SAPC  H12R 4772   0.586   5.478   9.431  1.8457 -1.5897 -1.3557
   61SAPC  C213 4773   0.793   5.530   9.493 -0.6994  0.3177  0.2713
   61SAPC  H13R 4774   0.815   5.502   9.598 -1.0847  0.0412  0.2778
   61SAPC  H13S 4775   0.830   5.634   9.476  2.7537 -1.1324 -1.4290
   61SAPC  C214 4776   0.854   5.436   9.385 -0.3462 -0.4810  0.1163
   61SAPC  H14R 4777   0.875   5.336   9.426  1.8682 -0.0974 -0.0580
   61SAPC  C215 4778   0.866   5.446   9.249 -0.8362 -0.0832 -0.5259
   61SAPC  H15R 4779   0.901   5.362   9.187  2.8762 -0.6920  2.2137
   61SAPC  C216 4780   0.820   5.568   9.180  0.2465  0.1737  0.5797
   61SAPC  H16R 4781   0.812   5.653   9.252  0.7814  0.2485  0.5524
   61SAPC  H16S 4782   0.728   5.553   9.121  0.5207  0.1035  0.1658
   61SAPC  C217 4783   0.921   5.608   9.082 -0.0142  0.0319 -0.0128
   61SAPC  H17R 4784   0.900   5.552   8.989 -1.1121 -0.1664  0.3413
   61SAPC  H17S 4785   1.027   5.586   9.107  0.6434  0.1606 -2.5444
   61SAPC  C218 4786   0.910   5.759   9.053 -0.3730 -0.1889  0.3020
   61SAPC  H18R 4787   0.934   5.810   9.148 -2.4555  1.9301 -0.2548
   61SAPC  H18S 4788   0.800   5.767   9.041 -0.2264 -0.1087 -1.1181
   61SAPC  C219 4789   0.980   5.802   8.923  0.0371 -0.6895 -0.1412
   61SAPC  H19R 4790   1.089   5.799   8.943  0.0776 -0.8760 -0.3919
   61SAPC  H19S 4791   0.958   5.909   8.904 -1.3247 -0.7860  0.7511
   61SAPC  C220 4792   0.950   5.715   8.804  0.0612  0.3961 -0.2212
   61SAPC  H20R 4793   1.024   5.740   8.725  1.1087 -2.5965 -0.2511
   61SAPC  H20S 4794   0.857   5.740   8.749 -0.0427 -1.2033 -0.7772
   61SAPC  H20T 4795   0.965   5.608   8.828  2.4694  1.1197  1.7476
   61SAPC   C33 4796   0.687   6.643  10.294  0.1162  0.4537  0.2091
   61SAPC   H3X 4797   0.767   6.661  10.219 -1.5093  1.2401 -1.3680
   61SAPC   H3Y 4798   0.677   6.720  10.373 -2.0649 -1.7028  2.0915
   61SAPC   C34 4799   0.552   6.644  10.214  0.0941  0.5246 -0.2885
   61SAPC   H4X 4800   0.551   6.750  10.182  1.2907  0.8764  0.7533
   61SAPC   H4Y 4801   0.475   6.630  10.293  2.0055 -0.5445  1.4805
   61SAPC   C35 4802   0.553   6.546  10.097 -0.4564 -0.5647 -0.2639
   61SAPC   H5X 4803   0.560   6.445  10.142 -1.2257  0.8420  3.1593
   61SAPC   H5Y 4804   0.646   6.560  10.038 -0.0466 -3.9820 -0.5767
   61SAPC   C36 4805   0.428   6.553  10.015  0.0830 -0.2188  0.3587
   61SAPC   H6X 4806   0.420   6.650   9.962  0.6796 -0.8741 -0.9381
   61SAPC   H6Y 4807   0.332   6.532  10.067 -0.2074  0.2718  0.0246
   61SAPC   C37 4808   0.435   6.456   9.895  0.2622  0.4715  0.1533
   61SAPC   H7X 4809   0.335   6.449   9.847 -0.4302 -1.5145  1.8245
   61SAPC   H7Y 4810   0.475   6.364   9.943  0.3022  0.8403  0.8363
   61SAPC   C38 4811   0.534   6.500   9.781 -0.0662  1.0008 -0.9989
   61SAPC   H8X 4812   0.637   6.466   9.806  0.1672  1.0903 -1.8200
   61SAPC   H8Y 4813   0.528   6.609   9.760 -0.3618  1.0848 -0.4830
   61SAPC   C39 4814   0.503   6.417   9.654 -0.6031  0.0933  0.2669
   61SAPC   H9X 4815   0.405   6.445   9.612 -1.4105 -0.3130  1.8458
   61SAPC   H9Y 4816   0.499   6.312   9.690 -0.4796  0.7486  2.2656
   61SAPC  C310 4817   0.600   6.442   9.535  0.0803  0.2166  0.1284
   61SAPC  H10X 4818   0.696   6.390   9.556 -0.1635 -0.4737 -0.4589
   61SAPC  H10Y 4819   0.620   6.551   9.528  1.3551 -0.1397 -2.1250
   61SAPC  C311 4820   0.528   6.390   9.407  0.0445  0.0497  0.6568
   61SAPC  H11X 4821   0.433   6.448   9.397 -1.3855 -2.1313  1.3594
   61SAPC  H11Y 4822   0.503   6.282   9.418  0.8366 -0.3231 -1.0790
   61SAPC  C312 4823   0.616   6.419   9.290 -0.0630  0.1510  0.5048
   61SAPC  H12X 4824   0.692   6.338   9.289 -1.9616 -1.6818  0.5189
   61SAPC  H12Y 4825   0.659   6.519   9.313  1.2010 -0.0092 -1.1010
   61SAPC  C313 4826   0.528   6.437   9.161 -0.4028  0.9056  1.1060
   61SAPC  H13X 4827   0.469   6.532   9.161 -1.4872  0.2314  1.5110
   61SAPC  H13Y 4828   0.465   6.347   9.152  2.2126 -1.1938  3.0975
   61SAPC  C314 4829   0.622   6.453   9.040 -0.0731 -0.0139 -0.4770
   61SAPC  H14X 4830   0.709   6.515   9.069 -0.7150  0.4869  0.3959
   61SAPC  H14Y 4831   0.563   6.493   8.955  1.3767  1.9575 -0.5769
   61SAPC  C315 4832   0.661   6.316   8.983 -0.5158 -0.2736 -0.5304
   61SAPC  H15X 4833   0.565   6.262   8.965  0.2625 -2.4826  1.6934
   61SAPC  H15Y 4834   0.700   6.252   9.065 -1.5220  0.8585  0.8587
   61SAPC  C316 4835   0.740   6.320   8.853  0.6600 -1.0504 -0.0714
   61SAPC  H16X 4836   0.805   6.409   8.839  2.3696 -2.4256 -1.2162
   61SAPC  H16Y 4837   0.677   6.342   8.764 -0.8087 -2.8034  0.4966
   61SAPC  C317 4838   0.814   6.192   8.831  0.1784  0.0217  0.4804
   61SAPC  H17X 4839   0.735   6.114   8.828  1.5861 -1.3957 -1.3826
   61SAPC  H17Y 4840   0.892   6.175   8.908 -0.9585 -1.5287  1.3043
   61SAPC  C318 4841   0.879   6.176   8.695  0.1156  0.2312 -0.0376
   61SAPC  H18X 4842   0.796   6.172   8.621 -0.6433 -2.4695  0.9025
   61SAPC  H18Y 4843   0.953   6.093   8.689  0.4071  0.5598 -1.0300
   61SAPC  H18Z 4844   0.940   6.264   8.665  1.2088 -0.9062 -1.2307
   62SAPC     N 4845   0.269   5.686  10.927 -0.4985 -0.2804  0.7409
   62SAPC   C12 4846   0.152   5.630  10.845 -0.0435 -0.6464 -0.9141
   62SAPC  H12A 4847   0.106   5.553  10.905 -0.1968  0.4495  0.3920
   62SAPC  H12B 4848   0.196   5.570  10.767  0.6058  0.5140 -1.4534
   62SAPC   C13 4849   0.358   5.771  10.844 -0.2079  0.3607  0.3309
   62SAPC  H13A 4850   0.313   5.865  10.816  2.0573  1.8386  1.5176
   62SAPC  H13B 4851   0.450   5.789  10.898 -0.3509  0.1158  0.6618
   62SAPC  H13C 4852   0.381   5.710  10.758 -2.1488 -1.3196  0.9392
   62SAPC   C14 4853   0.224   5.756  11.053  0.1687 -0.2446  0.1622
   62SAPC  H14A 4854   0.161   5.840  11.030 -0.6086 -1.1003 -0.9217
   62SAPC  H14B 4855   0.172   5.687  11.118 -3.1082  1.0156 -1.0066
   62SAPC  H14C 4856   0.302   5.796  11.116  0.1467 -0.6597  0.4557
   62SAPC   C15 4857   0.353   5.570  10.973  0.1760 -0.3397 -0.4008
   62SAPC  H15A 4858   0.299   5.502  11.038  0.3730 -0.2694 -0.1621
   62SAPC  H15B 4859   0.380   5.511  10.888 -0.2145 -1.1425  0.0298
   62SAPC  H15C 4860   0.438   5.606  11.029 -0.9442  2.0403 -0.1491
   62SAPC   C11 4861   0.045   5.725  10.785 -0.6994 -0.3348  0.1387
   62SAPC  H11A 4862  -0.002   5.782  10.867  0.4023  0.5741  0.1451
   62SAPC  H11B 4863  -0.039   5.660  10.754 -0.8193 -0.6396  1.0903
   62SAPC     P 4864   0.114   5.729  10.532 -0.3271  0.2446 -0.6406
   62SAPC   O13 4865   0.236   5.772  10.470  0.0232  0.1509 -0.6416
   62SAPC   O14 4866   0.106   5.584  10.552 -0.2484  0.2826  0.0909
   62SAPC   O12 4867   0.098   5.804  10.672  0.0941  0.2409 -0.7865
   62SAPC   O11 4868  -0.010   5.773  10.450 -0.5898 -0.1498 -0.3593
   62SAPC    C1 4869  -0.071   5.694  10.343 -0.0307 -0.2555  0.3108
   62SAPC    HA 4870  -0.077   5.587  10.373 -1.1857  0.0632  1.2238
   62SAPC    HB 4871  -0.180   5.716  10.342 -0.1310 -0.6723 -1.8037
   62SAPC    C2 4872  -0.002   5.727  10.216  0.0217  0.6871  0.5787
   62SAPC    HS 4873   0.052   5.824  10.221  1.0135  0.3070 -1.9226
   62SAPC   O21 4874  -0.097   5.725  10.103  0.2499 -0.0102 -0.5904
   62SAPC   C21 4875  -0.168   5.829  10.077  0.9355  0.1482 -0.5921
   62SAPC   O22 4876  -0.168   5.942  10.128 -0.3778 -0.0294  0.1844
   62SAPC   C22 4877  -0.259   5.798   9.956  0.7270  0.2591  0.3779
   62SAPC   H2R 4878  -0.306   5.701   9.981 -0.1178 -0.0316 -2.1847
   62SAPC   H2S 4879  -0.326   5.887   9.948  0.9529  0.2477 -1.9163
   62SAPC    C3 4880   0.122   5.630  10.185 -0.1023 -0.2261 -0.4313
   62SAPC    HX 4881   0.078   5.529  10.194  0.8057 -0.7361 -1.6113
   62SAPC    HY 4882   0.197   5.644  10.266 -2.9659 -2.1961  2.6411
   62SAPC   O31 4883   0.182   5.653  10.054 -0.0922  0.3674  0.2167
   62SAPC   C31 4884   0.137   5.572   9.955 -0.0610 -0.0617 -1.2790
   62SAPC   O32 4885   0.052   5.489   9.967 -0.0808  0.6956  0.5119
   62SAPC   C32 4886   0.205   5.613   9.827 -0.0180 -0.3441  0.3934
   62SAPC   H2X 4887   0.315   5.612   9.837  0.1876 -0.1978 -1.6815
   62SAPC   H2Y 4888   0.166   5.714   9.803 -2.8529 -1.1684  1.2627
   62SAPC   C23 4889  -0.193   5.768   9.823 -0.4286 -0.1805  0.2108
   62SAPC   H3R 4890  -0.268   5.712   9.763  2.4025 -1.8910 -1.8269
   62SAPC   H3S 4891  -0.119   5.686   9.838 -0.3227 -0.0966  0.1458
   62SAPC   C24 4892  -0.136   5.888   9.749 -0.9276 -0.4530  0.0440
   62SAPC   H4R 4893  -0.217   5.962   9.731 -0.9203 -0.8610 -1.8189
   62SAPC   H4S 4894  -0.121   5.847   9.647 -0.4754 -0.7816  0.2402
   62SAPC   C25 4895  -0.006   5.954   9.793 -0.9662  0.6035 -0.0775
   62SAPC   H5R 4896  -0.010   5.999   9.893  0.7870  1.0632 -0.1885
   62SAPC   C26 4897   0.106   5.977   9.716  0.0723  0.3228  0.5819
   62SAPC   H6R 4898   0.189   6.027   9.769 -0.0524  0.7791  0.3446
   62SAPC   C27 4899   0.131   5.923   9.573 -0.0780  0.6778 -0.3110
   62SAPC   H7R 4900   0.091   5.820   9.561  1.7309 -0.2211  0.9643
   62SAPC   H7S 4901   0.241   5.916   9.555  0.0008 -2.4124  0.9988
   62SAPC   C28 4902   0.081   6.016   9.469  1.0034 -0.4441  0.9249
   62SAPC   H8R 4903   0.000   6.085   9.499  0.1022 -0.3026 -1.7087
   62SAPC   C29 4904   0.129   6.031   9.345  0.4461  0.0995  0.7551
   62SAPC   H9R 4905   0.074   6.097   9.276  1.8039  1.1055  0.6152
   62SAPC  C210 4906   0.234   5.958   9.280  0.0576  0.5047 -0.0987
   62SAPC  H10R 4907   0.194   5.932   9.179  0.5472 -0.4437 -0.0539
   62SAPC  H10S 4908   0.262   5.864   9.334 -1.2352  0.3501  0.3103
   62SAPC  C211 4909   0.359   6.036   9.269 -0.4399  0.0524  0.5479
   62SAPC  H11R 4910   0.388   6.083   9.365  1.3923 -3.1052  1.5900
   62SAPC  C212 4911   0.443   6.043   9.159 -0.7611  0.5057 -1.1862
   62SAPC  H12R 4912   0.522   6.120   9.163  1.1627 -1.3967 -1.3672
   62SAPC  C213 4913   0.425   5.974   9.033 -0.1611 -0.4583  0.1075
   62SAPC  H13R 4914   0.416   6.061   8.964  1.7964  1.2767  1.9320
   62SAPC  H13S 4915   0.328   5.921   9.034 -0.5108  0.1953  1.4662
   62SAPC  C214 4916   0.538   5.900   8.985  0.1311 -0.3501  1.0655
   62SAPC  H14R 4917   0.626   5.961   9.008 -0.2227  1.5980 -2.4109
   62SAPC  C215 4918   0.548   5.789   8.916  1.0283  0.3208 -0.0133
   62SAPC  H15R 4919   0.652   5.756   8.902  1.4775  2.1004 -0.9448
   62SAPC  C216 4920   0.442   5.691   8.864 -0.1322  0.0380  0.3235
   62SAPC  H16R 4921   0.346   5.738   8.894  0.4544  0.9757  0.7450
   62SAPC  H16S 4922   0.450   5.590   8.910 -1.2949  0.3800  1.3099
   62SAPC  C217 4923   0.436   5.675   8.704  0.3436  0.0489 -0.1519
   62SAPC  H17R 4924   0.537   5.644   8.670  1.3696  1.8362  1.1882
   62SAPC  H17S 4925   0.415   5.777   8.666 -0.5832  0.0939  0.4615
   62SAPC  C218 4926   0.336   5.568   8.647 -0.3277  0.2519 -0.1107
   62SAPC  H18R 4927   0.234   5.608   8.665  0.0004  1.2144 -0.3513
   62SAPC  H18S 4928   0.350   5.474   8.705  1.5497  1.3911  1.3384
   62SAPC  C219 4929   0.367   5.534   8.504 -0.8156 -0.2499 -0.3326
   62SAPC  H19R 4930   0.327   5.436   8.471 -2.4153  0.0731  0.6090
   62SAPC  H19S 4931   0.473   5.502   8.496 -0.5351  0.7566 -0.7635
   62SAPC  C220 4932   0.330   5.640   8.399  0.3162 -0.7791  0.4553
   62SAPC  H20R 4933   0.223   5.655   8.425  0.0019 -1.5455 -0.3542
   62SAPC  H20S 4934   0.353   5.612   8.294  1.2653  0.8483  0.2291
   62SAPC  H20T 4935   0.390   5.728   8.430  1.9788 -1.2328 -1.3551
   62SAPC   C33 4936   0.182   5.526   9.701 -0.4710 -0.0915 -0.8128
   62SAPC   H3X 4937   0.214   5.421   9.719 -0.1290 -0.4028 -3.0959
   62SAPC   H3Y 4938   0.253   5.552   9.620  0.3417 -0.9265 -0.3783
   62SAPC   C34 4939   0.039   5.524   9.654  0.2283  0.5485  1.0276
   62SAPC   H4X 4940   0.003   5.629   9.651  1.6384  1.0907 -4.6943
   62SAPC   H4Y 4941  -0.021   5.472   9.731 -2.6592  2.4045  0.1242
   62SAPC   C35 4942   0.023   5.460   9.518 -0.0391  0.8728 -0.1827
   62SAPC   H5X 4943  -0.088   5.457   9.508 -0.1443 -1.3338  1.4144
   62SAPC   H5Y 4944   0.067   5.359   9.515 -2.7330 -0.3952  1.0266
   62SAPC   C36 4945   0.076   5.548   9.410  0.2349  0.1527 -0.5981
   62SAPC   H6X 4946   0.186   5.535   9.420  0.3580  0.4867 -1.4803
   62SAPC   H6Y 4947   0.050   5.654   9.431  1.3000  0.6730 -1.8435
   62SAPC   C37 4948   0.041   5.510   9.264 -0.0017  0.2489  0.5154
   62SAPC   H7X 4949  -0.068   5.521   9.247 -0.1059 -0.5299  0.6659
   62SAPC   H7Y 4950   0.063   5.403   9.244  2.9253  0.9077 -0.0730
   62SAPC   C38 4951   0.105   5.602   9.162 -0.8204 -0.4215 -0.1186
   62SAPC   H8X 4952   0.215   5.610   9.173 -1.1362  1.2577  2.3302
   62SAPC   H8Y 4953   0.070   5.708   9.167 -0.4523 -0.2641 -0.7708
   62SAPC   C39 4954   0.067   5.549   9.021  0.3960 -0.1485 -0.6035
   62SAPC   H9X 4955   0.089   5.440   9.023  0.3272 -0.1809 -1.5441
   62SAPC   H9Y 4956   0.141   5.594   8.951  1.9847  0.3275  1.3393
   62SAPC  C310 4957  -0.074   5.584   8.973  0.3483  0.6074  0.3861
   62SAPC  H10X 4958  -0.087   5.695   8.966 -0.0511  0.6005  1.0340
   62SAPC  H10Y 4959  -0.155   5.557   9.044  0.3789 -0.0677  0.1626
   62SAPC  C311 4960  -0.109   5.517   8.835 -0.0204  0.2257  0.1565
   62SAPC  H11X 4961  -0.072   5.412   8.840 -2.4001 -0.7485 -1.6232
   62SAPC  H11Y 4962  -0.057   5.580   8.759  1.0714  2.2390  2.5022
   62SAPC  C312 4963  -0.261   5.526   8.808 -0.2622 -0.3332  0.2397
   62SAPC  H12X 4964  -0.283   5.567   8.707 -0.8332 -0.7891  0.1839
   62SAPC  H12Y 4965  -0.306   5.590   8.887  0.0859  1.2116 -0.7786
   62SAPC  C313 4966  -0.325   5.390   8.786 -0.4026  0.3885  0.7561
   62SAPC  H13X 4967  -0.298   5.337   8.880  0.6382  1.6949  1.2155
   62SAPC  H13Y 4968  -0.274   5.345   8.698 -1.2954  3.4726 -1.4158
   62SAPC  C314 4969  -0.479   5.406   8.756 -0.3558 -0.2934 -0.0136
   62SAPC  H14X 4970  -0.503   5.312   8.701  3.9278 -0.8392 -1.1127
   62SAPC  H14Y 4971  -0.490   5.492   8.688  2.0511  1.5959  1.8893
   62SAPC  C315 4972  -0.564   5.421   8.883  0.7397 -0.1616 -0.0860
   62SAPC  H15X 4973  -0.502   5.385   8.968  0.0661  0.7615  0.8037
   62SAPC  H15Y 4974  -0.653   5.355   8.873 -0.9626  1.9230  0.8385
   62SAPC  C316 4975  -0.601   5.564   8.913 -0.1715 -0.4151  0.3715
   62SAPC  H16X 4976  -0.676   5.595   8.837  0.8026  2.9797  0.6927
   62SAPC  H16Y 4977  -0.515   5.634   8.902  0.0396 -0.7780 -0.2812
   62SAPC  C317 4978  -0.659   5.576   9.057  0.4017 -0.7313 -0.2312
   62SAPC  H17X 4979  -0.592   5.542   9.139 -0.0019 -0.4814  0.1995
   62SAPC  H17Y 4980  -0.748   5.510   9.064 -1.4051  1.6841 -0.0325
   62SAPC  C318 4981  -0.693   5.716   9.097  0.5075  0.3524 -0.6695
   62SAPC  H18X 4982  -0.740   5.716   9.198  0.4756 -1.3049 -0.6798
   62SAPC  H18Y 4983  -0.759   5.751   9.015  2.1308 -1.3709 -2.7320
   62SAPC  H18Z 4984  -0.612   5.792   9.097  1.1881 -0.3730 -1.9109
   63SAPC     N 4985   4.793   3.615   6.516 -0.2494 -0.4467  0.0448
   63SAPC   C12 4986   4.771   3.730   6.622 -0.9550  0.7158  0.6810
   63SAPC  H12A 4987   4.771   3.687   6.722  1.2262 -0.6639  0.1310
   63SAPC  H12B 4988   4.670   3.765   6.611 -1.7318 -1.8236 -0.7487
   63SAPC   C13 4989   4.704   3.502   6.563 -0.1714  0.3927  0.3618
   63SAPC  H13A 4990   4.692   3.425   6.488  4.7969 -0.0824 -0.1649
   63SAPC  H13B 4991   4.752   3.450   6.644  0.3371  1.7898  0.9753
   63SAPC  H13C 4992   4.606   3.540   6.585 -0.1512  1.3503 -1.1159
   63SAPC   C14 4993   4.763   3.651   6.380  0.2780  0.0506 -0.8777
   63SAPC  H14A 4994   4.674   3.711   6.369 -0.0273 -0.3461 -0.6017
   63SAPC  H14B 4995   4.835   3.722   6.343  0.6285  0.3232  0.3026
   63SAPC  H14C 4996   4.764   3.557   6.326 -1.5630 -0.4609 -0.0545
   63SAPC   C15 4997   4.928   3.554   6.531  0.3448 -0.2713 -0.7440
   63SAPC  H15A 4998   4.940   3.472   6.462 -1.1053 -1.1595  0.0216
   63SAPC  H15B 4999   4.996   3.636   6.520 -2.1269  2.3024  2.0219
   63SAPC  H15C 5000   4.948   3.511   6.628  2.4435  2.8975  0.2951
   63SAPC   C11 5001   4.858   3.860   6.615 -0.4756  0.2882  0.3952
   63SAPC  H11A 5002   4.965   3.858   6.645 -0.0232 -0.6080 -1.1992
   63SAPC  H11B 5003   4.806   3.926   6.687  0.2071  0.6784  0.5326
   63SAPC     P 5004   4.727   4.011   6.440 -0.2187 -0.4793  0.0597
   63SAPC   O13 5005   4.679   3.971   6.307 -0.3294  0.2002  0.6303
   63SAPC   O14 5006   4.631   4.021   6.544  0.2800  0.1213  0.0844
   63SAPC   O12 5007   4.847   3.910   6.475 -0.1173  0.5767  0.0987
   63SAPC   O11 5008   4.808   4.142   6.434 -0.6548 -0.4275 -0.1544
   63SAPC    C1 5009   4.934   4.172   6.487 -0.6731  0.2101  0.0542
   63SAPC    HA 5010   4.982   4.086   6.538 -0.4699  0.7440  0.7855
   63SAPC    HB 5011   4.995   4.196   6.398  1.1852 -0.2783  1.1701
   63SAPC    C2 5012   4.933   4.283   6.594 -0.0407 -0.3314 -0.1304
   63SAPC    HS 5013   5.039   4.298   6.624 -0.4097 -1.6885  1.9450
   63SAPC   O21 5014   4.849   4.252   6.704  0.4079  0.8835  0.4846
   63SAPC   C21 5015   4.912   4.176   6.792 -0.1341 -1.0218  0.3649
   63SAPC   O22 5016   5.014   4.112   6.781  0.0600  0.0216  0.1436
   63SAPC   C22 5017   4.840   4.168   6.927  0.0177 -0.5093  0.5485
   63SAPC   H2R 5018   4.751   4.103   6.907 -0.9074  1.0778 -0.6427
   63SAPC   H2S 5019   4.903   4.104   6.992 -0.0500 -3.4377 -2.1483
   63SAPC    C3 5020   4.882   4.419   6.539 -0.2147 -0.0195 -0.4828
   63SAPC    HX 5021   4.771   4.419   6.533 -0.2463  1.1232  0.0578
   63SAPC    HY 5022   4.918   4.417   6.433 -1.9806 -0.2700 -1.0937
   63SAPC   O31 5023   4.929   4.534   6.611 -0.2790 -0.7538  0.1452
   63SAPC   C31 5024   4.979   4.631   6.535 -0.2337 -0.6554  0.4182
   63SAPC   O32 5025   4.972   4.644   6.415 -0.1504 -0.1332 -0.6753
   63SAPC   C32 5026   5.037   4.745   6.631 -0.0987  0.2660  0.6227
   63SAPC   H2X 5027   5.044   4.837   6.569  1.8386  0.2108  0.7217
   63SAPC   H2Y 5028   5.140   4.716   6.661 -0.5107 -1.6339  0.2975
   63SAPC   C23 5029   4.804   4.305   6.985  0.2124 -0.0077  0.0006
   63SAPC   H3R 5030   4.728   4.312   7.066 -1.4965 -2.6991 -1.2729
   63SAPC   H3S 5031   4.776   4.379   6.907 -0.5074 -0.1553  0.1113
   63SAPC   C24 5032   4.931   4.385   7.047 -0.1738  0.0003  0.2528
   63SAPC   H4R 5033   5.004   4.385   6.963  1.1394  0.9156  1.3763
   63SAPC   H4S 5034   4.972   4.312   7.120 -0.9276 -0.3025  0.3701
   63SAPC   C25 5035   4.887   4.519   7.108  0.2376 -0.1888  0.3805
   63SAPC   H5R 5036   4.861   4.600   7.037 -0.2600 -0.8503 -0.2065
   63SAPC   C26 5037   4.882   4.552   7.237 -0.3033  0.4507  0.1264
   63SAPC   H6R 5038   4.856   4.657   7.261 -0.6573  0.4768 -0.3619
   63SAPC   C27 5039   4.922   4.465   7.358  0.0555 -0.7436 -0.1547
   63SAPC   H7R 5040   4.986   4.523   7.427  0.6205 -2.3258  0.6916
   63SAPC   H7S 5041   4.989   4.382   7.326  0.2373 -1.9808  3.2072
   63SAPC   C28 5042   4.809   4.405   7.436  0.2025  0.0862  0.0864
   63SAPC   H8R 5043   4.709   4.397   7.391  0.6567 -1.0555 -0.7202
   63SAPC   C29 5044   4.820   4.370   7.567 -0.2052 -0.1428  0.0273
   63SAPC   H9R 5045   4.735   4.323   7.619  1.0334 -0.4617  1.8005
   63SAPC  C210 5046   4.950   4.382   7.647  0.1129  0.5733 -0.1176
   63SAPC  H10R 5047   5.033   4.432   7.594  0.6917 -0.2022  0.0531
   63SAPC  H10S 5048   5.000   4.284   7.656 -0.2006  0.3040 -1.2320
   63SAPC  C211 5049   4.925   4.444   7.784 -0.5945 -0.4582 -0.2994
   63SAPC  H11R 5050   4.911   4.371   7.865 -2.1166 -2.8419 -2.6236
   63SAPC  C212 5051   4.913   4.576   7.818  0.1666 -0.0746 -0.1463
   63SAPC  H12R 5052   4.884   4.601   7.921 -0.5132 -0.9140 -0.1274
   63SAPC  C213 5053   4.927   4.687   7.718 -0.2459  0.5862  0.2559
   63SAPC  H13R 5054   4.824   4.720   7.692 -0.5585 -1.0795 -0.6692
   63SAPC  H13S 5055   4.968   4.647   7.623 -0.9431 -0.6868  0.4930
   63SAPC  C214 5056   4.998   4.810   7.772 -0.5811 -0.3135  0.1225
   63SAPC  H14R 5057   4.928   4.881   7.820 -2.5316 -1.2600 -1.2673
   63SAPC  C215 5058   5.123   4.845   7.741 -0.4327 -0.2428 -0.9905
   63SAPC  H15R 5059   5.153   4.943   7.783  1.0269 -0.7641 -0.8130
   63SAPC  C216 5060   5.227   4.755   7.665  0.7556  0.2125 -0.1071
   63SAPC  H16R 5061   5.200   4.647   7.660  1.3217  0.0118  1.0282
   63SAPC  H16S 5062   5.324   4.767   7.719  0.3536 -0.8915  0.8950
   63SAPC  C217 5063   5.238   4.809   7.515 -0.3627  0.2018 -0.3799
   63SAPC  H17R 5064   5.238   4.920   7.511 -0.7071  0.1331 -2.5457
   63SAPC  H17S 5065   5.148   4.770   7.463  0.6653 -2.6134 -0.1339
   63SAPC  C218 5066   5.358   4.749   7.441 -0.6260  0.0943  0.6247
   63SAPC  H18R 5067   5.402   4.669   7.504  0.3263  0.0817 -0.0406
   63SAPC  H18S 5068   5.441   4.822   7.430 -1.1921  0.8459  1.2886
   63SAPC  C219 5069   5.313   4.705   7.303 -1.0957  0.2450  0.5571
   63SAPC  H19R 5070   5.233   4.628   7.315  0.2860 -1.2024  0.6098
   63SAPC  H19S 5071   5.388   4.655   7.238 -1.8272 -0.9061  0.5744
   63SAPC  C220 5072   5.273   4.830   7.217 -0.5303 -0.2648  0.1039
   63SAPC  H20R 5073   5.241   4.788   7.119  0.1044  0.0989 -0.2651
   63SAPC  H20S 5074   5.360   4.897   7.200  2.1820 -3.5440  0.2694
   63SAPC  H20T 5075   5.187   4.882   7.264  1.9690  1.6861  2.6924
   63SAPC   C33 5076   4.945   4.778   6.750  0.6547 -0.0700 -0.1390
   63SAPC   H3X 5077   4.933   4.698   6.826  1.7721  0.6532  0.8227
   63SAPC   H3Y 5078   4.844   4.804   6.713  1.2598  1.8545 -0.5173
   63SAPC   C34 5079   4.981   4.906   6.820  0.8638 -0.8542 -0.5826
   63SAPC   H4X 5080   4.932   4.996   6.777 -3.2412 -1.2637  2.9017
   63SAPC   H4Y 5081   5.092   4.913   6.811  0.8672 -0.2640 -0.1043
   63SAPC   C35 5082   4.939   4.907   6.972  0.3577  0.0240 -0.7432
   63SAPC   H5X 5083   4.982   4.815   7.017 -0.6680  0.0094  0.2267
   63SAPC   H5Y 5084   4.828   4.906   6.959 -0.1790 -2.2427  3.2177
   63SAPC   C36 5085   4.986   5.028   7.051 -0.6611  0.3701 -0.7438
   63SAPC   H6X 5086   4.941   5.119   7.007  0.9007  2.0972  1.1271
   63SAPC   H6Y 5087   5.097   5.040   7.053 -0.3093 -2.4750 -1.6063
   63SAPC   C37 5088   4.938   5.020   7.197  0.4053  0.8290  0.7601
   63SAPC   H7X 5089   4.968   4.926   7.248 -1.1457  0.3975  0.8933
   63SAPC   H7Y 5090   4.828   5.031   7.192  0.3267  0.2971  1.3129
   63SAPC   C38 5091   4.974   5.138   7.296  0.3500 -0.5083 -0.2446
   63SAPC   H8X 5092   4.938   5.229   7.245  1.2789  0.5520  0.9780
   63SAPC   H8Y 5093   5.084   5.152   7.298  0.2563  0.5959 -1.5831
   63SAPC   C39 5094   4.904   5.118   7.431 -0.9342  0.1766 -0.9827
   63SAPC   H9X 5095   4.946   5.028   7.481  0.2975  1.6870  0.7783
   63SAPC   H9Y 5096   4.801   5.092   7.400 -0.9886 -0.4562 -0.2777
   63SAPC  C310 5097   4.896   5.236   7.528 -0.7003  0.2388 -0.3928
   63SAPC  H10X 5098   4.836   5.318   7.481  0.3592  1.9606  1.1894
   63SAPC  H10Y 5099   4.999   5.273   7.550 -1.1626  0.9332  0.6454
   63SAPC  C311 5100   4.837   5.201   7.661 -0.2766 -0.6740 -0.9126
   63SAPC  H11X 5101   4.881   5.115   7.716 -0.1893 -1.3674 -2.0477
   63SAPC  H11Y 5102   4.734   5.163   7.643  0.8649 -2.5783 -3.8130
   63SAPC  C312 5103   4.828   5.324   7.755 -0.5672  0.2423 -0.9065
   63SAPC  H12X 5104   4.770   5.399   7.697  1.3879  1.4026 -1.4267
   63SAPC  H12Y 5105   4.930   5.365   7.769 -1.3870  1.8269  0.6819
   63SAPC  C313 5106   4.782   5.298   7.897  0.2281  0.6141  0.6365
   63SAPC  H13X 5107   4.874   5.258   7.944  1.3598 -0.0539 -2.0724
   63SAPC  H13Y 5108   4.702   5.221   7.903 -1.9975  2.4560 -3.6078
   63SAPC  C314 5109   4.724   5.421   7.973 -0.5344  0.1291 -0.1693
   63SAPC  H14X 5110   4.628   5.449   7.926 -0.3638  2.0669  0.5875
   63SAPC  H14Y 5111   4.784   5.514   7.967 -2.1522  1.1675 -0.6006
   63SAPC  C315 5112   4.707   5.382   8.119 -0.3343 -0.5630  0.3436
   63SAPC  H15X 5113   4.668   5.280   8.141  0.5913 -0.6765  1.5019
   63SAPC  H15Y 5114   4.653   5.463   8.171  0.5310 -1.0841  2.0793
   63SAPC  C316 5115   4.838   5.363   8.197 -0.3874 -0.4045  0.3712
   63SAPC  H16X 5116   4.918   5.431   8.162 -1.1723  1.6740  2.4761
   63SAPC  H16Y 5117   4.875   5.259   8.190  3.8503  0.8619  2.1211
   63SAPC  C317 5118   4.824   5.378   8.352 -0.2010 -0.4637  0.7393
   63SAPC  H17X 5119   4.748   5.303   8.381  0.1485 -1.5755 -1.1341
   63SAPC  H17Y 5120   4.778   5.474   8.385  0.3739 -0.5423  1.8036
   63SAPC  C318 5121   4.958   5.366   8.420  0.4412  0.1502 -0.7497
   63SAPC  H18X 5122   5.012   5.463   8.422 -0.1227  0.4701 -0.6470
   63SAPC  H18Y 5123   5.019   5.296   8.359  2.4111  1.1996 -0.0287
   63SAPC  H18Z 5124   4.954   5.334   8.526  1.6233 -1.8427 -1.2923
   64SAPC     N 5125   0.623   5.002   5.959 -0.5230 -0.2580 -0.5812
   64SAPC   C12 5126   0.636   5.144   5.994 -0.4305 -0.5039 -0.3495
   64SAPC  H12A 5127   0.587   5.211   5.925  1.9583  0.6410 -0.9835
   64SAPC  H12B 5128   0.739   5.177   5.993 -0.8632  0.9216  0.6682
   64SAPC   C13 5129   0.727   4.971   5.853 -0.0414  0.1177 -0.5346
   64SAPC  H13A 5130   0.827   4.983   5.890  0.0597 -0.6879 -0.5292
   64SAPC  H13B 5131   0.720   4.866   5.828 -1.5332 -0.0959  0.6739
   64SAPC  H13C 5132   0.707   5.031   5.766  1.5053 -1.3700 -1.9422
   64SAPC   C14 5133   0.647   4.918   6.086 -0.3036  0.0221  0.1541
   64SAPC  H14A 5134   0.634   4.814   6.058  0.6462  0.2080 -1.0460
   64SAPC  H14B 5135   0.743   4.945   6.126 -0.2589  1.3955 -0.8353
   64SAPC  H14C 5136   0.576   4.946   6.162 -2.4340 -1.3276 -1.2570
   64SAPC   C15 5137   0.487   4.962   5.915  0.1804  0.1513 -0.0458
   64SAPC  H15A 5138   0.417   4.988   5.994  1.5164 -0.5054  1.3757
   64SAPC  H15B 5139   0.466   5.000   5.816  4.4268  2.1849 -0.2564
   64SAPC  H15C 5140   0.478   4.854   5.907  0.5536  0.2114 -1.2510
   64SAPC   C11 5141   0.569   5.185   6.129  0.4885 -0.3707 -0.0935
   64SAPC  H11A 5142   0.571   5.296   6.132 -0.8793 -0.3427  0.2137
   64SAPC  H11B 5143   0.607   5.155   6.229  0.6945 -1.9312 -0.6226
   64SAPC     P 5144   0.335   5.247   6.051 -0.1310 -0.1470  0.0485
   64SAPC   O13 5145   0.407   5.333   5.961  0.3948  0.7348  0.0236
   64SAPC   O14 5146   0.232   5.169   5.986 -0.6880  0.6677 -0.3164
   64SAPC   O12 5147   0.437   5.149   6.128  0.0752  0.3726 -0.1020
   64SAPC   O11 5148   0.262   5.322   6.164 -0.4851  0.0555 -0.2668
   64SAPC    C1 5149   0.342   5.346   6.288 -0.2767  0.2694  0.1618
   64SAPC    HA 5150   0.363   5.251   6.342 -1.5838  1.1931  2.3150
   64SAPC    HB 5151   0.437   5.398   6.263 -0.1019 -0.2306 -0.2367
   64SAPC    C2 5152   0.263   5.442   6.386 -0.6394  0.0872  0.6871
   64SAPC    HS 5153   0.338   5.486   6.455  0.8102 -0.6069 -0.4080
   64SAPC   O21 5154   0.176   5.367   6.469  0.0246  0.1221 -0.0551
   64SAPC   C21 5155   0.219   5.292   6.565  0.1788  0.4201  0.3887
   64SAPC   O22 5156   0.334   5.287   6.607 -0.2625 -0.2835 -0.6204
   64SAPC   C22 5157   0.101   5.217   6.641  0.1289 -0.8300  0.6263
   64SAPC   H2R 5158   0.005   5.238   6.588  0.2633 -0.3269  0.5853
   64SAPC   H2S 5159   0.121   5.108   6.638  0.9043 -0.6662 -1.1937
   64SAPC    C3 5160   0.180   5.558   6.323  0.4095  0.2783  0.0998
   64SAPC    HX 5161   0.124   5.517   6.236  0.7041 -1.4383  0.7101
   64SAPC    HY 5162   0.253   5.626   6.275 -0.3874  0.2458 -1.1872
   64SAPC   O31 5163   0.086   5.622   6.415 -0.8651 -0.2363  0.4081
   64SAPC   C31 5164   0.138   5.707   6.500 -0.1276  0.1359 -0.5750
   64SAPC   O32 5165   0.259   5.726   6.514  0.3033  0.8094  0.3801
   64SAPC   C32 5166   0.031   5.755   6.604  0.5202  0.2617 -0.1595
   64SAPC   H2X 5167  -0.068   5.738   6.557 -0.7212 -0.1687  2.5181
   64SAPC   H2Y 5168   0.044   5.862   6.630 -0.6955  0.2387  0.5915
   64SAPC   C23 5169   0.099   5.265   6.789  1.1356  0.2598  0.8626
   64SAPC   H3R 5170   0.093   5.376   6.780 -1.6362  0.0982 -0.0205
   64SAPC   H3S 5171   0.194   5.234   6.837  1.6628  1.1409  0.4023
   64SAPC   C24 5172  -0.010   5.191   6.878  0.6885 -0.9570  0.2559
   64SAPC   H4R 5173  -0.112   5.224   6.849 -0.1342 -2.0616  1.8303
   64SAPC   H4S 5174   0.018   5.228   6.979 -2.5605  1.2377  0.4205
   64SAPC   C25 5175  -0.017   5.044   6.868  0.3139  0.1668 -0.4867
   64SAPC   H5R 5176  -0.053   5.001   6.773  1.3964  0.4274 -1.0253
   64SAPC   C26 5177   0.022   4.954   6.959  0.0396 -0.1271 -0.2304
   64SAPC   H6R 5178   0.020   4.850   6.924 -1.0690  0.4250 -1.8476
   64SAPC   C27 5179   0.088   4.981   7.091 -0.1237  0.6193  0.1103
   64SAPC   H7R 5180   0.127   5.084   7.086 -0.4025  0.7998  1.4929
   64SAPC   H7S 5181   0.173   4.909   7.102 -1.0834 -0.7174 -0.9561
   64SAPC   C28 5182  -0.007   4.971   7.210  0.3540  0.2526 -0.2159
   64SAPC   H8R 5183  -0.110   4.943   7.186  0.0948  2.1760 -1.5176
   64SAPC   C29 5184   0.014   5.002   7.345  0.0533 -0.5026  0.6167
   64SAPC   H9R 5185  -0.070   4.973   7.409  0.3305 -0.9717  0.7751
   64SAPC  C210 5186   0.141   5.049   7.411  0.1131 -0.7779  0.4818
   64SAPC  H10R 5187   0.208   5.087   7.331  0.8468 -0.4776  1.2251
   64SAPC  H10S 5188   0.179   4.965   7.472 -2.8205 -0.8655  2.2816
   64SAPC  C211 5189   0.114   5.157   7.516  0.6936 -0.4597  0.0790
   64SAPC  H11R 5190   0.132   5.259   7.480  2.7738 -0.8064  0.0720
   64SAPC  C212 5191   0.089   5.144   7.643  0.8828  0.2865 -0.9364
   64SAPC  H12R 5192   0.071   5.239   7.695 -0.5320 -0.5513  0.1711
   64SAPC  C213 5193   0.069   5.020   7.727  0.6690  0.4251  0.4018
   64SAPC  H13R 5194   0.119   4.933   7.679  3.0415  1.8004  0.3090
   64SAPC  H13S 5195  -0.041   5.003   7.736  0.7438 -0.1956  0.1525
   64SAPC  C214 5196   0.138   5.038   7.861  0.4045 -0.6951 -0.6908
   64SAPC  H14R 5197   0.248   5.040   7.859  0.5101  2.1529  3.1584
   64SAPC  C215 5198   0.081   5.051   7.981 -0.0670 -0.0019 -0.4310
   64SAPC  H15R 5199   0.149   5.068   8.065 -0.4351 -2.3759  0.3723
   64SAPC  C216 5200  -0.066   5.028   8.013  0.5963  0.2514 -0.7416
   64SAPC  H16R 5201  -0.113   4.958   7.942  0.6611  0.1049 -0.6397
   64SAPC  H16S 5202  -0.126   5.122   8.006 -0.3307 -0.2902 -0.0918
   64SAPC  C217 5203  -0.060   4.958   8.149 -0.3368 -0.6015  0.0126
   64SAPC  H17R 5204   0.013   5.003   8.221  0.3109 -0.3282 -0.8084
   64SAPC  H17S 5205  -0.023   4.856   8.127  0.8034 -0.5649  1.6422
   64SAPC  C218 5206  -0.184   4.939   8.234  0.3527  0.4720 -0.7427
   64SAPC  H18R 5207  -0.268   4.896   8.174  0.7019  1.5332 -2.0362
   64SAPC  H18S 5208  -0.227   5.035   8.271 -2.1463 -0.8514 -0.1588
   64SAPC  C219 5209  -0.178   4.854   8.357  0.1107 -0.0028  0.3271
   64SAPC  H19R 5210  -0.122   4.762   8.330  0.0243 -0.0038  0.1558
   64SAPC  H19S 5211  -0.282   4.834   8.388 -1.3113  1.4705 -3.2755
   64SAPC  C220 5212  -0.120   4.935   8.476  0.2803  0.3097 -0.4131
   64SAPC  H20R 5213  -0.024   4.981   8.445  1.1501 -0.7649  0.6595
   64SAPC  H20S 5214  -0.112   4.877   8.570 -3.0968 -1.0346 -0.8814
   64SAPC  H20T 5215  -0.194   5.015   8.499  0.1011  0.1266 -0.3578
   64SAPC   C33 5216   0.038   5.683   6.741  0.2563  0.4953 -0.1616
   64SAPC   H3X 5217   0.124   5.725   6.798 -0.0311  0.2423  0.4648
   64SAPC   H3Y 5218   0.070   5.577   6.734  1.6145  0.9244 -0.5888
   64SAPC   C34 5219  -0.091   5.710   6.823  0.0123  0.0599 -0.1852
   64SAPC   H4X 5220  -0.172   5.689   6.749  1.5946  0.5902 -2.1122
   64SAPC   H4Y 5221  -0.096   5.818   6.850  2.4442  0.0759  0.3423
   64SAPC   C35 5222  -0.112   5.611   6.936 -0.0141 -0.3440 -0.2859
   64SAPC   H5X 5223  -0.059   5.517   6.907 -0.6975 -0.8043 -0.0568
   64SAPC   H5Y 5224  -0.215   5.569   6.936  0.0468 -0.4961 -0.7247
   64SAPC   C36 5225  -0.067   5.661   7.072 -0.5765  0.1267  0.6244
   64SAPC   H6X 5226  -0.100   5.764   7.096 -2.2632  0.0678 -1.3589
   64SAPC   H6Y 5227   0.043   5.672   7.058 -0.7402  0.4268 -0.4832
   64SAPC   C37 5228  -0.110   5.579   7.195 -0.6287  0.2179 -0.4580
   64SAPC   H7X 5229  -0.083   5.472   7.189 -0.2917  0.1302  1.9309
   64SAPC   H7Y 5230  -0.221   5.570   7.197 -0.7096  1.1956 -0.3432
   64SAPC   C38 5231  -0.053   5.647   7.320  0.2758 -0.1860  0.0768
   64SAPC   H8X 5232  -0.100   5.744   7.350 -0.1259 -0.9762  2.0248
   64SAPC   H8Y 5233   0.055   5.669   7.315  0.1073  0.5742 -0.4759
   64SAPC   C39 5234  -0.064   5.557   7.447  0.4201  0.7482  1.5653
   64SAPC   H9X 5235  -0.009   5.466   7.414 -0.7192  0.4942  0.3321
   64SAPC   H9Y 5236  -0.169   5.536   7.475 -0.0168  0.6846 -0.0818
   64SAPC  C310 5237   0.011   5.614   7.569 -0.2131 -0.0220 -0.5096
   64SAPC  H10X 5238  -0.006   5.723   7.579  0.4212  0.1022 -0.8298
   64SAPC  H10Y 5239   0.121   5.617   7.554 -0.1577  0.1740 -0.0661
   64SAPC  C311 5240  -0.045   5.550   7.696  0.1880 -0.0384 -0.1669
   64SAPC  H11X 5241  -0.056   5.441   7.675 -0.6315  0.2597 -1.3587
   64SAPC  H11Y 5242  -0.141   5.591   7.735  0.9453  2.7113 -1.0587
   64SAPC  C312 5243   0.064   5.550   7.812  0.5877  0.9662 -0.4990
   64SAPC  H12X 5244   0.058   5.654   7.853 -1.2654  0.1451  1.4048
   64SAPC  H12Y 5245   0.159   5.544   7.756  1.3244  0.2643  0.8227
   64SAPC  C313 5246   0.029   5.434   7.906 -0.2526 -0.6214 -0.0005
   64SAPC  H13X 5247   0.089   5.347   7.873  1.2846 -0.0135  1.1034
   64SAPC  H13Y 5248  -0.081   5.419   7.899 -0.4950 -0.2582  2.5310
   64SAPC  C314 5249   0.059   5.476   8.053 -0.0864 -0.5442  0.0306
   64SAPC  H14X 5250   0.001   5.562   8.094 -0.3153  1.1134 -3.6122
   64SAPC  H14Y 5251   0.161   5.520   8.062  0.2457 -0.6387 -3.0358
   64SAPC  C315 5252   0.052   5.352   8.137  0.5076  0.4955 -0.2063
   64SAPC  H15X 5253   0.136   5.279   8.137 -1.4121 -1.7736 -0.4200
   64SAPC  H15Y 5254  -0.035   5.292   8.102  1.4198 -1.1048  0.1832
   64SAPC  C316 5255   0.022   5.399   8.283 -0.5994 -0.1280  0.5248
   64SAPC  H16X 5256  -0.063   5.469   8.267 -1.2985 -1.1672 -0.3001
   64SAPC  H16Y 5257   0.105   5.458   8.328 -0.6154 -0.5906  1.1612
   64SAPC  C317 5258  -0.023   5.283   8.370  0.2545  0.0273 -0.0790
   64SAPC  H17X 5259   0.065   5.221   8.395 -0.3342 -0.4559  0.8072
   64SAPC  H17Y 5260  -0.107   5.230   8.320  0.2003  0.9596 -1.0111
   64SAPC  C318 5261  -0.069   5.336   8.507 -0.1671  0.5389 -0.0548
   64SAPC  H18X 5262  -0.129   5.259   8.559  0.8117 -0.4227 -0.3486
   64SAPC  H18Y 5263  -0.135   5.422   8.481 -1.3315  0.2024  1.7066
   64SAPC  H18Z 5264   0.016   5.375   8.567 -0.0159  0.8261 -0.4497
   65SAPC     N 5265   1.092   6.760   5.849 -0.2271 -0.0685  0.3207
   65SAPC   C12 5266   1.012   6.693   5.959  0.2183 -0.4622 -0.6527
   65SAPC  H12A 5267   1.034   6.735   6.056  0.2878 -0.5849 -0.6160
   65SAPC  H12B 5268   1.050   6.593   5.968 -0.0856 -0.4929  0.3251
   65SAPC   C13 5269   1.061   6.702   5.714 -0.4924  0.0204 -0.5195
   65SAPC  H13A 5270   1.113   6.608   5.703  0.9366  0.7783 -0.3984
   65SAPC  H13B 5271   0.956   6.681   5.706 -0.5306  1.0218 -3.0420
   65SAPC  H13C 5272   1.074   6.773   5.633 -0.3776  0.8927  0.2539
   65SAPC   C14 5273   1.044   6.906   5.835 -0.4217 -0.7374  0.7344
   65SAPC  H14A 5274   1.048   6.942   5.733 -1.0328  0.9796  1.2880
   65SAPC  H14B 5275   0.943   6.913   5.873 -1.1402  0.6575 -1.3256
   65SAPC  H14C 5276   1.108   6.969   5.895 -2.0057 -0.5107  2.2025
   65SAPC   C15 5277   1.236   6.744   5.886  0.0205  0.6294  0.4507
   65SAPC  H15A 5278   1.261   6.790   5.981  0.0916 -0.6097  1.0405
   65SAPC  H15B 5279   1.257   6.638   5.888 -0.8903  0.4494  0.9074
   65SAPC  H15C 5280   1.296   6.804   5.819 -2.7527  1.4449 -1.3769
   65SAPC   C11 5281   0.855   6.695   5.937 -0.9206 -0.3323  0.0507
   65SAPC  H11A 5282   0.807   6.607   5.984  0.2610 -0.5777  0.8073
   65SAPC  H11B 5283   0.832   6.680   5.829 -1.9968 -0.3711  0.2829
   65SAPC     P 5284   0.789   6.854   6.131 -0.0163 -0.2006 -0.5026
   65SAPC   O13 5285   0.923   6.881   6.192 -0.6409 -0.3431  0.4406
   65SAPC   O14 5286   0.689   6.963   6.141 -0.2263 -0.4253  0.0805
   65SAPC   O12 5287   0.800   6.824   5.978 -0.3083 -0.1307 -0.6630
   65SAPC   O11 5288   0.723   6.727   6.196 -0.2448 -0.1392  0.0959
   65SAPC    C1 5289   0.588   6.709   6.215 -0.0546  0.3672 -0.4288
   65SAPC    HA 5290   0.532   6.746   6.126 -0.8072  1.6721  0.5732
   65SAPC    HB 5291   0.558   6.602   6.228  0.0452  0.4331  0.3338
   65SAPC    C2 5292   0.524   6.777   6.338  0.2593 -0.9598 -0.0636
   65SAPC    HS 5293   0.543   6.886   6.323  0.0666 -0.9837 -0.4699
   65SAPC   O21 5294   0.576   6.743   6.468 -0.6070  0.4560  0.4509
   65SAPC   C21 5295   0.572   6.831   6.567  0.5218  0.5409 -0.1986
   65SAPC   O22 5296   0.513   6.936   6.574 -0.3324  0.0204  0.0564
   65SAPC   C22 5297   0.658   6.787   6.684 -0.6047  0.5751  0.0507
   65SAPC   H2R 5298   0.629   6.685   6.717 -0.2684  0.5358  0.2295
   65SAPC   H2S 5299   0.758   6.769   6.640 -0.1185  1.8429  0.5914
   65SAPC    C3 5300   0.368   6.765   6.331 -0.0129 -0.0159 -0.6597
   65SAPC    HX 5301   0.345   6.659   6.358 -0.6924  0.3314  0.1510
   65SAPC    HY 5302   0.334   6.773   6.226 -1.6362 -1.8699 -0.3130
   65SAPC   O31 5303   0.295   6.848   6.419  0.7384  1.0922  0.1439
   65SAPC   C31 5304   0.255   6.959   6.375 -0.3180 -0.1857  0.5753
   65SAPC   O32 5305   0.291   7.003   6.265  0.1910 -0.3188  0.1238
   65SAPC   C32 5306   0.167   7.038   6.471 -0.5917  0.4775 -0.1134
   65SAPC   H2X 5307   0.097   7.098   6.410 -0.4505 -1.3390 -2.1354
   65SAPC   H2Y 5308   0.237   7.102   6.530  1.1964 -2.0656  0.6311
   65SAPC   C23 5309   0.661   6.879   6.805 -0.1063 -0.5909 -0.1175
   65SAPC   H3R 5310   0.560   6.900   6.846  0.3651 -0.1118  0.8078
   65SAPC   H3S 5311   0.701   6.983   6.794 -1.7175 -0.1033 -1.6932
   65SAPC   C24 5312   0.736   6.814   6.916  0.2042  0.0438 -0.7226
   65SAPC   H4R 5313   0.842   6.789   6.893  0.3223 -1.6118  1.4244
   65SAPC   H4S 5314   0.701   6.709   6.926  2.0876 -0.5679 -0.1743
   65SAPC   C25 5315   0.746   6.893   7.044  0.6185 -0.0536 -0.9512
   65SAPC   H5R 5316   0.815   6.978   7.039 -1.7961  2.0941  1.0102
   65SAPC   C26 5317   0.666   6.869   7.152 -0.0165 -0.1776 -0.4858
   65SAPC   H6R 5318   0.680   6.928   7.244  2.5893  1.2990 -1.7810
   65SAPC   C27 5319   0.568   6.759   7.177  0.3652  0.1954 -0.2454
   65SAPC   H7R 5320   0.620   6.688   7.245  1.3541  1.5796  0.4579
   65SAPC   H7S 5321   0.545   6.702   7.084  0.2304  2.5404 -1.6809
   65SAPC   C28 5322   0.446   6.789   7.258  0.5554 -0.2290 -0.2670
   65SAPC   H8R 5323   0.350   6.787   7.204 -0.0257 -0.0266  0.7413
   65SAPC   C29 5324   0.434   6.807   7.387  0.6229 -0.7922  0.2663
   65SAPC   H9R 5325   0.329   6.814   7.418  0.3039  1.0013 -1.1393
   65SAPC  C210 5326   0.536   6.798   7.493 -0.3562 -1.2821 -0.2366
   65SAPC  H10R 5327   0.629   6.745   7.461 -1.7693 -2.1356 -3.0723
   65SAPC  H10S 5328   0.488   6.738   7.573  1.5039 -1.6517  0.6511
   65SAPC  C211 5329   0.560   6.932   7.556  0.3524  0.9896  0.3868
   65SAPC  H11R 5330   0.499   7.023   7.548 -0.5828  0.4570  1.2876
   65SAPC  C212 5331   0.649   6.947   7.648 -0.7184  0.1738 -0.4280
   65SAPC  H12R 5332   0.656   7.043   7.702 -0.0727 -0.3298  0.4022
   65SAPC  C213 5333   0.745   6.839   7.707 -0.2063 -0.1226  0.5786
   65SAPC  H13R 5334   0.722   6.743   7.657 -0.5428  0.3324 -0.1442
   65SAPC  H13S 5335   0.740   6.818   7.816 -1.0287  0.0029  0.5614
   65SAPC  C214 5336   0.890   6.874   7.678 -0.7963  0.7435 -0.8006
   65SAPC  H14R 5337   0.916   6.832   7.580  0.0835 -1.7825  0.4673
   65SAPC  C215 5338   0.967   6.936   7.769 -0.0683  0.1122 -0.2189
   65SAPC  H15R 5339   1.070   6.961   7.739  0.1150 -0.0295  0.2948
   65SAPC  C216 5340   0.927   6.981   7.903  0.1890  0.7140  0.2265
   65SAPC  H16R 5341   0.818   6.971   7.921  0.6116 -1.1817  1.8565
   65SAPC  H16S 5342   0.962   7.086   7.914  0.8016  0.6860 -1.2600
   65SAPC  C217 5343   0.992   6.897   8.011 -0.3467 -0.5210  0.9764
   65SAPC  H17R 5344   1.103   6.891   7.999 -0.4712  0.6518 -1.0668
   65SAPC  H17S 5345   0.955   6.793   7.998  1.3167 -1.2585  2.0060
   65SAPC  C218 5346   0.972   6.941   8.159 -0.0106  0.4674 -0.1988
   65SAPC  H18R 5347   0.863   6.957   8.173 -0.0225  2.4958 -2.2977
   65SAPC  H18S 5348   1.002   7.048   8.159 -1.4104  0.8751 -1.2134
   65SAPC  C219 5349   1.020   6.845   8.267 -0.2591  0.1055  0.8498
   65SAPC  H19R 5350   1.130   6.845   8.287 -0.6128  0.1372  2.8357
   65SAPC  H19S 5351   0.994   6.745   8.226 -0.5146  0.8406 -0.8418
   65SAPC  C220 5352   0.954   6.861   8.405  0.6163  0.0592  0.4243
   65SAPC  H20R 5353   0.965   6.962   8.449  0.6660 -0.4025  1.4894
   65SAPC  H20S 5354   0.994   6.802   8.490  3.3808  1.2515  0.0048
   65SAPC  H20T 5355   0.843   6.863   8.409  0.4990 -2.7979 -0.0454
   65SAPC   C33 5356   0.096   6.936   6.570  0.6427 -0.5500  0.0296
   65SAPC   H3X 5357   0.172   6.894   6.638  2.6851 -0.7615 -2.3129
   65SAPC   H3Y 5358   0.048   6.864   6.500  1.5293  1.2199 -2.4511
   65SAPC   C34 5359  -0.012   7.007   6.667 -0.4132  0.7395  0.7074
   65SAPC   H4X 5360  -0.093   7.055   6.607 -0.7730 -1.1577 -0.3322
   65SAPC   H4Y 5361   0.041   7.092   6.716  1.7943 -0.8205  1.0392
   65SAPC   C35 5362  -0.078   6.912   6.768 -0.3097  0.0876  0.0994
   65SAPC   H5X 5363  -0.142   6.972   6.837 -0.5571  1.3341 -1.1852
   65SAPC   H5Y 5364   0.005   6.876   6.833  1.4897  1.3639 -1.4436
   65SAPC   C36 5365  -0.167   6.801   6.704  0.0274 -0.4004  0.6299
   65SAPC   H6X 5366  -0.107   6.764   6.618  0.0633 -2.4887  1.5321
   65SAPC   H6Y 5367  -0.256   6.835   6.648  1.0273 -0.3438 -0.9685
   65SAPC   C37 5368  -0.203   6.689   6.808  0.4573 -0.2325 -0.5745
   65SAPC   H7X 5369  -0.111   6.634   6.838  0.8921  0.4338 -0.6603
   65SAPC   H7Y 5370  -0.275   6.623   6.756 -0.3290 -0.4822  0.8260
   65SAPC   C38 5371  -0.274   6.739   6.936 -0.0065  0.4242 -0.5932
   65SAPC   H8X 5372  -0.345   6.823   6.924  0.1644  0.4198 -1.6259
   65SAPC   H8Y 5373  -0.183   6.784   6.980  0.3510  0.4038 -1.3087
   65SAPC   C39 5374  -0.320   6.616   7.030 -0.1653 -0.8988  0.6330
   65SAPC   H9X 5375  -0.254   6.527   7.021 -1.8844 -2.2274  0.8632
   65SAPC   H9Y 5376  -0.419   6.586   6.989 -1.3510  2.0237  1.1979
   65SAPC  C310 5377  -0.327   6.659   7.175  0.8677  0.0996  0.2321
   65SAPC  H10X 5378  -0.407   6.734   7.191 -0.3963 -0.4169 -3.2866
   65SAPC  H10Y 5379  -0.228   6.704   7.199  0.2472  1.1659  0.7984
   65SAPC  C311 5380  -0.352   6.542   7.264  0.1971 -0.5683  0.1082
   65SAPC  H11X 5381  -0.282   6.462   7.232  0.8378 -0.9723  2.4546
   65SAPC  H11Y 5382  -0.457   6.511   7.244  0.2850 -1.4320  0.9419
   65SAPC  C312 5383  -0.329   6.563   7.420  0.7332 -0.3463 -0.5790
   65SAPC  H12X 5384  -0.407   6.638   7.445  0.3298 -0.5878 -1.1250
   65SAPC  H12Y 5385  -0.227   6.602   7.442  0.9082 -1.3329  0.4249
   65SAPC  C313 5386  -0.359   6.435   7.494 -0.1745 -0.7050  0.1118
   65SAPC  H13X 5387  -0.274   6.363   7.485 -0.2293 -0.9720  1.6877
   65SAPC  H13Y 5388  -0.449   6.399   7.438 -1.0104  0.9554  0.3685
   65SAPC  C314 5389  -0.374   6.445   7.648 -0.3664  0.0292  0.3048
   65SAPC  H14X 5390  -0.347   6.344   7.686 -0.4274  0.1650  0.7116
   65SAPC  H14Y 5391  -0.483   6.455   7.667 -0.0068  2.3241  1.2963
   65SAPC  C315 5392  -0.280   6.549   7.718  0.2212  0.6677 -0.3259
   65SAPC  H15X 5393  -0.318   6.652   7.698 -0.2400  0.6871  0.6334
   65SAPC  H15Y 5394  -0.183   6.535   7.666 -0.7239  1.3121 -2.2918
   65SAPC  C316 5395  -0.266   6.534   7.867 -0.0157 -0.2659 -0.3560
   65SAPC  H16X 5396  -0.241   6.427   7.881 -1.8634 -0.8872 -1.5661
   65SAPC  H16Y 5397  -0.364   6.552   7.917  0.2880  1.8367 -0.4775
   65SAPC  C317 5398  -0.156   6.628   7.920 -0.1380 -0.0781  0.6969
   65SAPC  H17X 5399  -0.162   6.728   7.872  0.5599  0.2275  1.2446
   65SAPC  H17Y 5400  -0.051   6.605   7.893  0.0442  0.4217  0.9874
   65SAPC  C318 5401  -0.168   6.629   8.069  0.2172  0.3256 -0.1782
   65SAPC  H18X 5402  -0.066   6.639   8.112  0.4234 -1.1998 -0.2943
   65SAPC  H18Y 5403  -0.208   6.536   8.114  2.9623 -0.1107  1.5349
   65SAPC  H18Z 5404  -0.214   6.715   8.121  0.3296 -1.3276  2.7666
   66SAPC     N 5405   4.877   5.951   5.785  0.0798  0.3970 -0.0903
   66SAPC   C12 5406   4.871   6.061   5.900 -0.4531 -0.7850  0.7621
   66SAPC  H12A 5407   4.937   6.141   5.867 -0.1716 -1.0706  0.6324
   66SAPC  H12B 5408   4.920   6.021   5.987  0.6847  0.2352  0.6086
   66SAPC   C13 5409   4.802   5.992   5.661 -0.0022  0.0459 -0.3442
   66SAPC  H13A 5410   4.806   5.913   5.587 -0.5105 -0.3920  0.0868
   66SAPC  H13B 5411   4.698   6.006   5.688  0.0086  0.0265 -0.2945
   66SAPC  H13C 5412   4.844   6.085   5.624  0.4506  0.2975  0.7797
   66SAPC   C14 5413   5.020   5.936   5.747  0.5951 -0.7428  0.7037
   66SAPC  H14A 5414   5.044   6.008   5.670  1.5918 -0.8523  0.8965
   66SAPC  H14B 5415   5.091   5.941   5.829  1.1983  0.7747  0.1137
   66SAPC  H14C 5416   5.033   5.842   5.695  0.7448 -0.5522  0.3989
   66SAPC   C15 5417   4.829   5.815   5.830 -0.3874 -0.1945 -0.1654
   66SAPC  H15A 5418   4.722   5.827   5.841 -0.2041  0.9966  0.3866
   66SAPC  H15B 5419   4.842   5.736   5.758 -4.2295  0.3471 -1.5984
   66SAPC  H15C 5420   4.876   5.792   5.924 -0.5189 -1.4825 -0.4051
   66SAPC   C11 5421   4.740   6.125   5.945  1.1332 -0.2249 -0.1082
   66SAPC  H11A 5422   4.690   6.183   5.865 -2.2002 -1.8243  0.7131
   66SAPC  H11B 5423   4.753   6.210   6.015 -1.3206  1.5153 -1.7309
   66SAPC     P 5424   4.631   5.939   6.109 -0.5785 -0.3408  0.5021
   66SAPC   O13 5425   4.523   5.842   6.105 -0.2232 -0.4440  0.5675
   66SAPC   O14 5426   4.766   5.878   6.126 -0.1949 -0.0014 -0.1270
   66SAPC   O12 5427   4.630   6.034   5.985 -0.2003  0.4015 -0.2142
   66SAPC   O11 5428   4.603   6.045   6.229  0.0128  0.3444 -0.3052
   66SAPC    C1 5429   4.468   6.100   6.220  0.1891  0.3373  0.5552
   66SAPC    HA 5430   4.461   6.183   6.147 -2.7283  0.1670  0.5496
   66SAPC    HB 5431   4.391   6.025   6.190  1.4300 -0.3549 -0.9721
   66SAPC    C2 5432   4.406   6.146   6.352 -0.3107  0.0427  0.1155
   66SAPC    HS 5433   4.298   6.161   6.328  0.1923 -1.2198 -3.3036
   66SAPC   O21 5434   4.473   6.264   6.408  0.1156  0.0355  0.5686
   66SAPC   C21 5435   4.405   6.361   6.461 -0.5086  0.9552  0.4435
   66SAPC   O22 5436   4.285   6.387   6.450 -0.5239  0.3394 -0.2781
   66SAPC   C22 5437   4.514   6.431   6.544  0.4412 -0.0044  0.1305
   66SAPC   H2R 5438   4.574   6.349   6.590 -1.6991 -0.4272  2.2727
   66SAPC   H2S 5439   4.577   6.495   6.478 -0.5093 -1.2146 -1.9989
   66SAPC    C3 5440   4.413   6.031   6.459  0.5756  0.8777 -0.2737
   66SAPC    HX 5441   4.524   6.023   6.466  0.5864 -0.2939 -1.4839
   66SAPC    HY 5442   4.370   5.937   6.416  1.2030  0.2209  0.5230
   66SAPC   O31 5443   4.361   6.065   6.589  0.3483  1.0506  0.0446
   66SAPC   C31 5444   4.228   6.064   6.607  0.4547 -0.6642  0.2439
   66SAPC   O32 5445   4.146   6.067   6.520  0.4991 -0.6137  0.3844
   66SAPC   C32 5446   4.200   6.066   6.761  0.3454  0.0958  0.1591
   66SAPC   H2X 5447   4.291   6.062   6.824  0.2224  1.9630  0.4863
   66SAPC   H2Y 5448   4.136   5.975   6.769  1.7061 -0.7955  1.0972
   66SAPC   C23 5449   4.452   6.523   6.655 -0.0894 -0.6877  0.7204
   66SAPC   H3R 5450   4.385   6.594   6.602  0.2494 -0.8710  0.0424
   66SAPC   H3S 5451   4.522   6.600   6.694 -1.7456  1.2627 -0.1010
   66SAPC   C24 5452   4.367   6.458   6.766  0.3550  0.9741 -0.4793
   66SAPC   H4R 5453   4.282   6.408   6.716  1.1516  1.0679 -1.9352
   66SAPC   H4S 5454   4.334   6.537   6.837 -0.9995 -0.3988  0.4383
   66SAPC   C25 5455   4.464   6.361   6.833 -1.3836  0.6354  0.2197
   66SAPC   H5R 5456   4.496   6.278   6.769  1.2754  0.5127  1.6506
   66SAPC   C26 5457   4.498   6.352   6.963 -0.1375  0.6904  0.0247
   66SAPC   H6R 5458   4.572   6.274   6.984 -2.5067 -1.8813 -0.8424
   66SAPC   C27 5459   4.452   6.446   7.074  0.0021 -0.9046 -0.1320
   66SAPC   H7R 5460   4.474   6.390   7.167  0.4851  0.7313  0.7474
   66SAPC   H7S 5461   4.341   6.449   7.078 -0.0966 -2.6481 -0.8098
   66SAPC   C28 5462   4.506   6.590   7.059 -0.5453  0.5729 -0.0381
   66SAPC   H8R 5463   4.468   6.647   6.972  0.4833  0.3348 -0.6546
   66SAPC   C29 5464   4.582   6.647   7.153  0.4340  0.2568  0.5528
   66SAPC   H9R 5465   4.591   6.756   7.135 -0.2121  0.1286 -0.5686
   66SAPC  C210 5466   4.642   6.591   7.277 -0.0039  0.1283  0.1877
   66SAPC  H10R 5467   4.709   6.665   7.325  1.0926 -1.5089  1.2228
   66SAPC  H10S 5468   4.704   6.501   7.258  0.4515  0.2203  1.2057
   66SAPC  C211 5469   4.532   6.570   7.383  0.3341 -0.2592  0.4756
   66SAPC  H11R 5470   4.437   6.519   7.357  2.1710 -3.2422 -0.6471
   66SAPC  C212 5471   4.537   6.610   7.510  0.2398 -0.4092 -1.0717
   66SAPC  H12R 5472   4.444   6.602   7.568  0.0001  0.8734 -1.2619
   66SAPC  C213 5473   4.641   6.682   7.589 -0.5129  0.4790  0.5076
   66SAPC  H13R 5474   4.636   6.790   7.563 -2.0400  0.0867 -0.9740
   66SAPC  H13S 5475   4.736   6.642   7.547 -1.3050  0.7722 -1.6350
   66SAPC  C214 5476   4.634   6.648   7.737  0.6256  0.6068  0.3567
   66SAPC  H14R 5477   4.601   6.545   7.754  0.7841  0.3834 -0.6385
   66SAPC  C215 5478   4.648   6.740   7.836  0.0397  0.1750  0.3169
   66SAPC  H15R 5479   4.650   6.710   7.942 -1.4655  1.4567  0.7323
   66SAPC  C216 5480   4.682   6.891   7.822  0.2136 -0.2830 -0.8727
   66SAPC  H16R 5481   4.678   6.922   7.715 -0.7603 -1.7790 -1.2936
   66SAPC  H16S 5482   4.782   6.910   7.867 -0.5495 -0.6628  1.0025
   66SAPC  C217 5483   4.569   6.977   7.872 -0.3531  0.2439  0.2586
   66SAPC  H17R 5484   4.473   6.948   7.825  0.8455  0.7116 -2.5924
   66SAPC  H17S 5485   4.577   7.080   7.830  2.0539  0.5859  1.4416
   66SAPC  C218 5486   4.577   6.988   8.024  0.2574  0.4703  0.0463
   66SAPC  H18R 5487   4.679   6.991   8.067  0.7451 -0.5699 -1.0002
   66SAPC  H18S 5488   4.528   6.899   8.070  0.5193  0.0189 -0.5515
   66SAPC  C219 5489   4.506   7.114   8.078 -0.5142  0.7568 -0.0275
   66SAPC  H19R 5490   4.497   7.115   8.189 -0.7118 -2.3578  0.0273
   66SAPC  H19S 5491   4.401   7.107   8.044 -0.2633  1.0394 -0.8645
   66SAPC  C220 5492   4.557   7.251   8.030  0.3967 -0.1971 -0.1031
   66SAPC  H20R 5493   4.538   7.329   8.107 -3.5257  0.5143 -1.6295
   66SAPC  H20S 5494   4.495   7.283   7.942 -2.5618 -1.4855  1.4419
   66SAPC  H20T 5495   4.664   7.254   8.002  0.8893 -0.1044  1.7545
   66SAPC   C33 5496   4.096   6.178   6.793  0.0873 -0.5109 -0.2088
   66SAPC   H3X 5497   4.004   6.170   6.731 -0.3933 -0.3090  0.4797
   66SAPC   H3Y 5498   4.141   6.276   6.766  1.0023 -1.5425 -2.5705
   66SAPC   C34 5499   4.059   6.187   6.938 -0.1822 -0.2734  0.0808
   66SAPC   H4X 5500   3.982   6.107   6.945  0.3455 -0.5223  3.8217
   66SAPC   H4Y 5501   4.007   6.282   6.963  0.7495 -0.2808  2.1888
   66SAPC   C35 5502   4.175   6.162   7.029  0.3148 -0.2396 -0.5470
   66SAPC   H5X 5503   4.261   6.223   6.992 -0.5424 -0.8835 -3.8251
   66SAPC   H5Y 5504   4.215   6.059   7.014 -0.7573 -0.7225 -0.1194
   66SAPC   C36 5505   4.152   6.203   7.176  0.3567 -0.7999  0.2374
   66SAPC   H6X 5506   4.067   6.146   7.219  2.2238 -2.4111  1.8689
   66SAPC   H6Y 5507   4.113   6.307   7.173  1.3071 -0.4465 -0.0636
   66SAPC   C37 5508   4.266   6.172   7.271  0.1464 -0.0460  0.0379
   66SAPC   H7X 5509   4.364   6.211   7.235  0.1936 -0.9344 -0.8065
   66SAPC   H7Y 5510   4.285   6.063   7.277  0.8098  0.1969  3.6009
   66SAPC   C38 5511   4.241   6.240   7.405  0.5392  0.8446 -0.6697
   66SAPC   H8X 5512   4.156   6.184   7.451 -0.7982  3.0091 -0.4131
   66SAPC   H8Y 5513   4.227   6.349   7.389 -2.0035  0.3208 -2.2979
   66SAPC   C39 5514   4.361   6.244   7.496 -0.1061 -0.1833 -0.7684
   66SAPC   H9X 5515   4.439   6.303   7.443 -0.8754  1.4454 -0.1374
   66SAPC   H9Y 5516   4.393   6.145   7.534 -1.1151  0.0746  0.7864
   66SAPC  C310 5517   4.325   6.330   7.623  0.7184 -0.4750 -0.0211
   66SAPC  H10X 5518   4.220   6.312   7.652  1.2062 -0.6723  1.7022
   66SAPC  H10Y 5519   4.330   6.440   7.606 -0.2436 -0.3073  0.7006
   66SAPC  C311 5520   4.413   6.303   7.743  0.1260  0.3763  0.4097
   66SAPC  H11X 5521   4.518   6.335   7.728 -0.6396  1.4719 -3.2779
   66SAPC  H11Y 5522   4.428   6.194   7.756 -1.2548  0.0954 -0.2163
   66SAPC  C312 5523   4.360   6.367   7.875  0.8745  0.0392 -0.4218
   66SAPC  H12X 5524   4.292   6.291   7.918 -0.5928  1.4979 -0.1383
   66SAPC  H12Y 5525   4.298   6.456   7.852  1.0562 -0.1611 -1.7005
   66SAPC  C313 5526   4.477   6.399   7.964 -0.1949  0.4341 -0.7103
   66SAPC  H13X 5527   4.571   6.432   7.916  0.1505 -0.1589 -0.4540
   66SAPC  H13Y 5528   4.508   6.305   8.014 -0.8856  0.1793 -0.7515
   66SAPC  C314 5529   4.451   6.485   8.086  0.5153 -0.3077 -0.1378
   66SAPC  H14X 5530   4.439   6.593   8.064 -0.2976 -0.5110 -0.7162
   66SAPC  H14Y 5531   4.547   6.490   8.142  0.0678 -2.0887  0.8328
   66SAPC  C315 5532   4.339   6.441   8.184  0.3466 -0.5315  0.2609
   66SAPC  H15X 5533   4.247   6.417   8.128  2.0254 -1.1620 -2.2941
   66SAPC  H15Y 5534   4.314   6.526   8.251 -1.4455 -0.6214 -0.2933
   66SAPC  C316 5535   4.375   6.315   8.265  0.3883 -0.3862  0.5091
   66SAPC  H16X 5536   4.407   6.231   8.200  2.1130  0.7910 -0.1971
   66SAPC  H16Y 5537   4.279   6.278   8.306 -1.0340  2.4914 -0.1102
   66SAPC  C317 5538   4.473   6.320   8.382 -0.4599 -0.1052 -0.0916
   66SAPC  H17X 5539   4.564   6.377   8.355  0.1046 -0.2678  1.3901
   66SAPC  H17Y 5540   4.505   6.219   8.416  0.7635  0.4540  0.4295
   66SAPC  C318 5541   4.412   6.394   8.504  0.0608  0.0403 -0.2574
   66SAPC  H18X 5542   4.494   6.428   8.571 -1.0190  1.1232  0.5461
   66SAPC  H18Y 5543   4.353   6.330   8.573 -0.2883 -1.3259 -1.8121
   66SAPC  H18Z 5544   4.351   6.484   8.479  0.4403  0.4585  0.3034
   67SAPC     N 5545   1.044   0.766   6.317  0.1610  0.1235 -0.3077
   67SAPC   C12 5546   0.923   0.850   6.276  0.4751  0.1589 -0.1895
   67SAPC  H12A 5547   0.892   0.810   6.180  1.0670  0.7273 -0.6236
   67SAPC  H12B 5548   0.958   0.947   6.242  1.8497 -0.0815  0.4864
   67SAPC   C13 5549   1.114   0.822   6.441  0.4079  0.2477 -0.3147
   67SAPC  H13A 5550   1.162   0.918   6.428  1.4294  0.1991  2.7318
   67SAPC  H13B 5551   1.049   0.826   6.528  1.9868  0.3149  0.8875
   67SAPC  H13C 5552   1.196   0.759   6.471  0.2510  0.8633  1.5259
   67SAPC   C14 5553   0.994   0.630   6.339 -0.9335  0.6123 -0.1243
   67SAPC  H14A 5554   0.969   0.583   6.244  2.6246 -0.1052 -0.7872
   67SAPC  H14B 5555   1.076   0.561   6.357 -1.4828 -0.3477 -1.1770
   67SAPC  H14C 5556   0.918   0.609   6.412 -0.0663  0.6848  0.7982
   67SAPC   C15 5557   1.135   0.761   6.205  0.0843 -0.1895 -0.3972
   67SAPC  H15A 5558   1.224   0.709   6.237 -1.3324 -2.4097  0.0254
   67SAPC  H15B 5559   1.104   0.702   6.121 -1.4693  1.0685 -0.7292
   67SAPC  H15C 5560   1.178   0.857   6.178  0.1139 -0.0809  0.0292
   67SAPC   C11 5561   0.806   0.873   6.376  0.6044  0.3248  0.2953
   67SAPC  H11A 5562   0.764   0.783   6.425  0.4556  0.2142 -0.0377
   67SAPC  H11B 5563   0.717   0.901   6.316  0.1847 -0.4740  0.5372
   67SAPC     P 5564   0.872   1.120   6.404 -0.3820 -0.2780  0.2098
   67SAPC   O13 5565   1.014   1.155   6.414  0.0606 -0.3233  0.5414
   67SAPC   O14 5566   0.811   1.140   6.267 -0.4353  0.3451 -0.0152
   67SAPC   O12 5567   0.844   0.975   6.469  0.2215 -0.0493  0.5962
   67SAPC   O11 5568   0.796   1.214   6.507  0.4845 -0.2012  0.0206
   67SAPC    C1 5569   0.650   1.226   6.503  0.3448 -0.3067  0.3477
   67SAPC    HA 5570   0.617   1.331   6.486 -0.3474 -0.4069  1.0604
   67SAPC    HB 5571   0.609   1.166   6.419  1.8949  1.4388 -1.7147
   67SAPC    C2 5572   0.590   1.174   6.634  0.5081  0.6028 -0.1981
   67SAPC    HS 5573   0.481   1.193   6.622  0.2879  1.7561  3.2146
   67SAPC   O21 5574   0.635   1.263   6.735 -0.1352 -0.0328 -0.2816
   67SAPC   C21 5575   0.549   1.273   6.836 -0.4291 -0.0363  1.0385
   67SAPC   O22 5576   0.447   1.204   6.854 -0.1329  0.1595  0.9156
   67SAPC   C22 5577   0.600   1.373   6.934 -0.0203 -0.8736 -0.2180
   67SAPC   H2R 5578   0.711   1.365   6.935 -0.1441 -2.9108  0.6149
   67SAPC   H2S 5579   0.558   1.474   6.915  2.8914  0.9573  2.4861
   67SAPC    C3 5580   0.632   1.028   6.671 -0.1291 -0.1870  0.0146
   67SAPC    HX 5581   0.739   1.022   6.700 -0.0601 -0.6718 -0.3272
   67SAPC    HY 5582   0.629   0.963   6.581  1.8309 -1.1505  0.6276
   67SAPC   O31 5583   0.560   0.966   6.779  0.2721  0.0866 -0.9235
   67SAPC   C31 5584   0.444   0.905   6.750  0.0126  0.4189  0.9468
   67SAPC   O32 5585   0.389   0.911   6.643  0.4708  0.0955 -0.3316
   67SAPC   C32 5586   0.385   0.813   6.858  0.1045 -0.0679  0.4862
   67SAPC   H2X 5587   0.428   0.712   6.844 -1.4880 -0.8083  0.9043
   67SAPC   H2Y 5588   0.277   0.806   6.833 -0.0626  0.7940  0.9462
   67SAPC   C23 5589   0.557   1.333   7.079 -0.2185 -0.5373 -0.0792
   67SAPC   H3R 5590   0.599   1.239   7.122  2.2074 -0.3951 -1.9928
   67SAPC   H3S 5591   0.447   1.317   7.074 -0.3284  0.4372 -0.9329
   67SAPC   C24 5592   0.572   1.447   7.180 -0.4466 -0.5844 -0.0598
   67SAPC   H4R 5593   0.520   1.406   7.269  2.5198 -2.0766  1.0318
   67SAPC   H4S 5594   0.535   1.541   7.133 -0.9049 -1.1751 -0.9025
   67SAPC   C25 5595   0.719   1.470   7.216  0.2648  0.8217  0.2733
   67SAPC   H5R 5596   0.789   1.432   7.140  1.8284 -0.0075  2.0942
   67SAPC   C26 5597   0.762   1.526   7.330  0.3572 -0.5393  0.5800
   67SAPC   H6R 5598   0.870   1.536   7.348  0.6791 -1.7144 -0.6249
   67SAPC   C27 5599   0.677   1.587   7.443  0.0774 -0.8257  0.0709
   67SAPC   H7R 5600   0.598   1.639   7.383 -0.8764 -0.3463  1.7067
   67SAPC   H7S 5601   0.732   1.667   7.496 -0.1205 -1.7888  1.7551
   67SAPC   C28 5602   0.592   1.488   7.524  0.0620 -0.1416  0.1252
   67SAPC   H8R 5603   0.577   1.393   7.471 -2.2562  0.4656 -0.3872
   67SAPC   C29 5604   0.557   1.514   7.653  0.3811  0.4670  0.0560
   67SAPC   H9R 5605   0.504   1.434   7.707 -0.9332  3.9092  4.0966
   67SAPC  C210 5606   0.592   1.634   7.732  0.4989  0.1476  0.1745
   67SAPC  H10R 5607   0.508   1.665   7.797  0.1219  0.0674 -0.2702
   67SAPC  H10S 5608   0.609   1.719   7.661  0.1116  1.5700  1.7479
   67SAPC  C211 5609   0.726   1.611   7.805  0.3597  0.6582 -0.0167
   67SAPC  H11R 5610   0.812   1.599   7.737 -0.4740 -0.3880 -0.8976
   67SAPC  C212 5611   0.749   1.604   7.940  0.5025  0.3352  0.1510
   67SAPC  H12R 5612   0.850   1.581   7.977  0.8101 -0.5697 -1.2085
   67SAPC  C213 5613   0.638   1.621   8.041  0.4649 -0.2778  0.3179
   67SAPC  H13R 5614   0.546   1.566   8.010 -0.8091  1.4025  1.0222
   67SAPC  H13S 5615   0.617   1.730   8.041  2.1950  0.0834 -1.6756
   67SAPC  C214 5616   0.693   1.579   8.181 -0.4299 -0.0855  1.0232
   67SAPC  H14R 5617   0.767   1.498   8.175  1.1220  1.4084 -0.5363
   67SAPC  C215 5618   0.666   1.637   8.301 -0.3591 -0.4082  0.6928
   67SAPC  H15R 5619   0.720   1.587   8.383  1.9780 -0.7756 -1.0117
   67SAPC  C216 5620   0.579   1.753   8.336  0.2853 -0.2120  0.0814
   67SAPC  H16R 5621   0.486   1.719   8.385  0.5524 -0.2645  0.5611
   67SAPC  H16S 5622   0.564   1.818   8.248  2.9701 -2.3301 -2.0577
   67SAPC  C217 5623   0.656   1.838   8.443  0.0203  0.5935  0.8450
   67SAPC  H17R 5624   0.679   1.765   8.524 -1.0142  1.2545  1.7483
   67SAPC  H17S 5625   0.584   1.915   8.479 -0.3362 -0.3486  2.1771
   67SAPC  C218 5626   0.783   1.910   8.401  0.1292  0.5447  0.3223
   67SAPC  H18R 5627   0.769   1.958   8.302  1.9194 -1.5996 -1.0302
   67SAPC  H18S 5628   0.867   1.839   8.388 -0.0904 -0.0981  2.2893
   67SAPC  C219 5629   0.829   2.012   8.503  0.2391  0.0782  0.0411
   67SAPC  H19R 5630   0.849   1.958   8.599 -1.3925 -0.4571  0.1092
   67SAPC  H19S 5631   0.754   2.092   8.519  0.0060 -0.0914 -0.1927
   67SAPC  C220 5632   0.951   2.098   8.460 -0.5328  0.0069 -0.0998
   67SAPC  H20R 5633   1.035   2.024   8.457 -1.1309 -0.7223  0.7949
   67SAPC  H20S 5634   0.972   2.180   8.532  0.0462  0.0135 -0.2729
   67SAPC  H20T 5635   0.935   2.154   8.365 -0.7693 -0.2607 -0.2173
   67SAPC   C33 5636   0.406   0.862   6.996  0.0704 -0.0019  0.2098
   67SAPC   H3X 5637   0.351   0.959   7.002 -1.5874 -0.8633 -0.7089
   67SAPC   H3Y 5638   0.514   0.877   7.018  0.3249 -1.8696  0.2389
   67SAPC   C34 5639   0.353   0.767   7.103  0.3383  0.1413  1.0283
   67SAPC   H4X 5640   0.414   0.674   7.094 -0.0981 -0.1167  0.6828
   67SAPC   H4Y 5641   0.248   0.741   7.077  0.8775 -0.4230 -0.7274
   67SAPC   C35 5642   0.363   0.821   7.239  0.3963 -0.2023 -0.6267
   67SAPC   H5X 5643   0.307   0.914   7.261  0.7400 -0.6705  2.4146
   67SAPC   H5Y 5644   0.471   0.845   7.254  0.9477 -1.2932 -2.6585
   67SAPC   C36 5645   0.316   0.724   7.349 -0.7530 -0.6706  0.5264
   67SAPC   H6X 5646   0.332   0.781   7.443 -0.3262 -0.0832  0.1029
   67SAPC   H6Y 5647   0.383   0.636   7.353 -0.5685 -0.5058  1.1617
   67SAPC   C37 5648   0.173   0.679   7.346 -0.6366  0.3321  0.0239
   67SAPC   H7X 5649   0.172   0.604   7.264  0.4271 -2.3739  2.4011
   67SAPC   H7Y 5650   0.112   0.766   7.318  0.0126  1.1991  1.2461
   67SAPC   C38 5651   0.119   0.612   7.478 -0.6983 -0.1138 -0.7472
   67SAPC   H8X 5652   0.031   0.549   7.450 -0.8776 -2.2976  4.2016
   67SAPC   H8Y 5653   0.097   0.700   7.541  1.3592  0.0250 -0.2018
   67SAPC   C39 5654   0.221   0.531   7.560  0.2800 -0.4211 -0.8816
   67SAPC   H9X 5655   0.311   0.590   7.588 -0.4651 -0.5747  2.0729
   67SAPC   H9Y 5656   0.251   0.449   7.492  0.8851 -1.0368  0.1070
   67SAPC  C310 5657   0.169   0.467   7.691  0.5588 -0.7854  0.2401
   67SAPC  H10X 5658   0.148   0.553   7.757  1.8650 -0.5788  0.4136
   67SAPC  H10Y 5659   0.257   0.417   7.736  1.8055  1.6587  0.6228
   67SAPC  C311 5660   0.054   0.373   7.679  0.3347  0.1382  0.4022
   67SAPC  H11X 5661   0.066   0.293   7.604 -0.0204 -1.4071  1.9659
   67SAPC  H11Y 5662  -0.039   0.422   7.644 -2.1551 -2.1826  3.4382
   67SAPC  C312 5663   0.031   0.305   7.816 -0.2885  0.6568 -0.9847
   67SAPC  H12X 5664  -0.073   0.266   7.823 -0.1674  0.7357  1.5156
   67SAPC  H12Y 5665   0.030   0.381   7.897  0.1608 -0.6827  0.3029
   67SAPC  C313 5666   0.142   0.205   7.868 -0.0586 -0.4840  0.6284
   67SAPC  H13X 5667   0.242   0.253   7.874 -0.4302  0.5483 -1.1634
   67SAPC  H13Y 5668   0.155   0.130   7.787  0.9147  0.1785  0.1662
   67SAPC  C314 5669   0.109   0.158   8.007 -0.3248  0.3218  0.1505
   67SAPC  H14X 5670   0.014   0.101   8.013 -0.1313  0.0932  1.0316
   67SAPC  H14Y 5671   0.101   0.245   8.076  1.7429  1.0944 -0.5255
   67SAPC  C315 5672   0.217   0.058   8.061  0.0224 -0.4217  0.4239
   67SAPC  H15X 5673   0.193   0.048   8.169  0.4805 -1.8722  0.4072
   67SAPC  H15Y 5674   0.319   0.097   8.042 -0.4539 -0.8739 -3.4872
   67SAPC  C316 5675   0.222  -0.089   8.001 -0.2285  0.8226  0.4677
   67SAPC  H16X 5676   0.220  -0.087   7.890 -1.6955  1.7508  0.4920
   67SAPC  H16Y 5677   0.127  -0.140   8.028 -1.2139  1.7551 -1.1097
   67SAPC  C317 5678   0.334  -0.176   8.049 -0.5129  0.2451  0.3860
   67SAPC  H17X 5679   0.362  -0.153   8.154  2.5989  1.2423 -0.5849
   67SAPC  H17Y 5680   0.427  -0.156   7.991  0.0758 -2.0958  0.4937
   67SAPC  C318 5681   0.298  -0.327   8.040 -0.0945 -0.6319  0.3162
   67SAPC  H18X 5682   0.376  -0.401   8.069 -1.1049 -2.2723 -1.0502
   67SAPC  H18Y 5683   0.272  -0.358   7.937  0.7640  0.0936 -0.1362
   67SAPC  H18Z 5684   0.213  -0.345   8.109  0.1129 -3.7021 -0.1678
   68SAPC     N 5685   4.717   0.769   6.094 -0.3751 -0.8501  0.1707
   68SAPC   C12 5686   4.664   0.629   6.119 -0.0956 -0.3008  0.7920
   68SAPC  H12A 5687   4.719   0.554   6.063  0.1389  0.7239 -0.3745
   68SAPC  H12B 5688   4.569   0.627   6.069  0.8653 -0.2011 -1.1135
   68SAPC   C13 5689   4.854   0.772   6.153  0.3059 -0.1036  0.0753
   68SAPC  H13A 5690   4.885   0.875   6.160 -0.4424  0.0450  1.5659
   68SAPC  H13B 5691   4.855   0.733   6.254  0.3860 -1.4897 -0.4448
   68SAPC  H13C 5692   4.930   0.716   6.101  1.2861  0.0908  1.2660
   68SAPC   C14 5693   4.711   0.794   5.943 -0.5139 -0.0644 -0.4090
   68SAPC  H14A 5694   4.727   0.898   5.920  3.6537 -0.6237 -0.5093
   68SAPC  H14B 5695   4.780   0.737   5.882 -0.6693  2.5171 -3.0853
   68SAPC  H14C 5696   4.615   0.779   5.895 -0.9922  0.7761  0.2798
   68SAPC   C15 5697   4.628   0.875   6.161  0.4661  0.0687 -0.8628
   68SAPC  H15A 5698   4.530   0.869   6.116  0.6863 -0.1653 -1.3142
   68SAPC  H15B 5699   4.612   0.845   6.263  1.5948  1.5412 -0.2441
   68SAPC  H15C 5700   4.664   0.977   6.164  3.1653 -0.8031 -1.9536
   68SAPC   C11 5701   4.632   0.576   6.259 -0.7250 -0.2286 -0.0068
   68SAPC  H11A 5702   4.592   0.476   6.233  0.4605 -0.4230 -1.1467
   68SAPC  H11B 5703   4.549   0.626   6.313  0.0878  0.0492  1.0142
   68SAPC     P 5704   4.847   0.434   6.307 -0.5970 -0.3317  0.1798
   68SAPC   O13 5705   4.773   0.324   6.238  0.1999  0.3930  0.0115
   68SAPC   O14 5706   4.963   0.497   6.238  0.1364  0.9051 -0.0643
   68SAPC   O12 5707   4.754   0.557   6.339 -0.2884  0.2070 -0.1746
   68SAPC   O11 5708   4.898   0.378   6.445 -0.7936 -0.1764  0.1306
   68SAPC    C1 5709   5.024   0.414   6.502  0.0878 -0.0539 -0.4796
   68SAPC    HA 5710   5.056   0.515   6.468  3.1824 -1.2560 -1.3062
   68SAPC    HB 5711   5.005   0.418   6.611 -2.5200 -1.0257 -0.8446
   68SAPC    C2 5712   5.140   0.308   6.486 -0.3798  0.0285  0.1949
   68SAPC    HS 5713   5.154   0.291   6.377 -0.2586 -1.7396  0.4718
   68SAPC   O21 5714   5.103   0.183   6.545  0.4942 -0.7128 -0.3579
   68SAPC   C21 5715   5.059   0.084   6.473 -0.3859 -0.0772 -0.0470
   68SAPC   O22 5716   5.030   0.088   6.356 -0.3325 -0.2108 -0.5293
   68SAPC   C22 5717   5.042  -0.048   6.565 -0.0589 -0.0931 -0.6787
   68SAPC   H2R 5718   5.143  -0.094   6.565 -0.3043 -0.6734  1.8801
   68SAPC   H2S 5719   5.020  -0.020   6.670  1.4091  1.7053 -0.8093
   68SAPC    C3 5720   5.279   0.344   6.538  0.4818 -0.1523  0.0739
   68SAPC    HX 5721   5.313   0.443   6.501  0.4646  0.8088  2.5340
   68SAPC    HY 5722   5.353   0.272   6.498  0.0419 -0.1133 -0.8206
   68SAPC   O31 5723   5.285   0.362   6.685  0.1226  0.2967 -0.2151
   68SAPC   C31 5724   5.296   0.246   6.752  0.0432 -0.8551  0.2471
   68SAPC   O32 5725   5.335   0.139   6.715  0.2745 -0.5982  0.1307
   68SAPC   C32 5726   5.252   0.275   6.898 -0.1482 -0.0788  0.3159
   68SAPC   H2X 5727   5.202   0.186   6.943  0.9947 -0.5812  0.5979
   68SAPC   H2Y 5728   5.168   0.347   6.889  1.3246  1.5856 -0.5205
   68SAPC   C23 5729   4.944  -0.152   6.512  0.0675  1.3553 -0.0917
   68SAPC   H3R 5730   4.952  -0.163   6.402  1.6459  2.4939 -0.1037
   68SAPC   H3S 5731   4.840  -0.117   6.522 -0.3360  0.2678 -0.3561
   68SAPC   C24 5732   4.952  -0.291   6.587  0.3961 -0.0360  0.1204
   68SAPC   H4R 5733   5.053  -0.335   6.606  0.5156  0.0199 -0.3778
   68SAPC   H4S 5734   4.901  -0.355   6.512  2.5244  0.5369 -1.8921
   68SAPC   C25 5735   4.879  -0.315   6.714 -0.5048  0.6551  0.0288
   68SAPC   H5R 5736   4.770  -0.323   6.712 -0.5778  1.6249 -0.1159
   68SAPC   C26 5737   4.930  -0.319   6.838 -0.5064  0.1675 -0.3273
   68SAPC   H6R 5738   4.862  -0.341   6.922  0.1522 -1.8734 -0.2927
   68SAPC   C27 5739   5.074  -0.295   6.888  0.0730 -0.3460 -0.6506
   68SAPC   H7R 5740   5.143  -0.298   6.801  1.6702  2.8088  0.4105
   68SAPC   H7S 5741   5.103  -0.388   6.942  2.5484  0.8492  0.1776
   68SAPC   C28 5742   5.095  -0.173   6.975 -0.3371  0.1599  0.1055
   68SAPC   H8R 5743   5.101  -0.078   6.921  0.0926 -0.7568 -1.4830
   68SAPC   C29 5744   5.106  -0.186   7.110  0.3775  0.5552  0.8321
   68SAPC   H9R 5745   5.127  -0.096   7.169 -0.0638 -0.1686  2.1035
   68SAPC  C210 5746   5.097  -0.315   7.195  0.0220  0.0379  0.6603
   68SAPC  H10R 5747   5.177  -0.386   7.163  1.9945  1.3976  2.4253
   68SAPC  H10S 5748   5.000  -0.365   7.181  1.8764 -4.2501  2.2575
   68SAPC  C211 5749   5.117  -0.281   7.342  0.7997 -0.5233  0.1178
   68SAPC  H11R 5750   5.183  -0.195   7.356 -1.7452  1.6540 -0.7581
   68SAPC  C212 5751   5.058  -0.346   7.442 -0.2545  0.4024  0.4671
   68SAPC  H12R 5752   5.085  -0.318   7.545 -0.1645  0.5146  0.4132
   68SAPC  C213 5753   4.977  -0.479   7.427 -0.3490 -0.1583 -0.8578
   68SAPC  H13R 5754   5.043  -0.562   7.459  1.0019  1.4324  0.5415
   68SAPC  H13S 5755   4.931  -0.494   7.327 -2.1876  4.3024 -0.8136
   68SAPC  C214 5756   4.863  -0.466   7.531  0.7085 -0.0110  0.4081
   68SAPC  H14R 5757   4.778  -0.406   7.495 -0.0598 -0.7506  0.9638
   68SAPC  C215 5758   4.847  -0.522   7.650  0.0936 -0.1128  0.0716
   68SAPC  H15R 5759   4.761  -0.504   7.716  2.0727 -0.3510  2.7866
   68SAPC  C216 5760   4.945  -0.616   7.718  1.2258 -0.4262 -0.2961
   68SAPC  H16R 5761   5.017  -0.664   7.648 -0.0302 -0.8477 -1.3210
   68SAPC  H16S 5762   4.887  -0.700   7.762  2.0307  0.1953  2.0226
   68SAPC  C217 5763   5.011  -0.537   7.830 -0.4626 -0.2881 -1.1760
   68SAPC  H17R 5764   5.069  -0.453   7.786 -0.6232 -0.0308 -0.9007
   68SAPC  H17S 5765   5.087  -0.599   7.881 -1.5535 -1.5675 -1.1018
   68SAPC  C218 5766   4.912  -0.479   7.935  0.0147 -0.3152  0.3024
   68SAPC  H18R 5767   4.809  -0.500   7.899  0.2844  0.1772 -0.7739
   68SAPC  H18S 5768   4.926  -0.370   7.950  0.4052 -0.2378 -0.6383
   68SAPC  C219 5769   4.921  -0.538   8.077  0.4998  0.3775  0.4621
   68SAPC  H19R 5770   5.027  -0.548   8.109  0.4301  1.1088  0.9399
   68SAPC  H19S 5771   4.898  -0.647   8.070 -0.1938  0.3792  2.2474
   68SAPC  C220 5772   4.841  -0.476   8.184  0.5904 -0.8914 -0.0258
   68SAPC  H20R 5773   4.733  -0.459   8.165  0.9671  1.1856 -0.4066
   68SAPC  H20S 5774   4.876  -0.373   8.207  2.6885 -1.7809  0.9330
   68SAPC  H20T 5775   4.849  -0.542   8.274  0.8837 -2.0061 -0.8597
   68SAPC   C33 5776   5.363   0.346   6.981 -0.2447  0.0533  0.8901
   68SAPC   H3X 5777   5.392   0.445   6.940 -0.5202 -1.1379 -2.3004
   68SAPC   H3Y 5778   5.452   0.279   6.986  1.6378  2.4167 -0.1425
   68SAPC   C34 5779   5.306   0.362   7.120 -0.5459  0.1654  0.2068
   68SAPC   H4X 5780   5.283   0.259   7.158 -0.5183 -0.8228 -2.3882
   68SAPC   H4Y 5781   5.215   0.425   7.123 -0.3023  0.4813  1.1291
   68SAPC   C35 5782   5.404   0.408   7.228 -0.1696 -0.2063 -0.9004
   68SAPC   H5X 5783   5.456   0.502   7.201  2.3964 -1.7807 -1.6707
   68SAPC   H5Y 5784   5.493   0.341   7.235  0.9018  1.1250 -1.6801
   68SAPC   C36 5785   5.339   0.434   7.364  0.0844 -0.1380 -0.3174
   68SAPC   H6X 5786   5.285   0.340   7.389  1.4064 -0.4451  1.4589
   68SAPC   H6Y 5787   5.267   0.519   7.357 -1.5543 -1.5032 -0.4265
   68SAPC   C37 5788   5.451   0.445   7.468  0.2147 -0.4421 -0.4629
   68SAPC   H7X 5789   5.501   0.543   7.455  1.5918 -1.1390 -0.4182
   68SAPC   H7Y 5790   5.520   0.359   7.458 -0.3581 -1.0417  0.5768
   68SAPC   C38 5791   5.391   0.430   7.606  0.9185 -0.3384 -0.0055
   68SAPC   H8X 5792   5.346   0.328   7.612  0.9985 -0.2926  1.4184
   68SAPC   H8Y 5793   5.300   0.492   7.612  0.5545 -1.0651  2.5397
   68SAPC   C39 5794   5.479   0.456   7.727 -0.2295 -0.3075 -0.0395
   68SAPC   H9X 5795   5.416   0.450   7.819  1.2868  0.1776  1.0410
   68SAPC   H9Y 5796   5.512   0.562   7.718  0.4577 -0.3825  1.3613
   68SAPC  C310 5797   5.604   0.362   7.736  0.7830 -0.5943  0.3976
   68SAPC  H10X 5798   5.655   0.388   7.832 -1.6530 -1.7609  2.0838
   68SAPC  H10Y 5799   5.666   0.376   7.645 -0.0201  2.3088  0.2519
   68SAPC  C311 5800   5.574   0.216   7.758  0.1387 -0.2902 -0.5609
   68SAPC  H11X 5801   5.670   0.160   7.762 -0.9080 -1.9593  1.6979
   68SAPC  H11Y 5802   5.530   0.180   7.662  1.7578 -1.5675 -0.8612
   68SAPC  C312 5803   5.492   0.169   7.877  0.7063 -0.3569  0.7859
   68SAPC  H12X 5804   5.483   0.058   7.880  0.4944 -0.3190  1.8155
   68SAPC  H12Y 5805   5.391   0.216   7.880 -0.2767 -2.4561  2.6419
   68SAPC  C313 5806   5.545   0.206   8.019  0.2554  0.0103  0.3330
   68SAPC  H13X 5807   5.462   0.175   8.086  0.1180 -0.0245  0.1477
   68SAPC  H13Y 5808   5.573   0.312   8.037  0.0431  0.1019  0.1233
   68SAPC  C314 5809   5.680   0.123   8.052  0.2731 -0.2117  0.8122
   68SAPC  H14X 5810   5.765   0.178   8.006  1.2947  0.9259  3.9579
   68SAPC  H14Y 5811   5.662   0.026   8.001  2.9052  0.7693 -2.1627
   68SAPC  C315 5812   5.713   0.105   8.204 -1.0599  0.4726 -0.3138
   68SAPC  H15X 5813   5.721   0.206   8.250  0.1182  0.2174  0.0708
   68SAPC  H15Y 5814   5.808   0.050   8.215 -0.4279  1.4518 -0.7995
   68SAPC  C316 5815   5.596   0.034   8.284  0.2202  0.0419  0.0042
   68SAPC  H16X 5816   5.535  -0.035   8.222 -2.1781 -0.0631  2.3997
   68SAPC  H16Y 5817   5.530   0.118   8.313  0.9320 -0.2292  2.5480
   68SAPC  C317 5818   5.645  -0.044   8.405 -0.0804  0.3580 -0.1255
   68SAPC  H17X 5819   5.568  -0.083   8.475 -1.8331 -0.9834 -2.7305
   68SAPC  H17Y 5820   5.708   0.036   8.449  1.6703 -0.0753 -1.7700
   68SAPC  C318 5821   5.728  -0.171   8.360 -0.3115  0.1512 -0.4129
   68SAPC  H18X 5822   5.752  -0.236   8.446 -0.2903 -0.4697 -0.8836
   68SAPC  H18Y 5823   5.823  -0.138   8.312 -0.3860  0.5482 -0.2901
   68SAPC  H18Z 5824   5.663  -0.215   8.282  0.9616 -0.0502 -1.3879
   69SLPC     N 5825   2.018   4.870  11.090  0.7279 -0.2960 -0.1314
   69SLPC   C13 5826   1.926   4.935  11.191 -0.1597  0.0814  0.1371
   69SLPC  H13A 5827   1.928   5.043  11.189  1.6948  0.0731  0.7389
   69SLPC  H13B 5828   1.825   4.903  11.169 -0.0456 -0.8620  0.9796
   69SLPC  H13C 5829   1.948   4.911  11.294  1.5234  0.8829 -0.0102
   69SLPC   C14 5830   2.001   4.727  11.086  0.1370  0.3984 -0.7064
   69SLPC  H14A 5831   2.000   4.680  11.183 -0.6139  0.0727 -0.8654
   69SLPC  H14B 5832   1.906   4.694  11.047  0.9221 -3.7431  0.6543
   69SLPC  H14C 5833   2.082   4.686  11.026 -0.3723  1.4584 -2.1291
   69SLPC   C15 5834   2.157   4.894  11.155 -0.6147  0.3949 -0.0822
   69SLPC  H15A 5835   2.232   4.865  11.082  0.5375 -1.2280  1.7090
   69SLPC  H15B 5836   2.179   4.998  11.174 -0.9156  0.0779  2.0971
   69SLPC  H15C 5837   2.160   4.845  11.251 -0.6560  3.6188  1.6411
   69SLPC   C12 5838   2.014   4.929  10.951 -0.4128 -0.7178  0.3058
   69SLPC  H12A 5839   2.084   4.877  10.887  0.9359  0.2101  1.0069
   69SLPC  H12B 5840   2.045   5.032  10.946  0.6316 -1.1084 -2.5003
   69SLPC   C11 5841   1.880   4.928  10.880 -0.4504  0.6721 -0.1816
   69SLPC  H11A 5842   1.833   4.828  10.885 -1.6850  1.2606  0.2649
   69SLPC  H11B 5843   1.897   4.948  10.772 -0.1980 -3.0001 -0.8672
   69SLPC     P 5844   1.750   5.166  10.863 -0.0325 -0.1867 -0.1659
   69SLPC   O13 5845   1.611   5.165  10.823  0.1294 -0.1486  0.2882
   69SLPC   O14 5846   1.782   5.266  10.966 -0.2799  0.0073 -0.2369
   69SLPC   O12 5847   1.792   5.026  10.923 -0.0910 -0.3555 -0.4973
   69SLPC   O11 5848   1.843   5.189  10.735 -1.0649  0.3115 -0.5282
   69SLPC    C1 5849   1.787   5.134  10.616  0.6780  0.0708  1.0864
   69SLPC    HA 5850   1.735   5.037  10.631 -2.7982  1.3753 -1.8008
   69SLPC    HB 5851   1.711   5.201  10.571 -0.2318 -1.1282  0.8400
   69SLPC    C2 5852   1.898   5.115  10.515 -0.0888  0.5873 -0.1879
   69SLPC    HS 5853   1.983   5.075  10.574 -0.8435 -0.4131  0.2492
   69SLPC   O21 5854   1.925   5.245  10.446 -0.2863 -0.3398 -0.4478
   69SLPC   C21 5855   2.049   5.272  10.433  0.8699  0.0139 -0.0996
   69SLPC   O22 5856   2.142   5.192  10.444 -0.4421  0.1625 -0.1826
   69SLPC   C22 5857   2.069   5.423  10.387  0.8021 -0.2203 -0.0180
   69SLPC   H2R 5858   2.060   5.489  10.475  2.6240  0.3014 -0.1986
   69SLPC   H2S 5859   2.169   5.442  10.343  0.8021  0.7688  0.4165
   69SLPC    C3 5860   1.857   4.997  10.416 -0.8363 -0.5507 -0.6732
   69SLPC    HX 5861   1.751   5.024  10.398 -1.0476 -0.6661  0.3438
   69SLPC    HY 5862   1.863   4.902  10.474  4.4508 -0.4780 -0.8736
   69SLPC   O31 5863   1.959   4.997  10.308  0.3210 -0.2825  0.2012
   69SLPC   C31 5864   1.920   5.066  10.199  0.5767 -0.0149  0.1414
   69SLPC   O32 5865   1.810   5.112  10.180  0.3699  0.3813  0.4836
   69SLPC   C32 5866   2.035   5.061  10.100 -0.5492 -0.2865 -0.0662
   69SLPC   H2X 5867   2.047   4.955  10.068  3.2515 -0.5266  1.7726
   69SLPC   H2Y 5868   2.129   5.084  10.155 -1.0668 -1.7183  1.4442
   69SLPC   C23 5869   1.958   5.458  10.286  0.1518 -0.4433 -0.3235
   69SLPC   H3R 5870   1.863   5.497  10.329 -1.1154 -4.8184  1.1255
   69SLPC   H3S 5871   1.927   5.377  10.216  1.4290 -1.6718  0.5085
   69SLPC   C24 5872   2.004   5.572  10.195 -0.1507 -0.4195 -0.6856
   69SLPC   H4R 5873   2.094   5.542  10.137  1.4221  2.8394 -0.0266
   69SLPC   H4S 5874   2.036   5.665  10.248  2.1772 -1.7305  0.3090
   69SLPC   C25 5875   1.894   5.607  10.090 -0.2003  0.1331 -0.8706
   69SLPC   H5R 5876   1.905   5.718  10.086 -1.2859  0.3510  1.4838
   69SLPC   H5S 5877   1.791   5.590  10.127 -0.2398  0.5926 -0.7606
   69SLPC   C26 5878   1.908   5.543   9.956  0.3539  0.4319  0.2549
   69SLPC   H6R 5879   1.890   5.437   9.984 -2.1329  0.8493  0.2895
   69SLPC   H6S 5880   2.010   5.537   9.912 -0.0500  0.9782 -0.7673
   69SLPC   C27 5881   1.808   5.583   9.850  0.0600 -0.1837 -0.2201
   69SLPC   H7R 5882   1.819   5.690   9.821 -1.9701 -0.2660 -1.4384
   69SLPC   H7S 5883   1.705   5.570   9.890 -0.5484  1.6078 -1.1774
   69SLPC   C28 5884   1.810   5.489   9.731 -0.7794 -0.3570 -0.6606
   69SLPC   H8R 5885   1.762   5.392   9.756 -0.0762 -0.5113  0.1328
   69SLPC   H8S 5886   1.917   5.469   9.705 -0.4075 -0.1821  0.7007
   69SLPC   C29 5887   1.745   5.545   9.607  0.1336  0.0497 -0.3509
   69SLPC   H9R 5888   1.651   5.600   9.624  0.1401  0.3763 -1.3401
   69SLPC  C210 5889   1.792   5.511   9.486  0.3799  0.0338 -0.0647
   69SLPC  H10R 5890   1.745   5.545   9.393  1.5017 -0.3486 -0.7828
   69SLPC  C211 5891   1.916   5.426   9.454  0.1639 -0.2192  0.1850
   69SLPC  H11R 5892   1.881   5.350   9.380  1.7093 -1.3243  0.5653
   69SLPC  H11S 5893   1.944   5.361   9.540  0.3935  0.9813  1.0193
   69SLPC  C212 5894   2.045   5.482   9.402  0.6001 -0.2706 -0.2171
   69SLPC  H12R 5895   2.099   5.550   9.469 -1.9762  1.6724 -0.0196
   69SLPC  C213 5896   2.104   5.450   9.287  0.1169 -0.4864 -0.4253
   69SLPC  H13R 5897   2.197   5.505   9.267 -1.0052  0.8518 -2.2086
   69SLPC  C214 5898   2.056   5.361   9.173  0.4134 -0.3408  0.0788
   69SLPC  H14R 5899   2.028   5.425   9.087 -0.1049  1.0401  1.2564
   69SLPC  H14S 5900   1.960   5.310   9.196 -0.5854  1.4250 -0.0736
   69SLPC  C215 5901   2.163   5.269   9.119  0.3494  0.8161 -0.3965
   69SLPC  H15R 5902   2.256   5.324   9.092  0.6879  0.5246  0.1738
   69SLPC  H15S 5903   2.116   5.214   9.034  1.0263  0.0083 -0.2635
   69SLPC  C216 5904   2.196   5.154   9.219  0.4140 -0.4506  0.3765
   69SLPC  H16R 5905   2.106   5.094   9.245 -2.3722  2.8316 -1.3769
   69SLPC  H16S 5906   2.253   5.191   9.307 -1.3661  0.0210  1.3484
   69SLPC  C217 5907   2.302   5.055   9.154 -0.4589 -0.3813 -0.1543
   69SLPC  H17R 5908   2.285   5.049   9.044  1.6297 -1.4095 -0.4391
   69SLPC  H17S 5909   2.290   4.955   9.200 -0.5117 -0.5713 -0.5770
   69SLPC  C218 5910   2.454   5.088   9.189 -0.5607 -0.2406  0.1637
   69SLPC  H18R 5911   2.479   5.186   9.143  1.2204 -1.0313 -0.5631
   69SLPC  H18S 5912   2.523   5.023   9.132  1.6129  1.9909  0.1512
   69SLPC  H18T 5913   2.489   5.079   9.294  1.2662 -1.1003 -0.5061
   69SLPC   C33 5914   2.028   5.151   9.977  0.3946  0.0297  0.4202
   69SLPC   H3X 5915   2.115   5.123   9.915 -0.2554  0.3588 -0.6539
   69SLPC   H3Y 5916   2.041   5.253  10.020 -1.6217  0.8046 -0.7276
   69SLPC   C34 5917   1.903   5.145   9.886 -0.9927 -0.3317  0.3105
   69SLPC   H4X 5918   1.924   5.202   9.793  0.8611  1.9070  2.0045
   69SLPC   H4Y 5919   1.815   5.185   9.940 -0.6051  1.5488 -0.3915
   69SLPC   C35 5920   1.870   4.999   9.835  0.0717  0.2640  0.1205
   69SLPC   H5X 5921   1.824   4.938   9.917  1.8060 -2.4042 -0.8423
   69SLPC   H5Y 5922   1.954   4.944   9.790 -0.6404 -0.3873 -0.4209
   69SLPC   C36 5923   1.771   5.007   9.723  0.6570 -1.1526 -0.4410
   69SLPC   H6X 5924   1.681   5.071   9.735  1.1123 -0.5995  0.0718
   69SLPC   H6Y 5925   1.731   4.903   9.713 -1.5552 -0.6027  1.9000
   69SLPC   C37 5926   1.835   5.036   9.590 -0.1412  0.4339  0.2751
   69SLPC   H7X 5927   1.922   4.968   9.597 -0.8101 -0.4412  0.1138
   69SLPC   H7Y 5928   1.865   5.143   9.586 -1.3053  0.7077 -1.4758
   69SLPC   C38 5929   1.753   4.987   9.470  0.2000  0.6927  0.9683
   69SLPC   H8X 5930   1.652   5.033   9.463 -0.4862 -0.7618  1.1819
   69SLPC   H8Y 5931   1.743   4.877   9.476 -2.7090  0.9502  1.3194
   69SLPC   C39 5932   1.827   5.003   9.333  0.0215 -0.4717  0.1237
   69SLPC   H9X 5933   1.929   4.959   9.338  0.1342 -0.2680 -0.4332
   69SLPC   H9Y 5934   1.848   5.112   9.327  0.4430 -0.5514  0.0941
   69SLPC  C310 5935   1.753   4.947   9.215 -0.7322  0.9073 -0.9597
   69SLPC  H10X 5936   1.671   5.020   9.202 -0.8607  0.6868 -1.3847
   69SLPC  H10Y 5937   1.702   4.850   9.235 -0.8899  1.2575  0.3560
   69SLPC  C311 5938   1.833   4.946   9.092 -0.4052 -0.5210  0.1611
   69SLPC  H11X 5939   1.938   4.915   9.111 -0.4769 -1.0899 -0.3489
   69SLPC  H11Y 5940   1.846   5.047   9.046 -1.8332  0.1122  1.1280
   69SLPC  C312 5941   1.773   4.851   8.989 -0.0557  0.1737 -0.3885
   69SLPC  H12X 5942   1.664   4.874   8.986 -0.0994  0.1120  0.7759
   69SLPC  H12Y 5943   1.787   4.754   9.040 -1.0768  1.2518  2.0177
   69SLPC  C313 5944   1.842   4.852   8.852 -0.3312 -0.0435 -0.2817
   69SLPC  H13X 5945   1.918   4.932   8.843  1.3961 -1.5618  0.3846
   69SLPC  H13Y 5946   1.762   4.884   8.782  0.2254  0.5363 -0.6540
   69SLPC  C314 5947   1.904   4.724   8.814  0.8175  0.1078 -0.5853
   69SLPC  H14X 5948   1.991   4.695   8.876  1.0998 -0.0114 -1.0430
   69SLPC  H14Y 5949   1.951   4.745   8.716  2.9026  1.1191  0.5971
   69SLPC  C315 5950   1.798   4.616   8.807  0.2959  1.0526 -0.0531
   69SLPC  H15X 5951   1.694   4.648   8.828  0.3187 -0.3376  2.3815
   69SLPC  H15Y 5952   1.812   4.546   8.892 -1.1790 -0.0051 -0.6457
   69SLPC  C316 5953   1.793   4.547   8.673 -0.1003  0.3184  0.5284
   69SLPC  H16X 5954   1.756   4.612   8.591  2.6258 -0.0304 -1.0436
   69SLPC  H16Y 5955   1.721   4.463   8.676  0.5984 -0.3261 -0.4744
   69SLPC  C317 5956   1.929   4.488   8.620 -0.1515  0.0702  0.1349
   69SLPC  H17X 5957   1.994   4.450   8.702  0.8007 -2.0538 -1.5609
   69SLPC  H17Y 5958   1.983   4.567   8.564 -2.0437  1.9529  0.9314
   69SLPC  C318 5959   1.924   4.375   8.516  0.2317  0.5649 -0.2428
   69SLPC  H18X 5960   2.024   4.342   8.483  0.5284  0.5073  0.7016
   69SLPC  H18Y 5961   1.880   4.413   8.421  2.2148  0.2426 -1.3239
   69SLPC  H18Z 5962   1.871   4.287   8.558  0.5052  0.8473  0.7094
   70SLPC     N 5963   2.938   2.991  11.362 -0.2393  0.2869  0.3463
   70SLPC   C13 5964   2.878   3.119  11.406 -0.1986 -0.5975 -0.5853
   70SLPC  H13A 5965   2.805   3.094  11.481  0.7602 -0.7661  0.3068
   70SLPC  H13B 5966   2.947   3.192  11.447 -0.5014  1.2041 -3.1569
   70SLPC  H13C 5967   2.828   3.170  11.325  0.0384 -0.1533 -0.4543
   70SLPC   C14 5968   2.827   2.904  11.306 -0.2399  0.8984  0.0195
   70SLPC  H14A 5969   2.864   2.805  11.284  0.1695  1.2968 -1.0929
   70SLPC  H14B 5970   2.750   2.892  11.381  0.7982  0.5481  1.0545
   70SLPC  H14C 5971   2.780   2.932  11.213 -1.1464 -0.0971  0.1644
   70SLPC   C15 5972   2.998   2.917  11.475 -0.9725  0.0891 -0.4199
   70SLPC  H15A 5973   3.049   2.829  11.437 -1.0625 -0.3511  0.4521
   70SLPC  H15B 5974   3.081   2.963  11.527 -1.9997  0.2765  1.0545
   70SLPC  H15C 5975   2.923   2.890  11.547 -0.6218 -0.7293 -0.3473
   70SLPC   C12 5976   3.034   3.028  11.259  0.1041 -0.2861  1.0399
   70SLPC  H12A 5977   3.110   2.951  11.254 -1.2408 -1.6629  1.3899
   70SLPC  H12B 5978   3.084   3.118  11.294 -0.9966  0.9498 -0.5221
   70SLPC   C11 5979   2.977   3.060  11.119  0.0979  0.2837  0.0144
   70SLPC  H11A 5980   3.058   3.109  11.061  0.0747 -1.3585 -1.4566
   70SLPC  H11B 5981   2.887   3.124  11.132  0.5290  0.5360  1.7927
   70SLPC     P 5982   3.036   2.828  11.001  0.2605 -0.1453  0.1452
   70SLPC   O13 5983   3.171   2.885  10.994 -0.3449 -0.1302  0.2094
   70SLPC   O14 5984   3.019   2.704  11.081  0.1470 -0.4265  0.2048
   70SLPC   O12 5985   2.932   2.944  11.047  0.4907 -0.3806  0.4207
   70SLPC   O11 5986   3.002   2.786  10.852  0.4511 -0.5124  0.1240
   70SLPC    C1 5987   2.874   2.750  10.799 -0.3318 -0.6685 -0.9868
   70SLPC    HA 5988   2.814   2.713  10.885 -2.7302  3.3642 -0.8051
   70SLPC    HB 5989   2.827   2.842  10.758 -4.5639 -2.0113  0.6338
   70SLPC    C2 5990   2.881   2.645  10.691 -0.0664 -0.5649 -0.5431
   70SLPC    HS 5991   2.925   2.550  10.727  0.4140 -0.0602  0.2144
   70SLPC   O21 5992   2.961   2.717  10.593 -0.1308  0.2613  0.2598
   70SLPC   C21 5993   3.007   2.641  10.495 -0.0973 -0.1418  0.7437
   70SLPC   O22 5994   2.998   2.521  10.496 -0.0524  0.1137  0.2447
   70SLPC   C22 5995   3.096   2.726  10.403  0.2004  0.4246 -0.4049
   70SLPC   H2R 5996   3.176   2.770  10.466 -0.8191 -0.4207  1.5369
   70SLPC   H2S 5997   3.139   2.653  10.331 -1.5401 -0.4185 -0.6126
   70SLPC    C3 5998   2.745   2.599  10.630  0.3834 -0.8712  0.0174
   70SLPC    HX 5999   2.706   2.533  10.711 -0.6177 -1.4079 -0.8966
   70SLPC    HY 6000   2.753   2.537  10.539  0.4290 -3.0041  1.4399
   70SLPC   O31 6001   2.648   2.707  10.614  0.5489 -0.0662  0.9922
   70SLPC   C31 6002   2.650   2.758  10.494  0.8858  0.1065 -0.0691
   70SLPC   O32 6003   2.699   2.706  10.395 -0.1638 -0.2936  0.3220
   70SLPC   C32 6004   2.571   2.898  10.499 -0.5141  0.2862 -0.3619
   70SLPC   H2X 6005   2.648   2.969  10.536  1.1049 -0.8158 -1.5349
   70SLPC   H2Y 6006   2.484   2.874  10.564 -0.8383  2.3076 -0.0229
   70SLPC   C23 6007   3.018   2.830  10.326  0.0224 -0.3052 -0.6858
   70SLPC   H3R 6008   3.094   2.908  10.304  1.5439 -0.9996  1.8503
   70SLPC   H3S 6009   2.940   2.868  10.396  0.3260  1.0107 -1.0359
   70SLPC   C24 6010   2.969   2.784  10.199  0.2716 -0.6991 -0.5885
   70SLPC   H4R 6011   2.921   2.685  10.210 -1.4157  0.3297  1.7374
   70SLPC   H4S 6012   3.056   2.766  10.132  1.8170  0.1921  1.1326
   70SLPC   C25 6013   2.872   2.881  10.131  0.3815  0.1160  0.2540
   70SLPC   H5R 6014   2.925   2.977  10.146 -0.8219  0.3143  3.8522
   70SLPC   H5S 6015   2.778   2.872  10.191 -1.6482  0.4569 -2.7721
   70SLPC   C26 6016   2.842   2.864   9.984  0.6722 -0.4844  0.6293
   70SLPC   H6R 6017   2.800   2.762   9.974 -1.7542  0.4596  0.8392
   70SLPC   H6S 6018   2.942   2.863   9.934  0.2033 -2.6567 -0.3222
   70SLPC   C27 6019   2.763   2.972   9.912 -0.0933  0.0971 -0.1440
   70SLPC   H7R 6020   2.811   3.071   9.929  0.5219 -0.4865  1.6479
   70SLPC   H7S 6021   2.663   2.977   9.960 -0.6211 -0.1951 -1.2125
   70SLPC   C28 6022   2.741   2.941   9.763 -0.1436  0.5036  0.7477
   70SLPC   H8R 6023   2.690   2.844   9.745  0.7001  0.1904  0.0255
   70SLPC   H8S 6024   2.838   2.948   9.710 -0.2501 -0.0471  0.4806
   70SLPC   C29 6025   2.646   3.034   9.694 -0.6181  0.0173 -0.8281
   70SLPC   H9R 6026   2.619   3.121   9.756 -1.9988 -1.7057  1.0822
   70SLPC  C210 6027   2.576   3.018   9.579 -0.5667  0.4041  0.2921
   70SLPC  H10R 6028   2.518   3.104   9.545  0.6423  0.4355 -1.7169
   70SLPC  C211 6029   2.585   2.891   9.497 -0.5501 -0.1176 -0.2882
   70SLPC  H11R 6030   2.573   2.805   9.566  1.8672  0.3555  0.7521
   70SLPC  H11S 6031   2.688   2.894   9.456  0.0940  3.7006  1.3824
   70SLPC  C212 6032   2.489   2.877   9.379 -0.2967  0.2889  0.0591
   70SLPC  H12R 6033   2.420   2.962   9.368  0.6158  0.9171 -0.8490
   70SLPC  C213 6034   2.487   2.770   9.305  0.2495 -0.4352  0.2188
   70SLPC  H13R 6035   2.412   2.751   9.228  1.0068 -0.1448 -0.6004
   70SLPC  C214 6036   2.573   2.649   9.330  0.1288  0.0863 -0.5095
   70SLPC  H14R 6037   2.583   2.621   9.437 -1.5868 -2.1049 -0.8753
   70SLPC  H14S 6038   2.668   2.659   9.274  1.0220 -2.9608  0.4075
   70SLPC  C215 6039   2.501   2.524   9.266  0.1419 -0.1267 -0.1268
   70SLPC  H15R 6040   2.393   2.514   9.292 -0.0838 -0.4061 -1.1207
   70SLPC  H15S 6041   2.555   2.436   9.308 -1.2262 -0.3093  1.2799
   70SLPC  C216 6042   2.505   2.533   9.111 -0.4197  0.3233  0.3771
   70SLPC  H16R 6043   2.607   2.563   9.078 -0.9047  1.6319  0.0319
   70SLPC  H16S 6044   2.448   2.619   9.072  0.2478  1.6537  2.2638
   70SLPC  C217 6045   2.458   2.404   9.032  0.2912  0.0567  0.2400
   70SLPC  H17R 6046   2.462   2.431   8.924 -1.2061  1.1193  0.4246
   70SLPC  H17S 6047   2.351   2.386   9.056  0.3058  1.3101  1.3331
   70SLPC  C218 6048   2.554   2.285   9.048  0.3361  0.0782  0.0154
   70SLPC  H18R 6049   2.660   2.313   9.028 -0.0888  0.3581 -1.9832
   70SLPC  H18S 6050   2.522   2.207   8.975 -0.7111  0.0892  0.4500
   70SLPC  H18T 6051   2.541   2.243   9.150  1.2058 -1.7821 -0.6204
   70SLPC   C33 6052   2.503   2.935  10.367 -0.6574 -0.0701  0.6202
   70SLPC   H3X 6053   2.563   2.928  10.274 -2.0009  2.6380 -0.5229
   70SLPC   H3Y 6054   2.459   3.037  10.372  0.3708  0.6232 -2.7717
   70SLPC   C34 6055   2.379   2.849  10.337 -0.5928 -0.3653 -1.1550
   70SLPC   H4X 6056   2.317   2.870  10.427  0.9319 -4.1337  0.8880
   70SLPC   H4Y 6057   2.400   2.740  10.335 -1.0416 -0.4987  0.4931
   70SLPC   C35 6058   2.307   2.893  10.219  0.4468 -0.0119  0.0798
   70SLPC   H5X 6059   2.257   2.993  10.225 -0.4804 -0.5361  1.2024
   70SLPC   H5Y 6060   2.224   2.822  10.199 -1.5190  2.1563  0.2340
   70SLPC   C36 6061   2.382   2.870  10.085 -0.3026 -0.3155  0.1848
   70SLPC   H6X 6062   2.460   2.792  10.098 -1.0507 -0.6888  2.9088
   70SLPC   H6Y 6063   2.433   2.965  10.060 -2.0840  0.4842 -0.4386
   70SLPC   C37 6064   2.292   2.834   9.967 -0.0272  1.0444  0.1254
   70SLPC   H7X 6065   2.214   2.912   9.954  0.6690  2.1455  2.2991
   70SLPC   H7Y 6066   2.240   2.738   9.986 -1.5826  1.9053  0.3149
   70SLPC   C38 6067   2.371   2.808   9.842 -0.0566  0.5051 -0.1715
   70SLPC   H8X 6068   2.432   2.717   9.854  0.6618  0.7523 -1.8135
   70SLPC   H8Y 6069   2.445   2.891   9.839  0.9647 -0.4690 -3.3343
   70SLPC   C39 6070   2.298   2.792   9.706  0.0124 -0.3453 -0.6990
   70SLPC   H9X 6071   2.371   2.758   9.629 -0.0269  1.2230 -1.4727
   70SLPC   H9Y 6072   2.247   2.887   9.677 -1.5768 -1.6530 -2.2975
   70SLPC  C310 6073   2.181   2.693   9.717 -0.1239 -0.2721  0.1912
   70SLPC  H10X 6074   2.123   2.705   9.811 -1.9520  0.4178 -1.0090
   70SLPC  H10Y 6075   2.240   2.599   9.713 -0.5168 -0.7293  3.6289
   70SLPC  C311 6076   2.096   2.706   9.595 -0.3876 -0.5130 -0.2015
   70SLPC  H11X 6077   2.060   2.811   9.584 -0.4826 -0.3129  1.9056
   70SLPC  H11Y 6078   2.004   2.644   9.610 -0.2873 -0.1923  1.9136
   70SLPC  C312 6079   2.159   2.676   9.462 -0.1359 -0.1697  0.2122
   70SLPC  H12X 6080   2.212   2.579   9.476 -1.5987 -0.9395  0.4459
   70SLPC  H12Y 6081   2.240   2.749   9.437 -2.6044  1.5148 -3.3168
   70SLPC  C313 6082   2.052   2.658   9.350 -0.4053 -0.6499 -0.1830
   70SLPC  H13X 6083   1.988   2.749   9.351  0.6818  0.1633 -1.9109
   70SLPC  H13Y 6084   1.975   2.587   9.388 -2.4144 -0.2108 -3.1921
   70SLPC  C314 6085   2.117   2.609   9.222 -0.1783  0.1499 -0.5402
   70SLPC  H14X 6086   2.161   2.513   9.256 -0.1729  1.5424  3.5508
   70SLPC  H14Y 6087   2.204   2.675   9.199 -0.4189  0.2376 -1.2283
   70SLPC  C315 6088   2.030   2.588   9.100 -0.8791 -0.1462  0.1022
   70SLPC  H15X 6089   2.002   2.692   9.072  2.6062  0.4501 -1.3561
   70SLPC  H15Y 6090   1.941   2.532   9.134 -1.4849  0.6064 -0.2198
   70SLPC  C316 6091   2.098   2.540   8.971  0.4976  0.2797  0.4640
   70SLPC  H16X 6092   2.124   2.435   8.993  1.3198  0.3535 -0.1129
   70SLPC  H16Y 6093   2.192   2.600   8.969  0.5862  0.1849  1.4762
   70SLPC  C317 6094   2.019   2.561   8.842  0.0417  0.6022  0.4011
   70SLPC  H17X 6095   2.090   2.537   8.759  0.4861  0.2090  0.8928
   70SLPC  H17Y 6096   1.979   2.664   8.832 -2.2754 -0.1087  2.1477
   70SLPC  C318 6097   1.912   2.464   8.826  0.2698  0.3032  0.8214
   70SLPC  H18X 6098   1.838   2.488   8.747  0.8733 -0.1234  0.1206
   70SLPC  H18Y 6099   1.848   2.462   8.917 -0.1807 -0.0377  0.4949
   70SLPC  H18Z 6100   1.941   2.358   8.809 -0.6822  0.9784 -6.2455
   71SLPC     N 6101   2.426   1.633  10.938  0.5856 -0.0255  0.2558
   71SLPC   C13 6102   2.354   1.641  11.070  0.0385  0.2278 -0.2338
   71SLPC  H13A 6103   2.257   1.688  11.056  0.4272 -0.1971 -4.9811
   71SLPC  H13B 6104   2.342   1.547  11.122  0.6703 -0.3362 -1.1037
   71SLPC  H13C 6105   2.411   1.704  11.137 -1.8182 -0.1176  1.7529
   71SLPC   C14 6106   2.572   1.596  10.973 -0.1532 -0.4088  0.0463
   71SLPC  H14A 6107   2.628   1.613  10.883  2.3899  2.5558  2.0606
   71SLPC  H14B 6108   2.623   1.659  11.045  2.0805 -2.5233  0.3875
   71SLPC  H14C 6109   2.582   1.496  11.012  0.0195 -1.7761 -3.3673
   71SLPC   C15 6110   2.426   1.767  10.870  0.3797 -0.0627  0.5814
   71SLPC  H15A 6111   2.497   1.772  10.789 -0.4731 -2.8592 -0.3950
   71SLPC  H15B 6112   2.326   1.782  10.830  0.1992 -0.2629  0.9557
   71SLPC  H15C 6113   2.454   1.845  10.940  0.4133 -0.6517  1.2273
   71SLPC   C12 6114   2.362   1.534  10.843  0.3274  0.1413  0.1837
   71SLPC  H12A 6115   2.256   1.555  10.844  0.6083  1.6691 -0.8709
   71SLPC  H12B 6116   2.374   1.434  10.884  3.0703 -0.8726 -2.8471
   71SLPC   C11 6117   2.423   1.509  10.697  0.5278  0.3640 -0.5633
   71SLPC  H11A 6118   2.421   1.602  10.636 -1.7635  0.3030 -0.6240
   71SLPC  H11B 6119   2.359   1.442  10.635  0.4857  0.7162 -0.9014
   71SLPC     P 6120   2.596   1.312  10.722  0.6699 -0.0239  0.0870
   71SLPC   O13 6121   2.737   1.301  10.771  0.1393  0.3267 -0.1733
   71SLPC   O14 6122   2.493   1.246  10.792  0.2254 -0.3129  0.2812
   71SLPC   O12 6123   2.560   1.463  10.706 -0.0645  0.2008  0.0105
   71SLPC   O11 6124   2.591   1.248  10.588  0.1073 -0.4665  0.6272
   71SLPC    C1 6125   2.670   1.311  10.482  0.0151 -0.5711  0.6194
   71SLPC    HA 6126   2.750   1.379  10.516 -0.6338  0.6161 -0.1999
   71SLPC    HB 6127   2.717   1.222  10.434 -1.3972 -0.9384 -0.1344
   71SLPC    C2 6128   2.589   1.392  10.376 -0.0510  0.3092  0.0187
   71SLPC    HS 6129   2.529   1.471  10.426 -2.2716 -1.4249  0.1701
   71SLPC   O21 6130   2.518   1.288  10.313  0.1122 -0.7345 -0.1701
   71SLPC   C21 6131   2.392   1.324  10.279  0.4875  0.2925  0.6138
   71SLPC   O22 6132   2.343   1.434  10.303  0.0169 -0.6177 -0.2965
   71SLPC   C22 6133   2.316   1.211  10.221 -0.8641  1.0585 -0.4009
   71SLPC   H2R 6134   2.372   1.115  10.219 -0.7146  1.1448 -4.4340
   71SLPC   H2S 6135   2.221   1.201  10.276  0.2847  1.2815  1.6821
   71SLPC    C3 6136   2.683   1.461  10.273  0.3367 -0.2137  1.4577
   71SLPC    HX 6137   2.763   1.386  10.257  0.8267  0.7214 -0.7550
   71SLPC    HY 6138   2.728   1.556  10.308 -0.4066  0.3041  1.0481
   71SLPC   O31 6139   2.613   1.483  10.140 -0.7892 -0.1765  0.5451
   71SLPC   C31 6140   2.541   1.580  10.114  0.3402  0.2209  0.4843
   71SLPC   O32 6141   2.525   1.683  10.179  0.5397 -0.1596  0.0468
   71SLPC   C32 6142   2.476   1.567   9.977  0.2539  0.0488 -0.2486
   71SLPC   H2X 6143   2.475   1.459   9.951 -0.4912  0.3072 -1.3545
   71SLPC   H2Y 6144   2.536   1.613   9.895  2.4545 -1.0528  0.6802
   71SLPC   C23 6145   2.273   1.240  10.082 -0.4796 -0.6737  0.5528
   71SLPC   H3R 6146   2.359   1.249  10.013 -0.2704 -0.6174  0.8224
   71SLPC   H3S 6147   2.226   1.340  10.069  0.9695 -0.2052 -1.2830
   71SLPC   C24 6148   2.175   1.127  10.033  0.0215  0.5660  0.6905
   71SLPC   H4R 6149   2.074   1.161  10.062 -0.8651  0.0225 -1.6947
   71SLPC   H4S 6150   2.197   1.037  10.094  0.1525  0.5577  0.6313
   71SLPC   C25 6151   2.194   1.094   9.884  0.0429  0.4702  0.0166
   71SLPC   H5R 6152   2.303   1.091   9.864  0.3906 -0.8354  1.9982
   71SLPC   H5S 6153   2.153   1.162   9.806 -1.8128  0.6696  1.1380
   71SLPC   C26 6154   2.142   0.959   9.847  0.2175  0.2833 -0.4895
   71SLPC   H6R 6155   2.035   0.959   9.815  0.1196  1.3428 -0.1960
   71SLPC   H6S 6156   2.165   0.898   9.937 -0.4334 -0.2612 -0.6826
   71SLPC   C27 6157   2.216   0.902   9.726 -0.4573 -0.1070 -1.1151
   71SLPC   H7R 6158   2.312   0.856   9.758 -0.9266 -0.2822  0.0827
   71SLPC   H7S 6159   2.235   0.976   9.646  1.6672 -0.0523 -0.5971
   71SLPC   C28 6160   2.144   0.788   9.657 -0.1640  0.3027 -0.2702
   71SLPC   H8R 6161   2.101   0.727   9.739  0.2366  0.1249 -0.1922
   71SLPC   H8S 6162   2.210   0.719   9.600 -0.7931 -1.9828  1.6852
   71SLPC   C29 6163   2.035   0.857   9.571 -0.1418  0.1916 -0.3580
   71SLPC   H9R 6164   1.938   0.865   9.623 -1.3140 -0.3336 -2.4422
   71SLPC  C210 6165   2.049   0.898   9.441 -0.0686  0.2445 -0.0734
   71SLPC  H10R 6166   1.962   0.947   9.394 -0.1502  0.3632  0.2007
   71SLPC  C211 6167   2.172   0.885   9.348  0.3918  0.1100 -0.0585
   71SLPC  H11R 6168   2.248   0.830   9.408  0.4505  1.4882  1.1855
   71SLPC  H11S 6169   2.227   0.982   9.337 -2.2281  1.4160 -2.1856
   71SLPC  C212 6170   2.132   0.820   9.221 -1.2527 -0.5660 -0.1797
   71SLPC  H12R 6171   2.090   0.718   9.230 -1.7400 -0.3472  0.0447
   71SLPC  C213 6172   2.164   0.869   9.098 -0.2025 -0.2068  0.7275
   71SLPC  H13R 6173   2.127   0.817   9.009  1.2240 -0.8425  0.4880
   71SLPC  C214 6174   2.227   1.000   9.060  0.2844  0.3632  0.1529
   71SLPC  H14R 6175   2.259   1.061   9.147 -1.1943  1.3777  0.0167
   71SLPC  H14S 6176   2.146   1.063   9.018 -1.5148 -2.1550 -0.2873
   71SLPC  C215 6177   2.326   0.969   8.939  0.4607 -0.1309  0.4841
   71SLPC  H15R 6178   2.308   1.054   8.870  0.0430 -0.2644  0.4323
   71SLPC  H15S 6179   2.314   0.871   8.888 -1.0718  0.1065  0.3877
   71SLPC  C216 6180   2.473   0.980   8.983  0.0729  0.2426 -0.1722
   71SLPC  H16R 6181   2.477   0.901   9.061 -0.3913 -0.4432 -0.8344
   71SLPC  H16S 6182   2.480   1.074   9.042  2.1036  0.6009 -0.9387
   71SLPC  C217 6183   2.589   0.970   8.887  0.3424 -0.2642  0.8517
   71SLPC  H17R 6184   2.688   0.975   8.937  0.8953 -2.4276  0.0483
   71SLPC  H17S 6185   2.589   1.055   8.815 -0.3395 -0.3744  0.7244
   71SLPC  C218 6186   2.570   0.836   8.806 -0.1554 -0.8914 -0.1477
   71SLPC  H18R 6187   2.659   0.822   8.740 -0.0051 -0.2827 -0.0789
   71SLPC  H18S 6188   2.482   0.838   8.738  2.3368 -3.1608 -3.5862
   71SLPC  H18T 6189   2.579   0.749   8.874 -0.4861 -1.5022 -0.8761
   71SLPC   C33 6190   2.332   1.629   9.976 -0.5811  0.2153  0.2639
   71SLPC   H3X 6191   2.341   1.740   9.967 -0.0334  0.0852 -0.7840
   71SLPC   H3Y 6192   2.291   1.605  10.077  0.4984  2.0454  1.1769
   71SLPC   C34 6193   2.240   1.575   9.871 -0.0078  0.0136 -0.2449
   71SLPC   H4X 6194   2.137   1.610   9.889  0.4607  0.3088  2.0020
   71SLPC   H4Y 6195   2.231   1.466   9.890  0.0374  0.1815  0.8184
   71SLPC   C35 6196   2.296   1.614   9.734  0.3013  0.2479  0.3009
   71SLPC   H5X 6197   2.390   1.561   9.709 -1.1015 -0.8058 -3.1379
   71SLPC   H5Y 6198   2.310   1.725   9.732 -1.4832  0.4736 -2.0245
   71SLPC   C36 6199   2.195   1.579   9.627 -0.1402  0.0658  1.0108
   71SLPC   H6X 6200   2.219   1.641   9.538 -0.2417 -0.9560  0.2558
   71SLPC   H6Y 6201   2.094   1.606   9.664  0.0953  1.2822  0.7797
   71SLPC   C37 6202   2.190   1.431   9.581 -0.2161  0.0623 -0.3246
   71SLPC   H7X 6203   2.181   1.356   9.663  2.3225 -1.6540 -1.5684
   71SLPC   H7Y 6204   2.285   1.398   9.535 -0.2493 -2.7943  1.5466
   71SLPC   C38 6205   2.081   1.413   9.472 -0.5006  0.0934  0.5680
   71SLPC   H8X 6206   2.092   1.493   9.395  2.4585 -0.5449  0.2695
   71SLPC   H8Y 6207   1.983   1.431   9.521 -0.7923  1.0553 -0.3417
   71SLPC   C39 6208   2.084   1.283   9.401  0.2981 -0.1684 -0.2155
   71SLPC   H9X 6209   2.084   1.205   9.480  1.5004  0.7146  0.6582
   71SLPC   H9Y 6210   2.176   1.263   9.343 -0.0476  1.8664 -1.5246
   71SLPC  C310 6211   1.953   1.254   9.310 -0.6525 -0.3458 -1.7615
   71SLPC  H10X 6212   1.872   1.211   9.373  0.2631  1.0543  0.4363
   71SLPC  H10Y 6213   1.984   1.176   9.238  0.4849  0.2240 -1.8986
   71SLPC  C311 6214   1.901   1.376   9.239  0.7879  0.1159 -0.7980
   71SLPC  H11X 6215   1.975   1.399   9.159 -0.2864  2.9715 -1.0613
   71SLPC  H11Y 6216   1.891   1.465   9.305  0.3761 -1.1083  0.8149
   71SLPC  C312 6217   1.765   1.360   9.160  0.4083  0.1541 -0.2313
   71SLPC  H12X 6218   1.675   1.327   9.216 -0.1873 -0.2887 -1.4434
   71SLPC  H12Y 6219   1.779   1.289   9.077 -0.7228  1.4254 -1.5257
   71SLPC  C313 6220   1.723   1.489   9.083 -0.3569 -0.4069 -0.7774
   71SLPC  H13X 6221   1.817   1.539   9.050 -0.2902 -1.8445 -2.8717
   71SLPC  H13Y 6222   1.665   1.547   9.157  0.4339  0.6967 -1.0038
   71SLPC  C314 6223   1.634   1.468   8.957 -0.0150 -0.2315 -0.5915
   71SLPC  H14X 6224   1.530   1.443   8.986  0.6018 -1.5105  0.5616
   71SLPC  H14Y 6225   1.678   1.389   8.893 -0.8828  0.2064 -1.7390
   71SLPC  C315 6226   1.629   1.604   8.873  0.4127  0.5461  0.3706
   71SLPC  H15X 6227   1.728   1.624   8.826 -0.8640 -1.2654 -3.2095
   71SLPC  H15Y 6228   1.607   1.692   8.937 -0.8992 -0.4241  1.2747
   71SLPC  C316 6229   1.540   1.588   8.755 -0.1677 -0.0664  0.0691
   71SLPC  H16X 6230   1.528   1.692   8.720  0.1471 -0.1156 -0.1928
   71SLPC  H16Y 6231   1.442   1.544   8.785 -0.6261  0.4650 -0.6494
   71SLPC  C317 6232   1.593   1.502   8.640  0.2761  0.3848 -0.1299
   71SLPC  H17X 6233   1.588   1.392   8.659  2.0580  0.7186  2.5900
   71SLPC  H17Y 6234   1.701   1.527   8.633 -0.5699  4.0142 -1.0223
   71SLPC  C318 6235   1.517   1.520   8.512  0.1921  0.3234  0.0282
   71SLPC  H18X 6236   1.529   1.624   8.475 -1.3736  0.3572 -0.3882
   71SLPC  H18Y 6237   1.411   1.513   8.544  0.2420 -0.5821  0.0105
   71SLPC  H18Z 6238   1.549   1.439   8.443 -0.0583 -0.6781  1.0665
   72SLPC     N 6239   3.021   0.226  11.013  0.2455 -0.5280 -0.6293
   72SLPC   C13 6240   2.912   0.263  11.112 -0.5819  0.0289 -0.2087
   72SLPC  H13A 6241   2.814   0.218  11.102 -0.4883 -0.0295 -0.8840
   72SLPC  H13B 6242   2.941   0.230  11.211  0.2839 -1.1099 -0.8330
   72SLPC  H13C 6243   2.912   0.371  11.110  2.2708  0.0613  0.0220
   72SLPC   C14 6244   3.154   0.259  11.067  0.5936  0.3559 -0.4031
   72SLPC  H14A 6245   3.158   0.212  11.164 -0.9193  2.6408  0.8133
   72SLPC  H14B 6246   3.221   0.218  10.992  0.8825  0.0998 -0.0076
   72SLPC  H14C 6247   3.178   0.363  11.084  3.5628 -0.0253 -1.8760
   72SLPC   C15 6248   2.997   0.314  10.890  0.1427  0.3269  0.2767
   72SLPC  H15A 6249   3.072   0.289  10.816  0.8077 -1.6564  1.5855
   72SLPC  H15B 6250   2.900   0.297  10.846 -0.1728  1.5189  0.5020
   72SLPC  H15C 6251   2.999   0.418  10.919 -2.0799  0.5754 -0.3683
   72SLPC   C12 6252   3.019   0.081  10.966 -0.6834  0.3180 -0.1729
   72SLPC  H12A 6253   2.921   0.056  10.930 -1.0094  3.0666 -1.3107
   72SLPC  H12B 6254   3.035   0.022  11.055 -2.1097  1.2497  0.7067
   72SLPC   C11 6255   3.127   0.038  10.863 -1.0396 -0.0977  0.4461
   72SLPC  H11A 6256   3.135   0.117  10.785  1.2629 -0.2993  0.4394
   72SLPC  H11B 6257   3.098  -0.057  10.813 -1.8898 -0.2449  1.2169
   72SLPC     P 6258   3.376  -0.010  10.872 -0.3095 -0.3220  0.2750
   72SLPC   O13 6259   3.445   0.120  10.852 -0.3017 -0.2306  0.8890
   72SLPC   O14 6260   3.448  -0.126  10.931  0.0532  0.0357 -0.6545
   72SLPC   O12 6261   3.243   0.022  10.945  0.1785 -0.0077  0.0708
   72SLPC   O11 6262   3.311  -0.058  10.734 -0.1487 -0.1305  0.3349
   72SLPC    C1 6263   3.329  -0.199  10.696  0.3898 -0.2161 -0.1311
   72SLPC    HA 6264   3.314  -0.266  10.784 -0.5519  2.1623  1.5863
   72SLPC    HB 6265   3.246  -0.223  10.625  1.5706 -0.5126 -1.4235
   72SLPC    C2 6266   3.467  -0.209  10.628 -0.3993 -0.0112 -0.2976
   72SLPC    HS 6267   3.544  -0.198  10.707 -1.3851 -4.0159  1.3599
   72SLPC   O21 6268   3.488  -0.113  10.524 -0.4875 -0.0937  0.6844
   72SLPC   C21 6269   3.614  -0.120  10.477 -0.2117  0.4015 -0.5183
   72SLPC   O22 6270   3.704  -0.173  10.538 -0.0705  0.2100 -0.1985
   72SLPC   C22 6271   3.623  -0.046  10.346 -0.9112 -0.5424 -1.0230
   72SLPC   H2R 6272   3.535   0.020  10.329  0.2028  1.3172  0.2752
   72SLPC   H2S 6273   3.716   0.013  10.340 -1.7567  1.3494  2.9579
   72SLPC    C3 6274   3.482  -0.363  10.596  0.6014  0.8624  0.0842
   72SLPC    HX 6275   3.489  -0.418  10.692 -0.5872 -1.1620 -0.9474
   72SLPC    HY 6276   3.581  -0.383  10.550 -0.1719 -0.0118 -1.2558
   72SLPC   O31 6277   3.366  -0.409  10.530 -0.5557 -0.0132 -0.0313
   72SLPC   C31 6278   3.378  -0.520  10.452  0.8201  1.0195  0.3396
   72SLPC   O32 6279   3.477  -0.587  10.448  0.1292 -0.0869 -0.1872
   72SLPC   C32 6280   3.241  -0.548  10.385 -0.0703  0.9615 -0.1897
   72SLPC   H2X 6281   3.200  -0.453  10.343  0.1406  0.7778 -0.8172
   72SLPC   H2Y 6282   3.167  -0.574  10.464 -1.6721 -1.6933 -2.4701
   72SLPC   C23 6283   3.638  -0.141  10.223  0.3345  1.0073 -0.4463
   72SLPC   H3R 6284   3.708  -0.223  10.248 -1.9208  0.2023  3.5769
   72SLPC   H3S 6285   3.677  -0.071  10.145  0.3510  0.9624 -0.4783
   72SLPC   C24 6286   3.502  -0.181  10.168 -0.3717  0.4315 -0.4587
   72SLPC   H4R 6287   3.444  -0.088  10.155  0.1744  0.7954 -0.3128
   72SLPC   H4S 6288   3.459  -0.250  10.244  2.1107  0.2421  0.8413
   72SLPC   C25 6289   3.509  -0.253  10.035  0.6670  0.1763  0.3191
   72SLPC   H5R 6290   3.521  -0.362  10.057  0.5623  0.0210 -0.3737
   72SLPC   H5S 6291   3.600  -0.235   9.973  0.4159 -3.4105 -1.2412
   72SLPC   C26 6292   3.378  -0.259   9.953 -0.3828  0.3768  0.4866
   72SLPC   H6R 6293   3.362  -0.152   9.929  0.5395  0.4896  0.3583
   72SLPC   H6S 6294   3.293  -0.295  10.015 -0.8509  1.4861  0.5012
   72SLPC   C27 6295   3.402  -0.345   9.826  0.3496  0.7925 -0.6017
   72SLPC   H7R 6296   3.443  -0.445   9.851 -1.5545  0.0797 -0.2201
   72SLPC   H7S 6297   3.482  -0.301   9.763  0.7027  1.6650  0.4441
   72SLPC   C28 6298   3.274  -0.364   9.734 -0.0554 -0.2182 -0.1615
   72SLPC   H8R 6299   3.249  -0.261   9.701  1.5055 -0.0651 -0.9220
   72SLPC   H8S 6300   3.204  -0.417   9.802  1.4149 -0.5539  1.1209
   72SLPC   C29 6301   3.294  -0.443   9.608  0.1552  0.4538 -0.2076
   72SLPC   H9R 6302   3.286  -0.552   9.616 -0.2891  0.4127 -1.1760
   72SLPC  C210 6303   3.296  -0.384   9.487 -0.0049  0.3738 -0.0119
   72SLPC  H10R 6304   3.318  -0.447   9.399 -0.5522  0.2554 -0.0614
   72SLPC  C211 6305   3.284  -0.230   9.449 -0.0633  0.4827  1.0012
   72SLPC  H11R 6306   3.335  -0.189   9.359 -1.4797  1.1563  0.4799
   72SLPC  H11S 6307   3.333  -0.176   9.533 -1.1398  0.0568  1.9283
   72SLPC  C212 6308   3.136  -0.188   9.445 -0.7447 -0.6557 -0.2225
   72SLPC  H12R 6309   3.093  -0.175   9.545  0.3227 -0.2078  0.1946
   72SLPC  C213 6310   3.069  -0.170   9.329 -0.3690  0.7804 -0.3548
   72SLPC  H13R 6311   2.963  -0.145   9.344 -0.5132 -1.2717  2.3669
   72SLPC  C214 6312   3.111  -0.179   9.185  0.5731 -0.5115 -0.5752
   72SLPC  H14R 6313   3.215  -0.145   9.165  0.5497  1.3563  2.2443
   72SLPC  H14S 6314   3.048  -0.103   9.134  0.5241  0.1820  0.4941
   72SLPC  C215 6315   3.071  -0.308   9.105 -0.0907  0.1713  0.7610
   72SLPC  H15R 6316   2.960  -0.316   9.115 -0.3145  1.2991 -0.6487
   72SLPC  H15S 6317   3.115  -0.395   9.157  2.4987  1.0404  0.0972
   72SLPC  C216 6318   3.109  -0.298   8.961 -0.0403 -0.3815 -0.1422
   72SLPC  H16R 6319   3.218  -0.319   8.950 -0.1043  0.5717 -3.2242
   72SLPC  H16S 6320   3.085  -0.196   8.924  1.0706 -0.8042 -2.0861
   72SLPC  C217 6321   3.021  -0.385   8.872 -0.7112  0.6631 -0.1963
   72SLPC  H17R 6322   2.913  -0.389   8.897 -0.0497  0.3876  2.8134
   72SLPC  H17S 6323   3.052  -0.492   8.883 -2.3268  0.0877 -1.1329
   72SLPC  C218 6324   3.026  -0.364   8.721 -0.3441 -0.2510  0.7421
   72SLPC  H18R 6325   3.006  -0.260   8.688  2.0539  0.4055  1.2035
   72SLPC  H18S 6326   2.957  -0.427   8.662  0.1131  0.8806 -1.0382
   72SLPC  H18T 6327   3.128  -0.398   8.691 -0.9711 -1.3259 -0.2261
   72SLPC   C33 6328   3.239  -0.664  10.281 -0.3002 -0.5437 -0.1701
   72SLPC   H3X 6329   3.138  -0.709  10.272  0.5676 -2.8224  0.9367
   72SLPC   H3Y 6330   3.316  -0.742  10.304  0.1422 -0.0013  0.2112
   72SLPC   C34 6331   3.263  -0.620  10.139 -1.4136 -0.8209  0.0616
   72SLPC   H4X 6332   3.362  -0.569  10.144 -0.3614 -2.5653 -2.0963
   72SLPC   H4Y 6333   3.184  -0.546  10.115 -0.5020  0.4703  0.9334
   72SLPC   C35 6334   3.276  -0.740  10.047  0.6164  0.6548  0.1809
   72SLPC   H5X 6335   3.179  -0.794  10.044  1.1688 -0.2788 -0.9506
   72SLPC   H5Y 6336   3.346  -0.818  10.083  1.2115  0.7106 -0.8413
   72SLPC   C36 6337   3.326  -0.700   9.908  0.4623 -0.2236  0.1576
   72SLPC   H6X 6338   3.413  -0.635   9.930 -0.0663  1.4181 -2.4206
   72SLPC   H6Y 6339   3.251  -0.631   9.865 -0.8361 -2.1440 -0.7710
   72SLPC   C37 6340   3.372  -0.825   9.830 -0.5566 -0.2174  0.1634
   72SLPC   H7X 6341   3.448  -0.876   9.893 -2.2404  0.4410  2.8316
   72SLPC   H7Y 6342   3.413  -0.793   9.732 -2.0445  1.8286  0.1694
   72SLPC   C38 6343   3.267  -0.939   9.803  0.3263 -0.1542 -0.1539
   72SLPC   H8X 6344   3.228  -0.959   9.905  1.2982  1.3978  0.5305
   72SLPC   H8Y 6345   3.315  -1.027   9.755  1.2953  0.6991 -0.7800
   72SLPC   C39 6346   3.156  -0.893   9.704 -0.5769 -0.0817 -0.0258
   72SLPC   H9X 6347   3.195  -0.896   9.600 -0.7956  0.3401 -0.1175
   72SLPC   H9Y 6348   3.148  -0.784   9.724 -0.9575 -0.0805 -0.1879
   72SLPC  C310 6349   3.035  -0.993   9.715  0.1769  0.0648 -0.3989
   72SLPC  H10X 6350   3.000  -0.992   9.820  0.0621  0.3216 -0.4374
   72SLPC  H10Y 6351   3.079  -1.095   9.710  1.4463  0.5597  0.6488
   72SLPC  C311 6352   2.919  -0.966   9.629 -0.2468 -0.1746  0.4619
   72SLPC  H11X 6353   2.939  -1.018   9.534 -0.2540 -0.6228  0.7044
   72SLPC  H11Y 6354   2.911  -0.856   9.617  0.2654 -0.0187  1.4690
   72SLPC  C312 6355   2.790  -1.020   9.684  0.0649 -0.0772  0.2363
   72SLPC  H12X 6356   2.818  -1.121   9.722  0.4786 -0.2357 -0.4862
   72SLPC  H12Y 6357   2.713  -1.023   9.604 -0.3039  0.9447  0.5487
   72SLPC  C313 6358   2.735  -0.948   9.814 -0.4162  0.4852  0.3278
   72SLPC  H13X 6359   2.737  -0.839   9.790 -2.0923  0.5282  0.3756
   72SLPC  H13Y 6360   2.805  -0.967   9.898 -1.7161  0.3904  1.3945
   72SLPC  C314 6361   2.598  -1.007   9.857  0.0200 -0.7510  0.7348
   72SLPC  H14X 6362   2.621  -1.114   9.877  1.2271 -0.7569 -0.6481
   72SLPC  H14Y 6363   2.523  -0.991   9.777 -0.3946 -0.2591  1.2100
   72SLPC  C315 6364   2.533  -0.936   9.976 -0.1998 -0.1442  1.0504
   72SLPC  H15X 6365   2.491  -0.837   9.948  2.0539  0.2742 -0.9992
   72SLPC  H15Y 6366   2.610  -0.911  10.052 -2.8059 -0.3715  3.8765
   72SLPC  C316 6367   2.426  -1.028  10.050 -0.1971 -0.0019  0.2230
   72SLPC  H16X 6368   2.473  -1.112  10.106 -0.4798 -0.2837  0.0411
   72SLPC  H16Y 6369   2.374  -1.078   9.966  1.4255  0.3339 -1.0038
   72SLPC  C317 6370   2.338  -0.950  10.154 -0.3257  0.3860  0.1297
   72SLPC  H17X 6371   2.303  -1.030  10.222 -0.8944 -0.0444 -0.6733
   72SLPC  H17Y 6372   2.248  -0.915  10.100 -0.0760  0.8784  0.0284
   72SLPC  C318 6373   2.409  -0.847  10.242  0.0143  0.9399 -0.5197
   72SLPC  H18X 6374   2.500  -0.890  10.287 -1.7041 -0.3949  1.7782
   72SLPC  H18Y 6375   2.333  -0.814  10.315  1.3352 -1.3748  1.9685
   72SLPC  H18Z 6376   2.437  -0.761  10.178 -1.1237  1.3245 -0.5042
   73SLPC     N 6377   3.720   5.065  11.066 -0.3671  0.0081  0.1104
   73SLPC   C13 6378   3.593   5.024  10.992 -0.1546  0.2819  0.0136
   73SLPC  H13A 6379   3.516   4.971  11.047 -0.1560 -1.0202 -1.2111
   73SLPC  H13B 6380   3.548   5.103  10.934  0.4710  1.1957  0.7689
   73SLPC  H13C 6381   3.624   4.949  10.921 -0.2075  1.1493 -0.9376
   73SLPC   C14 6382   3.794   4.936  11.092  0.5786  0.9374 -0.4025
   73SLPC  H14A 6383   3.879   4.958  11.154 -1.4489  1.5029  2.2799
   73SLPC  H14B 6384   3.733   4.858  11.136 -0.4544  0.4294 -2.6651
   73SLPC  H14C 6385   3.827   4.886  11.002  0.0267 -0.2236  0.0271
   73SLPC   C15 6386   3.701   5.134  11.194  0.3577 -0.6547 -0.5290
   73SLPC  H15A 6387   3.792   5.171  11.239 -0.4132  0.8212 -0.1542
   73SLPC  H15B 6388   3.644   5.226  11.203  2.6453  0.6445  1.1829
   73SLPC  H15C 6389   3.652   5.061  11.258 -2.3762  0.1893 -1.5736
   73SLPC   C12 6390   3.806   5.152  10.975 -0.3904 -0.0333  0.4270
   73SLPC  H12A 6391   3.772   5.254  10.965  0.7480  0.2382 -0.8463
   73SLPC  H12B 6392   3.794   5.105  10.878 -1.2862 -0.2272  0.6290
   73SLPC   C11 6393   3.954   5.192  11.014  0.8642  0.5449  0.2404
   73SLPC  H11A 6394   3.957   5.222  11.121  0.3079 -3.8006  1.5396
   73SLPC  H11B 6395   3.996   5.272  10.948 -1.3737  0.3437 -1.4675
   73SLPC     P 6396   4.096   5.028  10.874  0.0877  0.3060  0.0302
   73SLPC   O13 6397   4.189   5.126  10.812 -0.4681 -0.1122  0.0940
   73SLPC   O14 6398   4.158   4.897  10.906 -0.0745  0.4006  0.3729
   73SLPC   O12 6399   4.041   5.081  11.016 -0.0682  0.1507 -0.1329
   73SLPC   O11 6400   3.965   5.010  10.791  0.0700 -0.2297 -0.4545
   73SLPC    C1 6401   3.946   5.072  10.664 -0.3899  0.4462 -0.8051
   73SLPC    HA 6402   3.846   5.122  10.661 -1.5309 -1.6522  0.6786
   73SLPC    HB 6403   4.020   5.154  10.657 -0.0640  0.2690  0.5129
   73SLPC    C2 6404   3.956   4.981  10.539  0.0843 -0.3389  0.0540
   73SLPC    HS 6405   3.890   5.031  10.464  1.0480  1.3725  0.3258
   73SLPC   O21 6406   3.917   4.843  10.563 -0.2208  0.1534  0.0156
   73SLPC   C21 6407   3.791   4.839  10.572 -0.2903 -0.7182  0.5927
   73SLPC   O22 6408   3.713   4.928  10.562 -0.0776 -0.2549 -0.1717
   73SLPC   C22 6409   3.755   4.689  10.612 -0.3663  0.1349 -0.1696
   73SLPC   H2R 6410   3.847   4.628  10.601 -0.7723 -0.9648  2.0984
   73SLPC   H2S 6411   3.746   4.703  10.722 -0.1893  0.6766 -0.2225
   73SLPC    C3 6412   4.103   4.982  10.496 -0.2178  0.2850 -0.6946
   73SLPC    HX 6413   4.170   4.937  10.573 -0.2705 -1.8243 -1.8528
   73SLPC    HY 6414   4.139   5.085  10.474  0.7012 -0.3077 -2.0168
   73SLPC   O31 6415   4.122   4.911  10.371 -0.3891 -0.5607  0.8239
   73SLPC   C31 6416   4.157   4.785  10.386  0.0694 -0.1164  0.6370
   73SLPC   O32 6417   4.186   4.735  10.492 -0.0267 -0.0674  0.2432
   73SLPC   C32 6418   4.144   4.708  10.252  0.2222 -0.3107 -0.1863
   73SLPC   H2X 6419   4.219   4.752  10.182  1.7383 -1.9611  0.3594
   73SLPC   H2Y 6420   4.039   4.728  10.222  0.6512  0.4373 -1.2388
   73SLPC   C23 6421   3.626   4.621  10.555  0.1695 -0.8446  0.1413
   73SLPC   H3R 6422   3.528   4.671  10.569  0.6819  1.1513 -3.0154
   73SLPC   H3S 6423   3.612   4.530  10.618  1.3877 -0.4784  0.9672
   73SLPC   C24 6424   3.638   4.576  10.409  0.1461 -0.1730  0.9576
   73SLPC   H4R 6425   3.564   4.495  10.395  0.4060 -0.3195  0.4320
   73SLPC   H4S 6426   3.745   4.556  10.389  0.3320  2.3630 -0.7883
   73SLPC   C25 6427   3.600   4.694  10.313 -0.0483  0.0015 -0.4261
   73SLPC   H5R 6428   3.654   4.788  10.337 -0.6847  0.5367 -1.0771
   73SLPC   H5S 6429   3.491   4.715  10.319 -1.1169 -4.7615 -1.3677
   73SLPC   C26 6430   3.628   4.659  10.166 -0.2110  0.1409 -0.2144
   73SLPC   H6R 6431   3.733   4.626  10.159 -0.0936  0.1942  1.1809
   73SLPC   H6S 6432   3.626   4.752  10.105  2.1023 -0.7030 -1.6276
   73SLPC   C27 6433   3.539   4.554  10.101  0.7149 -0.1798 -0.0605
   73SLPC   H7R 6434   3.435   4.591  10.113  1.2836  1.9284 -1.3703
   73SLPC   H7S 6435   3.552   4.455  10.150 -1.7054 -0.0839  0.8091
   73SLPC   C28 6436   3.577   4.541   9.948 -0.2286 -0.2662  0.4810
   73SLPC   H8R 6437   3.686   4.520   9.943  0.4466  2.2508  3.1361
   73SLPC   H8S 6438   3.567   4.643   9.905  4.0295 -0.0977 -0.3574
   73SLPC   C29 6439   3.486   4.442   9.875 -0.2360  0.0854  0.0136
   73SLPC   H9R 6440   3.405   4.399   9.935 -0.5561 -0.8285 -1.0522
   73SLPC  C210 6441   3.496   4.392   9.751  1.0253  0.6048  0.4807
   73SLPC  H10R 6442   3.410   4.330   9.723  0.2096  0.8384  2.4253
   73SLPC  C211 6443   3.599   4.430   9.648 -0.7172 -0.3063  0.2065
   73SLPC  H11R 6444   3.654   4.346   9.601  1.5515  1.3519 -0.2169
   73SLPC  H11S 6445   3.682   4.486   9.697 -0.0908 -2.1266  1.2895
   73SLPC  C212 6446   3.532   4.508   9.538  0.0371  0.7187  0.6139
   73SLPC  H12R 6447   3.490   4.605   9.566 -0.7569  0.7883 -0.7805
   73SLPC  C213 6448   3.527   4.470   9.411  0.4673  0.0139  0.2171
   73SLPC  H13R 6449   3.498   4.550   9.341 -0.9728 -0.4617  0.2657
   73SLPC  C214 6450   3.578   4.346   9.341  0.1874 -0.6316  0.1041
   73SLPC  H14R 6451   3.528   4.251   9.367 -0.1038 -0.1602  1.2968
   73SLPC  H14S 6452   3.685   4.328   9.366  1.1066  1.1341 -2.3692
   73SLPC  C215 6453   3.593   4.350   9.187  0.5130  1.1335  0.0448
   73SLPC  H15R 6454   3.496   4.384   9.144  1.2218  2.1715 -0.7572
   73SLPC  H15S 6455   3.608   4.247   9.148 -0.6933  0.9252  0.1016
   73SLPC  C216 6456   3.717   4.433   9.148  0.3553  0.4054  0.1343
   73SLPC  H16R 6457   3.806   4.406   9.209 -1.7142  0.9049  3.4926
   73SLPC  H16S 6458   3.698   4.540   9.171 -1.3348 -0.1516  1.3792
   73SLPC  C217 6459   3.746   4.422   8.994  0.3094 -0.8508 -0.1696
   73SLPC  H17R 6460   3.650   4.433   8.940  0.5476 -1.8781 -0.8165
   73SLPC  H17S 6461   3.785   4.319   8.976 -3.6035 -2.6562  1.2209
   73SLPC  C218 6462   3.838   4.539   8.951 -0.3044 -0.4686 -0.2921
   73SLPC  H18R 6463   3.786   4.636   8.963  1.4446  0.2595  1.9223
   73SLPC  H18S 6464   3.849   4.520   8.842  0.9976 -2.1539  0.1112
   73SLPC  H18T 6465   3.937   4.545   9.001  0.1782 -0.3793 -1.2436
   73SLPC   C33 6466   4.167   4.557  10.261 -0.2505  0.2922  0.5250
   73SLPC   H3X 6467   4.113   4.512  10.347  0.4087 -1.8535 -0.1512
   73SLPC   H3Y 6468   4.274   4.536  10.284  0.2349  0.5366 -1.4544
   73SLPC   C34 6469   4.109   4.475  10.149 -0.5720 -0.4712  0.0226
   73SLPC   H4X 6470   4.001   4.503  10.142 -0.4767  0.4124  1.7623
   73SLPC   H4Y 6471   4.104   4.365  10.168 -2.6797 -0.9909 -3.0905
   73SLPC   C35 6472   4.184   4.490  10.013  0.3952  0.2928  0.3665
   73SLPC   H5X 6473   4.277   4.432  10.029 -0.6075 -1.2499  0.7160
   73SLPC   H5Y 6474   4.207   4.598  10.011  1.6889  0.0234  0.1571
   73SLPC   C36 6475   4.098   4.429   9.902 -0.6240  0.0690 -0.7877
   73SLPC   H6X 6476   3.990   4.453   9.904 -0.4122  0.9929  0.3690
   73SLPC   H6Y 6477   4.111   4.319   9.890  1.9175  0.3351 -0.9253
   73SLPC   C37 6478   4.140   4.487   9.768  0.1954  0.5603  0.9889
   73SLPC   H7X 6479   4.250   4.476   9.766  0.2211  0.9672 -0.4315
   73SLPC   H7Y 6480   4.117   4.596   9.763  1.1091  0.6386 -2.3593
   73SLPC   C38 6481   4.068   4.411   9.652 -0.0071  0.3624 -0.1545
   73SLPC   H8X 6482   3.959   4.422   9.667  0.3365  1.7982  1.5449
   73SLPC   H8Y 6483   4.101   4.306   9.668 -3.2525 -0.7440 -0.4100
   73SLPC   C39 6484   4.106   4.446   9.508 -0.1644 -0.4257 -0.3634
   73SLPC   H9X 6485   4.216   4.437   9.495 -0.4573 -0.8693 -2.6661
   73SLPC   H9Y 6486   4.086   4.554   9.491 -2.5710 -1.1527 -2.4832
   73SLPC  C310 6487   4.030   4.357   9.412  0.0363  0.5901 -0.2445
   73SLPC  H10X 6488   3.922   4.378   9.421  0.0771  0.3867  0.7051
   73SLPC  H10Y 6489   4.047   4.251   9.441 -0.8381  0.8329  1.1879
   73SLPC  C311 6490   4.064   4.384   9.263 -0.2834 -0.6767  0.2679
   73SLPC  H11X 6491   4.023   4.482   9.231 -1.6514 -0.9602  1.1343
   73SLPC  H11Y 6492   4.021   4.316   9.187  0.1375 -0.0469 -0.5456
   73SLPC  C312 6493   4.210   4.390   9.219  1.0849  0.5615 -0.4351
   73SLPC  H12X 6494   4.250   4.287   9.227 -2.6113 -0.9814 -0.8401
   73SLPC  H12Y 6495   4.278   4.453   9.280  1.8823 -0.6357 -0.0758
   73SLPC  C313 6496   4.213   4.426   9.067 -0.3382 -0.0543 -0.9214
   73SLPC  H13X 6497   4.156   4.521   9.059  3.1683  1.9906 -2.5271
   73SLPC  H13Y 6498   4.177   4.341   9.004  0.0207  0.6500 -2.0980
   73SLPC  C314 6499   4.357   4.460   9.024 -0.5767 -1.1238 -0.1743
   73SLPC  H14X 6500   4.424   4.377   9.055  0.2438 -0.8032 -1.0611
   73SLPC  H14Y 6501   4.383   4.547   9.088  2.0642 -1.4346 -0.7468
   73SLPC  C315 6502   4.368   4.472   8.874  0.2784 -0.2719  0.2895
   73SLPC  H15X 6503   4.311   4.561   8.841 -0.8559 -0.7013  1.0990
   73SLPC  H15Y 6504   4.324   4.384   8.823  0.5912  0.3920 -1.1496
   73SLPC  C316 6505   4.505   4.508   8.821 -0.5944 -0.4575 -0.0882
   73SLPC  H16X 6506   4.568   4.430   8.869 -0.4986 -0.5185 -0.3098
   73SLPC  H16Y 6507   4.543   4.607   8.851  1.4076 -0.8308 -1.2886
   73SLPC  C317 6508   4.514   4.508   8.666 -0.5117  1.3593 -0.2705
   73SLPC  H17X 6509   4.447   4.581   8.615 -1.8474 -0.1347 -0.7037
   73SLPC  H17Y 6510   4.470   4.411   8.633 -0.1569  1.6686 -1.6875
   73SLPC  C318 6511   4.658   4.534   8.612  0.5366 -0.8306 -0.5265
   73SLPC  H18X 6512   4.688   4.451   8.543 -0.5166 -0.4873 -1.4236
   73SLPC  H18Y 6513   4.734   4.534   8.693  1.0901 -0.7207 -1.0463
   73SLPC  H18Z 6514   4.664   4.635   8.566  3.6866 -0.2462  1.0445
   74SLPC     N 6515   4.515   0.052  10.975 -0.3506  0.5656 -0.0079
   74SLPC   C13 6516   4.639   0.102  10.889 -0.6539  0.5806  0.2001
   74SLPC  H13A 6517   4.722   0.034  10.896 -1.3383 -0.2968 -0.1901
   74SLPC  H13B 6518   4.621   0.120  10.785  0.9905  0.5135 -0.1108
   74SLPC  H13C 6519   4.684   0.192  10.929  0.1448  0.3185 -0.1100
   74SLPC   C14 6520   4.414   0.158  10.957 -0.1910 -0.2026 -0.1950
   74SLPC  H14A 6521   4.383   0.172  10.854  1.2439 -1.0555 -0.7569
   74SLPC  H14B 6522   4.325   0.148  11.018  0.5287 -3.6018  0.3525
   74SLPC  H14C 6523   4.444   0.258  10.986  0.2721 -0.9011  1.8453
   74SLPC   C15 6524   4.570   0.050  11.117  0.2987 -0.0933 -0.6833
   74SLPC  H15A 6525   4.625   0.135  11.154 -0.9000  0.7218 -0.7703
   74SLPC  H15B 6526   4.493   0.019  11.186  1.6595 -0.3469  0.7520
   74SLPC  H15C 6527   4.632  -0.038  11.121 -0.1215 -0.3404  1.2372
   74SLPC   C12 6528   4.477  -0.083  10.916 -0.2077  0.2781  0.2323
   74SLPC  H12A 6529   4.396  -0.124  10.975 -0.8222  1.2754  0.0850
   74SLPC  H12B 6530   4.559  -0.154  10.916 -0.6353 -0.2108  0.0511
   74SLPC   C11 6531   4.427  -0.086  10.773  0.5548  0.7470 -0.5265
   74SLPC  H11A 6532   4.447  -0.188  10.734  1.2521  0.7361 -0.1320
   74SLPC  H11B 6533   4.475  -0.023  10.695  3.0261 -0.0408  0.3367
   74SLPC     P 6534   4.208  -0.069  10.639  0.0348 -0.0883  0.3456
   74SLPC   O13 6535   4.063  -0.093  10.666 -0.4917 -0.3004 -0.3173
   74SLPC   O14 6536   4.244   0.056  10.564  0.1046 -0.5292  0.3655
   74SLPC   O12 6537   4.286  -0.070  10.778  0.2951  0.1159 -0.2836
   74SLPC   O11 6538   4.256  -0.197  10.557  0.3859 -0.6508  0.5587
   74SLPC    C1 6539   4.188  -0.315  10.570  0.4349  0.3580 -0.2255
   74SLPC    HA 6540   4.268  -0.393  10.576  1.7985  1.7638  0.1443
   74SLPC    HB 6541   4.129  -0.328  10.663  0.7827 -1.4702 -0.2350
   74SLPC    C2 6542   4.108  -0.364  10.443  0.0397 -0.1335 -0.5114
   74SLPC    HS 6543   4.090  -0.473  10.454 -0.9480 -0.0831 -1.5349
   74SLPC   O21 6544   4.189  -0.335  10.327 -0.3632  0.1945 -0.1767
   74SLPC   C21 6545   4.230  -0.441  10.257  0.4071  0.1754 -0.8570
   74SLPC   O22 6546   4.189  -0.555  10.262 -0.1349  0.2399  0.1483
   74SLPC   C22 6547   4.338  -0.383  10.156  0.0979 -0.1267 -0.5529
   74SLPC   H2R 6548   4.302  -0.293  10.102  0.2417  0.0887 -0.2906
   74SLPC   H2S 6549   4.429  -0.365  10.218 -0.7157  0.3986  0.4877
   74SLPC    C3 6550   3.965  -0.313  10.419  0.1353  0.1796  0.3756
   74SLPC    HX 6551   3.977  -0.204  10.399 -0.2131  0.3659  1.1444
   74SLPC    HY 6552   3.908  -0.327  10.514  0.3569  2.8520  0.9564
   74SLPC   O31 6553   3.904  -0.384  10.307 -0.0801 -0.4415 -0.8379
   74SLPC   C31 6554   3.826  -0.495  10.346 -0.7836 -0.2678 -0.4740
   74SLPC   O32 6555   3.814  -0.533  10.461 -0.1658  0.1062 -0.1749
   74SLPC   C32 6556   3.763  -0.564  10.228  0.5974 -0.4064  0.8429
   74SLPC   H2X 6557   3.654  -0.569  10.249  0.5557 -0.3524  0.6469
   74SLPC   H2Y 6558   3.801  -0.668  10.222 -1.3692 -1.0544 -1.0370
   74SLPC   C23 6559   4.367  -0.495  10.053  0.1853 -0.1098  0.6676
   74SLPC   H3R 6560   4.279  -0.553  10.017 -0.3092  2.5184 -2.6206
   74SLPC   H3S 6561   4.410  -0.579  10.111  0.5102 -1.3216 -1.2833
   74SLPC   C24 6562   4.458  -0.440   9.944 -0.7330  0.1358  0.0835
   74SLPC   H4R 6563   4.499  -0.534   9.901  0.8959 -0.5428  3.0306
   74SLPC   H4S 6564   4.542  -0.381   9.987 -0.5885 -0.7503  1.0202
   74SLPC   C25 6565   4.390  -0.347   9.836  0.4534  0.2259 -0.5736
   74SLPC   H5R 6566   4.384  -0.246   9.883  2.2475 -1.3544  3.2045
   74SLPC   H5S 6567   4.292  -0.392   9.810  0.6721  0.9575 -2.7691
   74SLPC   C26 6568   4.487  -0.339   9.715 -0.3096  0.0223 -0.2020
   74SLPC   H6R 6569   4.581  -0.308   9.765 -0.3915 -0.2650  0.1316
   74SLPC   H6S 6570   4.455  -0.251   9.654 -2.8495 -1.8752 -1.7311
   74SLPC   C27 6571   4.501  -0.456   9.623 -0.1788 -0.3404 -0.1550
   74SLPC   H7R 6572   4.403  -0.500   9.594 -0.0270  0.6734 -2.3404
   74SLPC   H7S 6573   4.562  -0.537   9.668  0.2994 -1.0319 -1.9685
   74SLPC   C28 6574   4.582  -0.411   9.499  0.0068 -0.0266 -0.3300
   74SLPC   H8R 6575   4.675  -0.366   9.541 -0.5200  1.6392 -0.9174
   74SLPC   H8S 6576   4.526  -0.338   9.438  0.3644 -1.8092 -2.8432
   74SLPC   C29 6577   4.610  -0.527   9.397 -0.3480  0.0466 -0.0988
   74SLPC   H9R 6578   4.680  -0.604   9.434 -1.4186 -0.7793  0.2470
   74SLPC  C210 6579   4.536  -0.555   9.286  0.0016 -0.4202  0.6164
   74SLPC  H10R 6580   4.555  -0.634   9.212  1.1448  2.6189 -2.4869
   74SLPC  C211 6581   4.431  -0.456   9.232 -0.6934  0.1968 -0.1487
   74SLPC  H11R 6582   4.399  -0.379   9.306  2.2201  1.9936 -0.7113
   74SLPC  H11S 6583   4.340  -0.520   9.231 -0.5233 -0.1454  2.0343
   74SLPC  C212 6584   4.458  -0.389   9.101 -0.2904  0.6179  0.4101
   74SLPC  H12R 6585   4.530  -0.306   9.102  0.5953 -0.1493  1.6159
   74SLPC  C213 6586   4.427  -0.429   8.976 -0.0867 -0.5441  0.3068
   74SLPC  H13R 6587   4.454  -0.374   8.885 -0.6936  0.3067  0.6411
   74SLPC  C214 6588   4.352  -0.556   8.935  0.0146 -0.1462 -0.7189
   74SLPC  H14R 6589   4.350  -0.538   8.825  0.9326  1.5278 -0.4740
   74SLPC  H14S 6590   4.249  -0.564   8.975 -0.2835 -1.3553 -1.6819
   74SLPC  C215 6591   4.418  -0.687   8.977  0.1748  0.3952 -0.1260
   74SLPC  H15R 6592   4.383  -0.718   9.077 -1.2329  1.2922 -0.3231
   74SLPC  H15S 6593   4.528  -0.679   8.984  0.3632 -2.7864  1.3173
   74SLPC  C216 6594   4.397  -0.788   8.861  0.7591 -0.3944  0.1222
   74SLPC  H16R 6595   4.453  -0.881   8.885 -0.1897 -1.8209 -2.9462
   74SLPC  H16S 6596   4.428  -0.742   8.765  0.5784 -1.4517 -0.4511
   74SLPC  C217 6597   4.253  -0.828   8.852 -0.1379  0.4592 -0.1041
   74SLPC  H17R 6598   4.189  -0.739   8.832  0.2726  0.9415  0.6985
   74SLPC  H17S 6599   4.210  -0.885   8.938  0.8663 -1.5033 -0.9025
   74SLPC  C218 6600   4.237  -0.924   8.740 -0.0580  0.2365 -0.0430
   74SLPC  H18R 6601   4.316  -1.002   8.747  0.8148  1.0441 -0.7786
   74SLPC  H18S 6602   4.251  -0.885   8.637  3.6084 -1.0314 -0.0743
   74SLPC  H18T 6603   4.137  -0.973   8.743  0.0749  0.0532  3.5966
   74SLPC   C33 6604   3.784  -0.494  10.097  0.0464  0.8909  0.3987
   74SLPC   H3X 6605   3.892  -0.481  10.071  0.2587  1.6298  1.5963
   74SLPC   H3Y 6606   3.732  -0.396  10.102  0.3555  1.0803 -0.0611
   74SLPC   C34 6607   3.720  -0.565   9.972  0.1858  0.0891 -0.0776
   74SLPC   H4X 6608   3.609  -0.568   9.973  0.1654  0.9766  1.4378
   74SLPC   H4Y 6609   3.745  -0.673   9.978  1.8536  0.3532 -1.7775
   74SLPC   C35 6610   3.765  -0.503   9.843 -0.1712 -0.3989 -0.2599
   74SLPC   H5X 6611   3.875  -0.519   9.839 -0.4754 -2.5669 -0.0180
   74SLPC   H5Y 6612   3.725  -0.399   9.838  2.0730  0.4638 -1.4608
   74SLPC   C36 6613   3.700  -0.573   9.722 -0.1814 -0.8739 -1.1712
   74SLPC   H6X 6614   3.591  -0.585   9.732 -0.0519 -0.5808  0.7562
   74SLPC   H6Y 6615   3.747  -0.669   9.695  1.2359 -0.7409  0.6869
   74SLPC   C37 6616   3.711  -0.499   9.587  0.2861  0.7543  0.1692
   74SLPC   H7X 6617   3.819  -0.505   9.560  0.7099 -1.9336  2.1748
   74SLPC   H7Y 6618   3.683  -0.393   9.605 -0.2415  0.4235  1.3682
   74SLPC   C38 6619   3.629  -0.573   9.481 -0.1399 -0.7293  0.3048
   74SLPC   H8X 6620   3.523  -0.566   9.515 -0.1289  0.2035  0.1863
   74SLPC   H8Y 6621   3.662  -0.678   9.490  2.2035 -0.1021 -0.6368
   74SLPC   C39 6622   3.631  -0.510   9.340 -0.2858 -0.2028 -0.5589
   74SLPC   H9X 6623   3.532  -0.526   9.293 -1.0018 -1.3842  1.3081
   74SLPC   H9Y 6624   3.698  -0.580   9.286  0.8005  0.5599 -0.2447
   74SLPC  C310 6625   3.699  -0.372   9.326  0.2245 -0.0271 -0.0983
   74SLPC  H10X 6626   3.795  -0.380   9.382 -1.6087 -1.7753  2.9445
   74SLPC  H10Y 6627   3.638  -0.303   9.388 -0.7052  0.2759 -1.3369
   74SLPC  C311 6628   3.704  -0.325   9.176 -0.1472  0.2017 -0.5985
   74SLPC  H11X 6629   3.767  -0.401   9.126 -0.6210  0.5522 -1.7423
   74SLPC  H11Y 6630   3.762  -0.232   9.162  1.3955 -0.9396 -1.8868
   74SLPC  C312 6631   3.568  -0.312   9.105 -0.2033  0.3691  0.1147
   74SLPC  H12X 6632   3.504  -0.258   9.179 -0.9840 -1.7807  1.0625
   74SLPC  H12Y 6633   3.529  -0.415   9.096 -2.4912  1.4258 -2.8052
   74SLPC  C313 6634   3.565  -0.240   8.971 -0.2579  0.3690 -0.1008
   74SLPC  H13X 6635   3.631  -0.154   8.998  0.7408 -0.1263 -0.9451
   74SLPC  H13Y 6636   3.465  -0.211   8.934  0.1735  0.1455 -1.4593
   74SLPC  C314 6637   3.616  -0.329   8.855 -1.1949 -0.3549 -0.2102
   74SLPC  H14X 6638   3.585  -0.435   8.873 -2.5230  0.2900  1.3876
   74SLPC  H14Y 6639   3.725  -0.341   8.871 -1.0310 -1.5123 -1.9510
   74SLPC  C315 6640   3.594  -0.276   8.718  0.0086  0.9205 -0.2174
   74SLPC  H15X 6641   3.656  -0.337   8.651 -1.6209 -2.1745  0.9803
   74SLPC  H15Y 6642   3.627  -0.170   8.725  2.3239  0.2397 -0.4763
   74SLPC  C316 6643   3.446  -0.290   8.664  0.3192  0.5482  0.2284
   74SLPC  H16X 6644   3.384  -0.228   8.732  0.9118 -0.4897  1.7728
   74SLPC  H16Y 6645   3.417  -0.397   8.674 -2.0100  1.0361 -1.0058
   74SLPC  C317 6646   3.434  -0.254   8.519  0.5854  0.4201 -0.2355
   74SLPC  H17X 6647   3.507  -0.314   8.461  1.1043  1.2574 -0.4618
   74SLPC  H17Y 6648   3.466  -0.149   8.502  0.9793  0.4053  0.4203
   74SLPC  C318 6649   3.298  -0.286   8.468  0.1377  0.5805 -0.4952
   74SLPC  H18X 6650   3.295  -0.283   8.357  1.2525 -1.3163 -0.6010
   74SLPC  H18Y 6651   3.217  -0.241   8.529  1.0104  0.9395  0.4024
   74SLPC  H18Z 6652   3.268  -0.392   8.487 -1.5934  1.1778  0.1750
   75SLPC     N 6653   2.255   2.764   6.332 -0.6959  0.5046  0.4927
   75SLPC   C13 6654   2.189   2.896   6.359 -0.0858 -0.0661 -0.2284
   75SLPC  H13A 6655   2.081   2.895   6.365 -0.1108 -1.7063 -0.6257
   75SLPC  H13B 6656   2.218   2.942   6.453 -0.9110 -0.6488  0.3169
   75SLPC  H13C 6657   2.215   2.973   6.289  0.5771 -0.3508 -0.2957
   75SLPC   C14 6658   2.178   2.694   6.227 -0.3558  0.6622 -0.0087
   75SLPC  H14A 6659   2.233   2.602   6.216  0.9455  1.3119  0.9002
   75SLPC  H14B 6660   2.077   2.674   6.262 -0.0621 -1.3227 -0.2542
   75SLPC  H14C 6661   2.178   2.748   6.133 -0.2184  0.7242  0.0279
   75SLPC   C15 6662   2.242   2.681   6.454  0.1546  0.1440  0.0978
   75SLPC  H15A 6663   2.137   2.682   6.480  0.4681  1.2214  1.3525
   75SLPC  H15B 6664   2.263   2.577   6.430 -1.9350 -0.1261 -0.6437
   75SLPC  H15C 6665   2.304   2.712   6.537 -0.4674  1.7535 -0.0236
   75SLPC   C12 6666   2.409   2.778   6.302  0.1958 -0.0670 -0.2704
   75SLPC  H12A 6667   2.455   2.827   6.386 -1.0300 -0.9702  0.9513
   75SLPC  H12B 6668   2.411   2.840   6.213 -0.7166  1.1838  0.5682
   75SLPC   C11 6669   2.489   2.644   6.277  0.4501 -0.5382 -0.0205
   75SLPC  H11A 6670   2.583   2.664   6.222 -0.5444 -1.4877 -2.1236
   75SLPC  H11B 6671   2.434   2.590   6.197  0.8850 -0.5315 -0.3257
   75SLPC     P 6672   2.602   2.444   6.389 -0.1535 -0.2961  0.1955
   75SLPC   O13 6673   2.516   2.347   6.319  0.1389  0.7108  0.4090
   75SLPC   O14 6674   2.738   2.473   6.322  0.7260 -0.4182  0.1113
   75SLPC   O12 6675   2.519   2.572   6.402 -0.1899 -0.1030  0.0108
   75SLPC   O11 6676   2.625   2.398   6.534  0.2316 -0.4510 -0.3428
   75SLPC    C1 6677   2.646   2.488   6.647  0.0470  0.1102  0.0831
   75SLPC    HA 6678   2.574   2.573   6.645  0.3064  0.4043  1.9856
   75SLPC    HB 6679   2.606   2.436   6.737  1.7530 -2.3993 -0.5511
   75SLPC    C2 6680   2.799   2.529   6.666 -0.2171  0.5390 -0.1615
   75SLPC    HS 6681   2.833   2.568   6.568  1.4157  0.6155  0.4349
   75SLPC   O21 6682   2.878   2.415   6.711 -0.5589  0.8305  0.0411
   75SLPC   C21 6683   3.011   2.434   6.683  0.6854 -0.4077 -0.6133
   75SLPC   O22 6684   3.060   2.529   6.624  0.0467 -0.6261  0.7786
   75SLPC   C22 6685   3.097   2.321   6.739 -0.3315 -0.4110  0.1872
   75SLPC   H2R 6686   3.106   2.241   6.661  3.3764 -1.0594  1.1805
   75SLPC   H2S 6687   3.193   2.370   6.767 -0.6725 -0.0490  0.7116
   75SLPC    C3 6688   2.815   2.649   6.761 -0.3191 -0.5981  0.4205
   75SLPC    HX 6689   2.764   2.735   6.712  0.1546 -2.2067 -3.0528
   75SLPC    HY 6690   2.924   2.669   6.764 -0.5130  0.2783  2.0561
   75SLPC   O31 6691   2.774   2.614   6.892  0.2374 -0.2485 -0.6712
   75SLPC   C31 6692   2.676   2.678   6.951  0.4677  0.2075 -0.2177
   75SLPC   O32 6693   2.592   2.754   6.900  0.0005 -0.1315 -0.0385
   75SLPC   C32 6694   2.686   2.652   7.102  0.6263 -0.7290 -0.1050
   75SLPC   H2X 6695   2.792   2.629   7.124  0.2243 -1.6924  0.8557
   75SLPC   H2Y 6696   2.628   2.563   7.135 -1.3754  0.0580 -1.4229
   75SLPC   C23 6697   3.044   2.253   6.859  0.2348  0.4341 -0.2744
   75SLPC   H3R 6698   3.090   2.152   6.845  0.5658  0.5476 -0.0062
   75SLPC   H3S 6699   2.938   2.222   6.865  0.0395  1.2138  0.3231
   75SLPC   C24 6700   3.080   2.297   7.000  0.4740  0.1734 -0.8693
   75SLPC   H4R 6701   3.190   2.297   7.014  0.4833 -1.2462 -0.9413
   75SLPC   H4S 6702   3.037   2.212   7.057  2.0573 -0.3119 -0.3916
   75SLPC   C25 6703   3.023   2.431   7.059  0.1087 -0.0609  0.6760
   75SLPC   H5R 6704   2.914   2.431   7.035  0.9189 -1.5736 -3.3914
   75SLPC   H5S 6705   3.064   2.520   7.006 -1.5543  1.5122  1.9592
   75SLPC   C26 6706   3.049   2.457   7.211  0.8234  0.2435 -0.0153
   75SLPC   H6R 6707   2.970   2.405   7.270 -1.4995  3.3558 -0.2904
   75SLPC   H6S 6708   3.021   2.561   7.237 -2.8457 -0.6452 -0.0525
   75SLPC   C27 6709   3.178   2.407   7.266  0.8553 -0.2600 -0.0893
   75SLPC   H7R 6710   3.269   2.452   7.221  1.1893  1.1976  1.9498
   75SLPC   H7S 6711   3.183   2.297   7.257  0.1926 -0.1760 -1.5338
   75SLPC   C28 6712   3.190   2.420   7.426 -0.1188  0.3567  0.1877
   75SLPC   H8R 6713   3.273   2.353   7.456 -1.1282 -1.1401 -0.2997
   75SLPC   H8S 6714   3.096   2.372   7.462  0.2682  0.8461  1.8614
   75SLPC   C29 6715   3.218   2.556   7.476 -0.0264 -0.1023  0.6637
   75SLPC   H9R 6716   3.308   2.608   7.439  0.5098 -0.7526  1.0351
   75SLPC  C210 6717   3.157   2.615   7.579  0.1762 -0.1731 -1.0751
   75SLPC  H10R 6718   3.191   2.716   7.609 -1.7697  0.1606  0.0825
   75SLPC  C211 6719   3.046   2.555   7.662 -0.4141 -0.1841 -0.1392
   75SLPC  H11R 6720   2.994   2.487   7.592 -0.6858  0.1930 -0.3066
   75SLPC  H11S 6721   2.974   2.633   7.696 -2.4151 -0.5185 -3.4278
   75SLPC  C212 6722   3.106   2.472   7.774  0.3592  0.4034  0.3957
   75SLPC  H12R 6723   3.116   2.366   7.745 -3.2707 -0.2915  1.4592
   75SLPC  C213 6724   3.152   2.519   7.892  0.0256  0.7404  0.2966
   75SLPC  H13R 6725   3.173   2.443   7.967 -1.5952 -0.4391 -0.4081
   75SLPC  C214 6726   3.144   2.665   7.942 -0.6356 -0.0411 -0.2762
   75SLPC  H14R 6727   3.051   2.712   7.902 -0.8420  0.1828  0.4658
   75SLPC  H14S 6728   3.225   2.728   7.901 -1.7363  1.9388  0.5246
   75SLPC  C215 6729   3.145   2.671   8.095  0.1230 -0.2329  0.1622
   75SLPC  H15R 6730   3.128   2.778   8.118 -0.6221 -0.9571  3.2839
   75SLPC  H15S 6731   3.244   2.649   8.142  0.2108  1.7728  0.9558
   75SLPC  C216 6732   3.030   2.588   8.162  0.1685 -0.4031  0.2701
   75SLPC  H16R 6733   3.047   2.485   8.125 -0.5230  0.0004 -1.1988
   75SLPC  H16S 6734   2.939   2.628   8.113  0.2675 -1.3366 -0.6755
   75SLPC  C217 6735   3.022   2.578   8.314  0.4119  0.1648  0.0452
   75SLPC  H17R 6736   3.047   2.679   8.354  1.3102  0.2062 -0.5911
   75SLPC  H17S 6737   3.100   2.514   8.359 -0.1985  0.2830  1.2716
   75SLPC  C218 6738   2.888   2.541   8.370  0.1937  0.5138  0.1097
   75SLPC  H18R 6739   2.897   2.545   8.481  0.9872  2.6788 -0.0175
   75SLPC  H18S 6740   2.855   2.440   8.337 -2.9715  0.8804  1.9506
   75SLPC  H18T 6741   2.813   2.609   8.325 -1.0943 -1.8827 -1.4614
   75SLPC   C33 6742   2.638   2.766   7.192 -0.1195 -0.6542  0.1651
   75SLPC   H3X 6743   2.667   2.865   7.151  2.1735 -1.5209 -0.4144
   75SLPC   H3Y 6744   2.529   2.782   7.202  0.2802  1.8377  0.9529
   75SLPC   C34 6745   2.705   2.741   7.325 -0.2542  0.2184  0.2933
   75SLPC   H4X 6746   2.812   2.714   7.308  0.5235  2.1874  1.8095
   75SLPC   H4Y 6747   2.654   2.656   7.375 -0.1062 -1.4450 -2.2789
   75SLPC   C35 6748   2.722   2.866   7.413 -0.2216 -0.0415 -0.4737
   75SLPC   H5X 6749   2.624   2.908   7.445 -0.4953 -1.5081  0.6765
   75SLPC   H5Y 6750   2.759   2.956   7.359 -0.5608 -0.8176 -2.0294
   75SLPC   C36 6751   2.806   2.830   7.536 -0.3705  0.5485 -0.2760
   75SLPC   H6X 6752   2.908   2.801   7.505 -0.4702  0.0755 -0.1630
   75SLPC   H6Y 6753   2.756   2.740   7.580 -1.9933  1.8540  0.6192
   75SLPC   C37 6754   2.823   2.949   7.634 -0.2166  0.1745  0.4186
   75SLPC   H7X 6755   2.725   2.992   7.662 -0.9187 -0.4750 -1.0014
   75SLPC   H7Y 6756   2.873   3.029   7.575 -0.3184 -0.0585  0.0114
   75SLPC   C38 6757   2.918   2.919   7.755  0.7559  0.0139 -0.2821
   75SLPC   H8X 6758   3.026   2.915   7.728  1.5609  0.4302  2.7234
   75SLPC   H8Y 6759   2.888   2.824   7.803 -2.5233  1.6314  0.9920
   75SLPC   C39 6760   2.890   3.027   7.862 -0.6808  0.1405  0.8393
   75SLPC   H9X 6761   2.786   3.052   7.890 -0.3665  0.0288  2.1674
   75SLPC   H9Y 6762   2.922   3.126   7.824 -1.3142  0.4071  0.9874
   75SLPC  C310 6763   2.963   3.003   7.999 -0.4355 -0.0480 -0.3037
   75SLPC  H10X 6764   3.072   3.018   7.986 -0.5131  0.1446 -0.7677
   75SLPC  H10Y 6765   2.939   2.897   8.019 -2.3884 -0.0748 -2.5058
   75SLPC  C311 6766   2.908   3.089   8.108  0.0814 -0.0568 -0.3914
   75SLPC  H11X 6767   2.806   3.048   8.129  0.8110 -0.6324  2.2648
   75SLPC  H11Y 6768   2.900   3.195   8.075 -0.9742 -0.3395 -1.0560
   75SLPC  C312 6769   2.995   3.084   8.234 -0.0613 -0.0881 -0.1721
   75SLPC  H12X 6770   3.097   3.113   8.200 -0.1653 -0.0164 -0.4272
   75SLPC  H12Y 6771   2.986   2.975   8.254 -1.7866  0.0931  0.1017
   75SLPC  C313 6772   2.930   3.155   8.354  0.0153  0.3104  0.6123
   75SLPC  H13X 6773   2.829   3.114   8.375 -0.6731  1.5060 -0.3461
   75SLPC  H13Y 6774   2.904   3.257   8.320 -1.0025  0.0787  0.6921
   75SLPC  C314 6775   3.006   3.146   8.492 -0.6122 -0.0452  0.2638
   75SLPC  H14X 6776   3.112   3.180   8.492 -0.8182  0.6067 -0.3952
   75SLPC  H14Y 6777   3.004   3.038   8.517 -0.0277 -0.5094 -1.6388
   75SLPC  C315 6778   2.920   3.196   8.608 -0.1761 -0.3691 -0.5107
   75SLPC  H15X 6779   2.832   3.128   8.613  1.0983 -1.9620  0.5629
   75SLPC  H15Y 6780   2.888   3.300   8.587  0.7048  0.6857  2.9973
   75SLPC  C316 6781   3.007   3.194   8.732  0.1461 -0.6300  0.1079
   75SLPC  H16X 6782   3.099   3.245   8.697 -0.0855  1.0744  1.8834
   75SLPC  H16Y 6783   3.027   3.087   8.757 -0.6961 -0.5839  1.0063
   75SLPC  C317 6784   2.930   3.269   8.841  0.2174  1.3406 -0.0958
   75SLPC  H17X 6785   2.828   3.225   8.839  0.6365  0.3916 -1.1425
   75SLPC  H17Y 6786   2.933   3.377   8.814 -2.6462  0.7273 -3.2813
   75SLPC  C318 6787   2.995   3.258   8.980 -0.0258  0.3516  0.1830
   75SLPC  H18X 6788   3.012   3.153   9.014  0.7779  0.5701  0.4772
   75SLPC  H18Y 6789   2.940   3.316   9.057 -0.4616 -0.9766  0.8898
   75SLPC  H18Z 6790   3.093   3.309   8.966  1.0386 -1.5098  0.6705
   76SLPC     N 6791   5.490   1.393   6.190  0.4236 -0.8170 -0.1309
   76SLPC   C13 6792   5.488   1.476   6.060 -0.2623  0.0031 -0.5998
   76SLPC  H13A 6793   5.573   1.443   6.002 -0.0676 -1.4814  0.5114
   76SLPC  H13B 6794   5.394   1.450   6.013 -0.4865 -1.8964  0.8145
   76SLPC  H13C 6795   5.501   1.580   6.086  2.1207 -0.3187 -0.4457
   76SLPC   C14 6796   5.393   1.454   6.289 -0.0800  0.3138 -0.2287
   76SLPC  H14A 6797   5.398   1.406   6.385  0.9685 -0.8610 -0.8519
   76SLPC  H14B 6798   5.427   1.556   6.305 -0.5971  0.4839 -0.2064
   76SLPC  H14C 6799   5.292   1.447   6.251  0.0412 -3.0100 -0.0173
   76SLPC   C15 6800   5.628   1.407   6.240 -0.6690 -0.5724  0.1543
   76SLPC  H15A 6801   5.697   1.352   6.178 -0.5487  0.5087 -0.7034
   76SLPC  H15B 6802   5.662   1.509   6.249 -0.9453 -0.4688  0.0297
   76SLPC  H15C 6803   5.651   1.358   6.333  0.3972 -0.6758 -0.1581
   76SLPC   C12 6804   5.459   1.246   6.148  0.6284 -0.5915 -0.5519
   76SLPC  H12A 6805   5.543   1.209   6.091  0.6325 -0.5485 -0.5732
   76SLPC  H12B 6806   5.368   1.249   6.091 -0.0114  2.4009  0.5184
   76SLPC   C11 6807   5.457   1.146   6.267 -0.6373 -0.7214  0.3809
   76SLPC  H11A 6808   5.421   1.046   6.235  1.3818 -1.1269 -0.7051
   76SLPC  H11B 6809   5.397   1.178   6.355  2.0073  0.9339  1.6437
   76SLPC     P 6810   5.695   1.031   6.249 -0.5421  0.4382  0.6545
   76SLPC   O13 6811   5.679   1.017   6.104  0.2221  0.2206  0.3084
   76SLPC   O14 6812   5.823   1.080   6.297  0.1543 -0.1794 -0.1183
   76SLPC   O12 6813   5.589   1.122   6.314 -0.6604 -0.2585  0.2454
   76SLPC   O11 6814   5.672   0.888   6.311 -0.4756 -0.1850  0.3833
   76SLPC    C1 6815   5.552   0.827   6.351 -0.8917 -0.7937 -0.3696
   76SLPC    HA 6816   5.468   0.848   6.282 -1.5671 -2.2127  0.0014
   76SLPC    HB 6817   5.571   0.718   6.357 -0.6459 -0.6758  1.3818
   76SLPC    C2 6818   5.524   0.863   6.493  0.6072  0.4825  0.5501
   76SLPC    HS 6819   5.498   0.971   6.499  1.0194  0.5430  1.3760
   76SLPC   O21 6820   5.638   0.831   6.576  0.7975  0.1137 -0.3056
   76SLPC   C21 6821   5.693   0.930   6.637  0.5174  0.0419 -0.0789
   76SLPC   O22 6822   5.649   1.044   6.644  0.2799 -0.5341  0.0889
   76SLPC   C22 6823   5.819   0.882   6.698  0.3189 -0.4745  0.1537
   76SLPC   H2R 6824   5.780   0.820   6.782  0.2534  0.3983  0.7638
   76SLPC   H2S 6825   5.870   0.820   6.621 -0.0449  0.9691 -1.2812
   76SLPC    C3 6826   5.399   0.788   6.543  0.1927  0.1934  0.4850
   76SLPC    HX 6827   5.403   0.678   6.524 -3.0563 -0.1741  1.6908
   76SLPC    HY 6828   5.315   0.820   6.477  0.3328 -2.3900 -1.0404
   76SLPC   O31 6829   5.358   0.810   6.682 -0.0161 -0.2590  0.3336
   76SLPC   C31 6830   5.252   0.744   6.717 -0.0690  0.0537  0.8072
   76SLPC   O32 6831   5.173   0.683   6.647 -0.3392  0.7928 -0.6126
   76SLPC   C32 6832   5.238   0.777   6.869 -0.5722 -0.3081 -0.1751
   76SLPC   H2X 6833   5.258   0.885   6.887 -1.2367 -0.5310  2.0624
   76SLPC   H2Y 6834   5.309   0.716   6.929  1.0352  0.6188 -1.0722
   76SLPC   C23 6835   5.901   0.996   6.756  0.8242 -0.3378  0.2311
   76SLPC   H3R 6836   5.833   1.062   6.813 -0.1073 -0.6900 -0.4598
   76SLPC   H3S 6837   5.936   1.053   6.667 -1.1409  1.8818  0.8291
   76SLPC   C24 6838   6.010   0.953   6.865  0.2308  1.6985 -0.3165
   76SLPC   H4R 6839   6.067   1.047   6.880 -0.8632  2.0811  1.5918
   76SLPC   H4S 6840   6.081   0.884   6.815  0.2292  1.2810  0.2642
   76SLPC   C25 6841   5.956   0.904   7.002  0.3235  0.0504  0.8602
   76SLPC   H5R 6842   6.037   0.888   7.076 -0.6609  1.7252  2.3663
   76SLPC   H5S 6843   5.903   0.809   6.976  0.8655  0.4397 -1.7095
   76SLPC   C26 6844   5.850   0.991   7.075 -0.1636 -0.1958 -0.5113
   76SLPC   H6R 6845   5.768   0.993   7.001 -0.4880  3.1754 -0.1219
   76SLPC   H6S 6846   5.897   1.090   7.093  0.6146 -0.5108 -0.8086
   76SLPC   C27 6847   5.806   0.929   7.208 -0.7892  0.8257 -0.1295
   76SLPC   H7R 6848   5.893   0.931   7.278 -0.4037 -0.2531 -0.5673
   76SLPC   H7S 6849   5.773   0.824   7.190 -1.9956  0.9996  0.9702
   76SLPC   C28 6850   5.686   0.999   7.262 -0.3630  0.6325 -0.4501
   76SLPC   H8R 6851   5.715   1.096   7.309 -0.9268  0.7275 -0.2869
   76SLPC   H8S 6852   5.625   1.039   7.177  1.6180  1.8719 -1.3282
   76SLPC   C29 6853   5.581   0.917   7.345 -0.5664  0.1426 -0.3731
   76SLPC   H9R 6854   5.497   0.878   7.287 -2.1280 -0.0097  1.9069
   76SLPC  C210 6855   5.572   0.909   7.478  0.3356  0.3681 -0.3759
   76SLPC  H10R 6856   5.482   0.856   7.513 -0.4557  2.3558  0.7091
   76SLPC  C211 6857   5.660   0.979   7.580  0.3273 -0.2453  0.6080
   76SLPC  H11R 6858   5.588   1.005   7.660 -0.4253 -0.5535  0.0412
   76SLPC  H11S 6859   5.693   1.078   7.542  1.0500  0.2729  2.5700
   76SLPC  C212 6860   5.778   0.899   7.619 -0.3322  0.5794  0.4070
   76SLPC  H12R 6861   5.829   0.846   7.537 -0.8932 -0.5393  0.7672
   76SLPC  C213 6862   5.821   0.874   7.743  0.2122 -0.3712  0.6020
   76SLPC  H13R 6863   5.911   0.815   7.765  1.5215  1.6250  0.7024
   76SLPC  C214 6864   5.761   0.927   7.868  0.4326 -0.7071 -0.8913
   76SLPC  H14R 6865   5.650   0.924   7.872  0.4575  0.6902  2.1702
   76SLPC  H14S 6866   5.790   1.034   7.870  2.2063 -1.1934  0.5704
   76SLPC  C215 6867   5.804   0.871   8.004 -0.1113 -1.0116 -0.1744
   76SLPC  H15R 6868   5.764   0.947   8.075 -1.1565  0.2150 -2.0341
   76SLPC  H15S 6869   5.914   0.873   8.020 -0.3992  1.8372  1.8447
   76SLPC  C216 6870   5.739   0.728   8.031 -0.6021 -0.0232  0.9052
   76SLPC  H16R 6871   5.796   0.664   7.960  0.7756  1.5782  0.5005
   76SLPC  H16S 6872   5.634   0.728   7.996 -0.2720  1.3635 -0.1622
   76SLPC  C217 6873   5.757   0.670   8.173 -0.1611 -0.5278 -0.9699
   76SLPC  H17R 6874   5.679   0.717   8.235 -0.3621  2.9284 -3.7124
   76SLPC  H17S 6875   5.861   0.684   8.209 -0.2876 -2.1822  0.0967
   76SLPC  C218 6876   5.741   0.518   8.167 -0.0338  0.3895 -0.3434
   76SLPC  H18R 6877   5.803   0.466   8.090 -1.0049 -0.1818 -0.7502
   76SLPC  H18S 6878   5.637   0.497   8.134 -0.1850  3.5642 -2.0724
   76SLPC  H18T 6879   5.751   0.461   8.262  0.2879 -0.6385 -0.9846
   76SLPC   C33 6880   5.098   0.751   6.912  0.5737 -0.6559  0.4022
   76SLPC   H3X 6881   5.053   0.665   6.858  1.6545  0.4650 -2.3365
   76SLPC   H3Y 6882   5.025   0.833   6.892  1.1547  0.3380  2.2535
   76SLPC   C34 6883   5.095   0.735   7.063 -0.5681  0.4120  0.3584
   76SLPC   H4X 6884   5.175   0.663   7.089 -1.0970 -0.3604 -0.0995
   76SLPC   H4Y 6885   4.994   0.695   7.089  0.9457 -2.3260  2.3114
   76SLPC   C35 6886   5.124   0.861   7.133 -0.0520  0.1524 -0.3396
   76SLPC   H5X 6887   5.056   0.929   7.079 -2.6966 -2.0939  0.0338
   76SLPC   H5Y 6888   5.223   0.911   7.126 -0.2252  0.5874  0.2791
   76SLPC   C36 6889   5.078   0.871   7.276  0.2331  0.1595 -0.7091
   76SLPC   H6X 6890   4.996   0.798   7.294  0.7362  0.0829  1.4597
   76SLPC   H6Y 6891   5.035   0.971   7.299  1.0582  0.9725 -2.5773
   76SLPC   C37 6892   5.194   0.844   7.383 -0.0803  0.2825 -0.4964
   76SLPC   H7X 6893   5.278   0.915   7.366 -0.0617 -0.2424 -2.7584
   76SLPC   H7Y 6894   5.240   0.745   7.363  1.9973  1.0990  0.1153
   76SLPC   C38 6895   5.148   0.870   7.533  0.0721 -0.3448 -0.4823
   76SLPC   H8X 6896   5.053   0.817   7.555  0.0359 -0.3370 -0.6164
   76SLPC   H8Y 6897   5.134   0.980   7.540  2.2890 -0.2333  3.3923
   76SLPC   C39 6898   5.250   0.823   7.637 -0.4984  0.1323 -0.6756
   76SLPC   H9X 6899   5.339   0.887   7.621 -1.4090  1.2655 -1.3026
   76SLPC   H9Y 6900   5.282   0.719   7.616  0.7518  0.8154 -2.1965
   76SLPC  C310 6901   5.199   0.835   7.785 -0.0609  0.2133  0.4780
   76SLPC  H10X 6902   5.110   0.772   7.803 -0.2219 -0.1716 -1.5268
   76SLPC  H10Y 6903   5.173   0.943   7.783  0.9375  0.4511 -0.4357
   76SLPC  C311 6904   5.314   0.827   7.884  0.0234  0.3742 -0.1892
   76SLPC  H11X 6905   5.398   0.898   7.866  0.4647 -0.1197 -0.1051
   76SLPC  H11Y 6906   5.341   0.721   7.862 -3.5714  0.1404 -4.0889
   76SLPC  C312 6907   5.265   0.839   8.032 -0.0424  0.1971 -0.1847
   76SLPC  H12X 6908   5.220   0.743   8.064  1.9331 -0.7322 -0.0959
   76SLPC  H12Y 6909   5.191   0.922   8.034  2.1225  2.1614  0.8160
   76SLPC  C313 6910   5.379   0.863   8.145 -0.1252  0.4906  0.6292
   76SLPC  H13X 6911   5.435   0.956   8.121  0.3056 -0.1788 -1.0814
   76SLPC  H13Y 6912   5.446   0.774   8.142  0.4191  0.8903  0.8299
   76SLPC  C314 6913   5.314   0.872   8.284 -0.4855 -0.3326 -0.3531
   76SLPC  H14X 6914   5.235   0.794   8.280  0.0093 -0.9864  1.7438
   76SLPC  H14Y 6915   5.256   0.967   8.297  0.7715  0.6554 -1.8865
   76SLPC  C315 6916   5.414   0.857   8.396  0.0176  0.0429 -0.2631
   76SLPC  H15X 6917   5.452   0.752   8.396 -1.4231 -0.5411  2.2505
   76SLPC  H15Y 6918   5.368   0.869   8.497  2.1138  1.3977  0.5728
   76SLPC  C316 6919   5.521   0.963   8.383 -0.2947 -0.8846  0.4204
   76SLPC  H16X 6920   5.477   1.061   8.355 -0.4585 -0.6650  1.4174
   76SLPC  H16Y 6921   5.597   0.927   8.310  0.9953  1.9091  0.3163
   76SLPC  C317 6922   5.600   0.986   8.521  0.1169  0.3533 -0.2977
   76SLPC  H17X 6923   5.648   0.890   8.552 -1.0093  0.2555  1.2400
   76SLPC  H17Y 6924   5.519   1.016   8.591 -0.4358 -3.9438  1.0768
   76SLPC  C318 6925   5.708   1.083   8.499 -0.1302  0.2238 -0.2617
   76SLPC  H18X 6926   5.767   1.059   8.408  1.0405  2.9922 -0.3033
   76SLPC  H18Y 6927   5.774   1.091   8.588 -0.1838  0.5499 -0.2481
   76SLPC  H18Z 6928   5.667   1.184   8.477 -2.6770 -0.3317  1.6653
   77SLPC     N 6929   1.613   1.236   6.499  0.0282  0.6561  0.2103
   77SLPC   C13 6930   1.741   1.189   6.567 -0.5087  0.4829 -0.7532
   77SLPC  H13A 6931   1.825   1.228   6.512 -1.0725  1.1126 -1.1725
   77SLPC  H13B 6932   1.740   1.210   6.674 -0.2081 -1.6719 -0.3200
   77SLPC  H13C 6933   1.740   1.082   6.558 -2.8930  0.4037 -0.1119
   77SLPC   C14 6934   1.620   1.198   6.355  1.0858  0.2898  0.2017
   77SLPC  H14A 6935   1.605   1.091   6.349  0.9750  0.1737  2.2716
   77SLPC  H14B 6936   1.555   1.254   6.290  0.2270 -0.6600  0.2256
   77SLPC  H14C 6937   1.722   1.212   6.322  0.5545  0.0252 -1.5681
   77SLPC   C15 6938   1.591   1.380   6.515 -0.3138  0.0083  0.4467
   77SLPC  H15A 6939   1.493   1.403   6.475 -0.6699 -1.9591  0.1299
   77SLPC  H15B 6940   1.586   1.407   6.620  0.4540 -1.8084  0.9699
   77SLPC  H15C 6941   1.667   1.439   6.467 -0.8174 -0.5045 -0.9993
   77SLPC   C12 6942   1.495   1.162   6.562 -0.4742  0.3835  0.4919
   77SLPC  H12A 6943   1.407   1.190   6.506 -0.4675  1.1492  0.8529
   77SLPC  H12B 6944   1.480   1.200   6.661  2.6068  0.0368  1.1550
   77SLPC   C11 6945   1.483   1.010   6.564 -1.3141 -0.1775 -0.4609
   77SLPC  H11A 6946   1.378   1.003   6.600 -0.9916 -0.5344  0.4310
   77SLPC  H11B 6947   1.549   0.961   6.639 -0.7138 -1.8880 -2.0734
   77SLPC     P 6948   1.495   0.797   6.417 -0.2009 -0.1603  0.6078
   77SLPC   O13 6949   1.455   0.766   6.275 -0.2269 -0.8755  0.6578
   77SLPC   O14 6950   1.623   0.736   6.458 -0.0812 -0.0587 -0.4208
   77SLPC   O12 6951   1.504   0.950   6.436 -0.2578  0.3376 -0.0974
   77SLPC   O11 6952   1.381   0.755   6.514  0.1848  0.2211  0.1774
   77SLPC    C1 6953   1.368   0.640   6.599 -0.7754  0.0228  0.0709
   77SLPC    HA 6954   1.282   0.577   6.568 -0.9459  0.1642  0.2501
   77SLPC    HB 6955   1.460   0.577   6.605 -0.4410  0.3145 -1.5915
   77SLPC    C2 6956   1.350   0.692   6.746  0.7062 -0.2265  0.0442
   77SLPC    HS 6957   1.274   0.770   6.727 -0.6786 -1.4744  0.3713
   77SLPC   O21 6958   1.470   0.739   6.797 -0.4547 -0.5815  0.2100
   77SLPC   C21 6959   1.468   0.848   6.874  0.0200  0.0944 -0.1433
   77SLPC   O22 6960   1.370   0.911   6.910  0.6018  0.2884  0.1306
   77SLPC   C22 6961   1.608   0.886   6.914  0.2435 -0.3522  0.2543
   77SLPC   H2R 6962   1.647   0.790   6.953 -2.6439 -0.7974  2.1801
   77SLPC   H2S 6963   1.655   0.937   6.826 -1.3566  0.6916 -0.0294
   77SLPC    C3 6964   1.297   0.573   6.836 -0.2309  0.3548 -0.0520
   77SLPC    HX 6965   1.350   0.482   6.799  0.0037  1.4599 -2.5116
   77SLPC    HY 6966   1.190   0.550   6.812  0.4259 -1.1182 -1.7342
   77SLPC   O31 6967   1.328   0.584   6.972  0.5306  1.1935  0.3758
   77SLPC   C31 6968   1.246   0.669   7.039  0.1977 -0.3158 -0.3028
   77SLPC   O32 6969   1.144   0.715   6.997 -0.4884 -0.1327 -0.0906
   77SLPC   C32 6970   1.313   0.711   7.164 -0.2661 -0.4094 -0.4190
   77SLPC   H2X 6971   1.314   0.822   7.154  1.8015 -0.5759 -2.3764
   77SLPC   H2Y 6972   1.417   0.673   7.155 -0.1429 -0.1614 -0.0240
   77SLPC   C23 6973   1.608   0.972   7.046 -0.7011 -0.0800  0.2086
   77SLPC   H3R 6974   1.525   0.948   7.116 -0.5028  2.4322  1.3677
   77SLPC   H3S 6975   1.579   1.073   7.008  0.5985 -0.0658 -0.7824
   77SLPC   C24 6976   1.741   0.978   7.120 -0.0926  0.5675 -0.0818
   77SLPC   H4R 6977   1.835   0.975   7.061 -0.2900 -1.4615 -0.3253
   77SLPC   H4S 6978   1.748   0.890   7.187  1.1581  0.6805 -0.0515
   77SLPC   C25 6979   1.786   1.088   7.211 -0.1040  0.4390 -0.5225
   77SLPC   H5R 6980   1.726   1.093   7.305  0.4967 -0.6699 -0.0811
   77SLPC   H5S 6981   1.769   1.187   7.162 -2.3664  0.2053 -0.2643
   77SLPC   C26 6982   1.933   1.087   7.266  0.1023 -0.5690 -0.0582
   77SLPC   H6R 6983   1.952   1.190   7.304 -0.7885 -0.2061 -0.5774
   77SLPC   H6S 6984   1.995   1.066   7.176 -1.6121  1.9621 -1.8994
   77SLPC   C27 6985   1.960   0.999   7.388  0.3506  0.0411  0.5031
   77SLPC   H7R 6986   1.938   0.894   7.360  2.0247  0.3651 -2.1393
   77SLPC   H7S 6987   1.897   1.031   7.474  0.2409  1.3599 -0.0576
   77SLPC   C28 6988   2.107   1.005   7.438  0.7547 -0.2681  0.3882
   77SLPC   H8R 6989   2.174   0.977   7.354 -1.7946  0.5522 -1.9819
   77SLPC   H8S 6990   2.121   0.936   7.524 -0.0823  0.2495  0.9442
   77SLPC   C29 6991   2.145   1.145   7.468  0.1138 -0.2334  0.1841
   77SLPC   H9R 6992   2.152   1.205   7.376 -1.1501 -1.2509 -0.5891
   77SLPC  C210 6993   2.171   1.198   7.590  0.0127  0.0993 -0.2105
   77SLPC  H10R 6994   2.179   1.308   7.591 -2.1638  0.3007 -1.5048
   77SLPC  C211 6995   2.173   1.132   7.727  0.1493  0.3041  0.1772
   77SLPC  H11R 6996   2.198   1.024   7.713 -0.0002  0.3423 -0.3943
   77SLPC  H11S 6997   2.068   1.135   7.764 -1.4103 -1.3248 -3.8481
   77SLPC  C212 6998   2.270   1.216   7.811  0.0577  0.5603 -0.0358
   77SLPC  H12R 6999   2.334   1.290   7.760  1.2140  0.4371  1.2223
   77SLPC  C213 7000   2.296   1.201   7.942 -0.7184 -0.8030  0.1131
   77SLPC  H13R 7001   2.369   1.265   7.995 -1.9594  0.0861  0.7936
   77SLPC  C214 7002   2.208   1.115   8.030 -0.4402  0.1943  0.4522
   77SLPC  H14R 7003   2.101   1.130   8.005 -0.9658  3.1703  4.1103
   77SLPC  H14S 7004   2.218   1.152   8.134  0.4342 -1.5884  1.0264
   77SLPC  C215 7005   2.237   0.967   8.021 -0.2943 -0.0589 -0.5703
   77SLPC  H15R 7006   2.336   0.942   8.065  0.0596 -0.1105 -1.3841
   77SLPC  H15S 7007   2.232   0.932   7.916  2.2963 -2.8100  0.1375
   77SLPC  C216 7008   2.144   0.880   8.101 -0.5735 -0.1353 -0.2359
   77SLPC  H16R 7009   2.039   0.912   8.087 -1.2092 -1.1664  1.9392
   77SLPC  H16S 7010   2.174   0.891   8.208  0.6923 -0.8316 -0.5055
   77SLPC  C217 7011   2.169   0.730   8.082 -0.3300  0.1122 -0.5625
   77SLPC  H17R 7012   2.277   0.708   8.095 -0.2095  1.4653  0.9017
   77SLPC  H17S 7013   2.148   0.691   7.980  0.9710  0.6391 -1.0378
   77SLPC  C218 7014   2.105   0.634   8.189 -0.5154 -0.4300  0.2571
   77SLPC  H18R 7015   2.000   0.668   8.196 -0.5051 -0.0209 -1.2276
   77SLPC  H18S 7016   2.158   0.649   8.286 -0.8852  0.7559  0.2914
   77SLPC  H18T 7017   2.109   0.527   8.159 -1.8170  0.0637 -1.7933
   77SLPC   C33 7018   1.235   0.682   7.295  0.3387 -0.0838 -0.0058
   77SLPC   H3X 7019   1.237   0.575   7.325 -2.7171 -1.0606 -2.9378
   77SLPC   H3Y 7020   1.131   0.712   7.270 -0.1005  0.3770  2.2666
   77SLPC   C34 7021   1.282   0.772   7.411  0.0047 -0.6467 -0.4819
   77SLPC   H4X 7022   1.256   0.879   7.402 -0.8586 -0.8463 -0.4135
   77SLPC   H4Y 7023   1.391   0.759   7.427 -0.2954  1.0939  3.3758
   77SLPC   C35 7024   1.210   0.741   7.543 -0.4101 -0.1540  0.3435
   77SLPC   H5X 7025   1.238   0.636   7.568  3.5212  1.1642  2.0205
   77SLPC   H5Y 7026   1.101   0.754   7.530 -0.5322 -0.4895  1.0094
   77SLPC   C36 7027   1.250   0.838   7.661 -0.0446 -0.1820  0.1378
   77SLPC   H6X 7028   1.200   0.936   7.648 -0.6401 -0.5603 -0.4745
   77SLPC   H6Y 7029   1.357   0.861   7.644  0.1576 -0.8245  0.5259
   77SLPC   C37 7030   1.216   0.805   7.810 -0.1012  0.9769 -0.3200
   77SLPC   H7X 7031   1.109   0.772   7.811  0.1814 -0.0419 -2.0246
   77SLPC   H7Y 7032   1.226   0.901   7.865  0.3760  0.8536 -0.1945
   77SLPC   C38 7033   1.326   0.698   7.853  0.4088  0.3682 -0.4806
   77SLPC   H8X 7034   1.405   0.751   7.910  1.1359 -0.2078 -0.9441
   77SLPC   H8Y 7035   1.373   0.631   7.777  1.3539 -0.1147  0.5235
   77SLPC   C39 7036   1.264   0.590   7.954  0.0996 -0.1242 -0.3069
   77SLPC   H9X 7037   1.350   0.543   8.005 -0.2603 -0.0616  0.3770
   77SLPC   H9Y 7038   1.220   0.507   7.893  1.9135  0.7978 -2.9553
   77SLPC  C310 7039   1.178   0.656   8.062  0.5909  0.2273  0.5973
   77SLPC  H10X 7040   1.079   0.688   8.025  0.9861 -0.9329 -1.5395
   77SLPC  H10Y 7041   1.227   0.744   8.109 -1.5339  1.4965  0.5190
   77SLPC  C311 7042   1.141   0.554   8.173  0.0285  0.6613  0.5379
   77SLPC  H11X 7043   1.108   0.465   8.115  0.2240  1.2766 -0.5477
   77SLPC  H11Y 7044   1.053   0.593   8.228 -0.7725 -1.2377  0.6252
   77SLPC  C312 7045   1.261   0.522   8.260 -0.7911 -0.4578  0.1633
   77SLPC  H12X 7046   1.325   0.463   8.192 -4.3645 -1.6228 -2.3577
   77SLPC  H12Y 7047   1.232   0.447   8.337  3.3828 -0.4442  1.8975
   77SLPC  C313 7048   1.344   0.632   8.333 -0.0571  0.3007  0.0951
   77SLPC  H13X 7049   1.280   0.685   8.408 -1.4660 -0.7573 -0.3393
   77SLPC  H13Y 7050   1.376   0.708   8.259 -0.8089  1.9977  1.4802
   77SLPC  C314 7051   1.465   0.576   8.407 -0.0870 -0.6980  0.0888
   77SLPC  H14X 7052   1.537   0.542   8.329  0.7076 -0.0234  0.5240
   77SLPC  H14Y 7053   1.433   0.493   8.474  1.7813 -2.3797 -1.0598
   77SLPC  C315 7054   1.541   0.680   8.499  0.8040  0.1966  0.3286
   77SLPC  H15X 7055   1.461   0.728   8.560  0.6150 -0.2400  0.4286
   77SLPC  H15Y 7056   1.571   0.762   8.430 -1.7674  1.1588  0.2856
   77SLPC  C316 7057   1.659   0.615   8.578  0.3357  0.4057  0.7631
   77SLPC  H16X 7058   1.723   0.569   8.500 -0.1132  4.0117 -1.8767
   77SLPC  H16Y 7059   1.621   0.526   8.631 -0.5344 -1.2379 -2.4857
   77SLPC  C317 7060   1.711   0.707   8.681  0.7294 -0.1900  0.1843
   77SLPC  H17X 7061   1.779   0.653   8.751  1.0944  1.5934  1.2387
   77SLPC  H17Y 7062   1.625   0.735   8.745  0.1262 -0.3060 -0.5617
   77SLPC  C318 7063   1.785   0.824   8.625 -0.1351 -0.3757  0.3595
   77SLPC  H18X 7064   1.715   0.876   8.556  1.2457  0.1085 -0.6975
   77SLPC  H18Y 7065   1.873   0.787   8.568  0.1913  0.4950  0.2900
   77SLPC  H18Z 7066   1.816   0.907   8.693  0.8422 -0.4217 -0.0266
   78SLPC     N 7067   3.857   1.886   6.129  0.5381  0.1874 -0.2465
   78SLPC   C13 7068   3.988   1.956   6.147 -0.1508 -1.2029 -0.7531
   78SLPC  H13A 7069   3.996   2.015   6.238  2.2212 -0.5241 -1.3754
   78SLPC  H13B 7070   4.068   1.884   6.149 -0.5216 -1.6015  0.7718
   78SLPC  H13C 7071   4.019   2.028   6.073  1.6884 -0.3902  0.7663
   78SLPC   C14 7072   3.875   1.782   6.013 -0.7069 -0.1472  0.6132
   78SLPC  H14A 7073   3.785   1.730   5.985  0.3281 -1.6339  0.0062
   78SLPC  H14B 7074   3.923   1.836   5.933 -0.9917  0.4820  0.8682
   78SLPC  H14C 7075   3.950   1.713   6.050  0.8472  0.5525 -1.1937
   78SLPC   C15 7076   3.753   1.990   6.087 -0.3745 -0.0345  0.4942
   78SLPC  H15A 7077   3.796   2.055   6.013 -0.8288 -1.3828 -1.0002
   78SLPC  H15B 7078   3.670   1.941   6.038 -0.3868 -2.2055  2.5916
   78SLPC  H15C 7079   3.720   2.046   6.173 -4.0145  1.9120 -2.0442
   78SLPC   C12 7080   3.814   1.820   6.255 -0.4325 -0.4507  0.1088
   78SLPC  H12A 7081   3.708   1.803   6.244 -0.5158 -0.3386  0.7395
   78SLPC  H12B 7082   3.810   1.900   6.327  0.5915 -0.7782  0.5340
   78SLPC   C11 7083   3.885   1.693   6.319  0.1002  0.2353 -0.6685
   78SLPC  H11A 7084   3.826   1.675   6.411 -1.3476  0.8609 -1.4501
   78SLPC  H11B 7085   3.994   1.706   6.340  0.1071 -0.8834  0.0032
   78SLPC     P 7086   3.948   1.434   6.272 -0.5093 -0.2058 -0.1112
   78SLPC   O13 7087   3.836   1.337   6.271 -0.2787 -0.4153  0.5237
   78SLPC   O14 7088   4.054   1.413   6.174 -0.0396  0.2050 -0.4444
   78SLPC   O12 7089   3.879   1.572   6.236  0.2054  0.3847 -0.3942
   78SLPC   O11 7090   4.006   1.450   6.420 -0.7535  0.0519 -0.4372
   78SLPC    C1 7091   4.142   1.475   6.453  0.1579  0.0762  0.5756
   78SLPC    HA 7092   4.196   1.526   6.370 -3.4503  1.5133 -0.9705
   78SLPC    HB 7093   4.142   1.552   6.533 -0.9493  2.0151 -1.2344
   78SLPC    C2 7094   4.215   1.349   6.501 -0.7550 -0.1790  0.5157
   78SLPC    HS 7095   4.223   1.285   6.411  2.7195  2.5766 -1.2645
   78SLPC   O21 7096   4.156   1.298   6.615 -0.1550 -0.1700  0.4282
   78SLPC   C21 7097   4.187   1.180   6.646  0.1839 -0.0604 -1.0335
   78SLPC   O22 7098   4.256   1.102   6.578  0.4082 -0.3078  0.0347
   78SLPC   C22 7099   4.137   1.145   6.789 -0.7020  0.4363 -0.3746
   78SLPC   H2R 7100   4.199   1.199   6.863 -0.3350 -1.0436  0.4091
   78SLPC   H2S 7101   4.034   1.185   6.804 -1.2721 -1.0522 -0.1976
   78SLPC    C3 7102   4.366   1.379   6.519  0.2633 -0.4782 -0.3801
   78SLPC    HX 7103   4.412   1.393   6.419 -1.1708  2.4009 -0.6869
   78SLPC    HY 7104   4.413   1.294   6.572  0.6904  1.8326  3.1214
   78SLPC   O31 7105   4.382   1.497   6.602  0.2735  0.3278  0.1444
   78SLPC   C31 7106   4.513   1.509   6.641 -0.2838  0.4311 -0.4604
   78SLPC   O32 7107   4.600   1.435   6.604 -0.6076  0.1328  0.1581
   78SLPC   C32 7108   4.529   1.630   6.741  0.0185  0.1571 -0.7308
   78SLPC   H2X 7109   4.483   1.717   6.690 -0.6791 -0.6487 -1.5010
   78SLPC   H2Y 7110   4.636   1.655   6.758  0.2739 -1.8071  0.8675
   78SLPC   C23 7111   4.129   0.994   6.826 -0.0609  0.1224 -0.3310
   78SLPC   H3R 7112   4.230   0.950   6.810  0.1132  0.1559  0.6493
   78SLPC   H3S 7113   4.054   0.945   6.760 -0.6419 -0.8103  0.9880
   78SLPC   C24 7114   4.097   0.966   6.969  0.2064  0.0965 -0.4146
   78SLPC   H4R 7115   4.130   0.864   6.998 -1.9928 -0.3725  0.5276
   78SLPC   H4S 7116   3.986   0.966   6.981  0.2080  3.1121  0.0388
   78SLPC   C25 7117   4.132   1.068   7.081  0.3817 -1.0338 -1.5142
   78SLPC   H5R 7118   4.090   1.169   7.060  2.0974 -0.2291 -1.1218
   78SLPC   H5S 7119   4.241   1.070   7.098 -0.2129  1.7967  2.8827
   78SLPC   C26 7120   4.089   1.024   7.225  0.3267  0.2995  0.5041
   78SLPC   H6R 7121   3.978   1.015   7.232  0.3347 -1.3754 -1.0671
   78SLPC   H6S 7122   4.111   1.101   7.301  3.4452 -2.0587  2.0616
   78SLPC   C27 7123   4.170   0.905   7.274 -0.0579  0.3811  0.1167
   78SLPC   H7R 7124   4.268   0.906   7.222  0.6630  0.4891  1.4545
   78SLPC   H7S 7125   4.116   0.816   7.234 -2.1937  2.6103 -2.0491
   78SLPC   C28 7126   4.197   0.892   7.428  0.3144 -0.1167  0.2152
   78SLPC   H8R 7127   4.268   0.973   7.453  0.9655 -1.7423  3.8832
   78SLPC   H8S 7128   4.248   0.793   7.434 -1.2865 -0.9304  0.6618
   78SLPC   C29 7129   4.079   0.908   7.507  0.6319  0.1254 -0.2307
   78SLPC   H9R 7130   3.989   0.903   7.444  0.3066 -1.1648  0.3300
   78SLPC  C210 7131   4.066   0.920   7.639 -0.2650 -0.4968 -0.0565
   78SLPC  H10R 7132   3.968   0.956   7.675  1.1510  2.6866  0.7750
   78SLPC  C211 7133   4.177   0.924   7.738 -0.1833  0.3802 -0.0314
   78SLPC  H11R 7134   4.248   0.840   7.723  0.2764  1.3803 -3.7933
   78SLPC  H11S 7135   4.131   0.900   7.837 -1.5786 -0.0709 -0.7673
   78SLPC  C212 7136   4.255   1.054   7.747 -0.6907 -0.3438 -0.3305
   78SLPC  H12R 7137   4.277   1.095   7.647  0.4253 -1.4310 -0.5472
   78SLPC  C213 7138   4.294   1.128   7.846 -0.7617 -0.4264 -0.0558
   78SLPC  H13R 7139   4.350   1.222   7.835 -0.9936 -0.3728 -0.8152
   78SLPC  C214 7140   4.272   1.090   7.994  0.4744  0.0851 -0.4859
   78SLPC  H14R 7141   4.215   0.994   7.990 -0.1918  0.4255  0.7129
   78SLPC  H14S 7142   4.205   1.167   8.037 -1.3401 -1.2985 -0.7204
   78SLPC  C215 7143   4.404   1.086   8.078 -1.2673  0.1295  0.1531
   78SLPC  H15R 7144   4.456   1.183   8.063  0.9443 -1.1377 -0.6432
   78SLPC  H15S 7145   4.460   1.004   8.030 -2.5547 -0.9455  0.4620
   78SLPC  C216 7146   4.375   1.073   8.236  0.1818 -0.1692 -0.0169
   78SLPC  H16R 7147   4.322   0.976   8.249 -0.4924  0.3331  1.0099
   78SLPC  H16S 7148   4.307   1.156   8.265  2.5021  2.0685 -0.7787
   78SLPC  C217 7149   4.506   1.064   8.318  0.4332 -0.5211  0.4294
   78SLPC  H17R 7150   4.559   1.159   8.298  1.9508 -0.9771  2.0726
   78SLPC  H17S 7151   4.560   0.973   8.284 -0.9426 -0.8357 -0.9625
   78SLPC  C218 7152   4.476   1.052   8.467  0.1940 -1.0523  0.7582
   78SLPC  H18R 7153   4.579   1.035   8.507  0.1408  0.8240  1.7492
   78SLPC  H18S 7154   4.413   0.963   8.488 -0.9602 -0.3497  0.2855
   78SLPC  H18T 7155   4.438   1.143   8.517  1.9021 -0.0166  0.2302
   78SLPC   C33 7156   4.452   1.615   6.871  0.5166  0.3521  0.0715
   78SLPC   H3X 7157   4.488   1.681   6.953  1.2879 -1.8293  1.5577
   78SLPC   H3Y 7158   4.467   1.515   6.918  0.6387  0.7932  0.9799
   78SLPC   C34 7159   4.298   1.631   6.851 -0.8939 -0.5559 -0.6152
   78SLPC   H4X 7160   4.259   1.567   6.769  1.7906  0.1978 -2.5229
   78SLPC   H4Y 7161   4.291   1.737   6.818 -2.5263  0.5648  3.0964
   78SLPC   C35 7162   4.216   1.617   6.978 -0.4022 -0.5873  0.2448
   78SLPC   H5X 7163   4.111   1.645   6.956  0.5029  2.3522 -0.5072
   78SLPC   H5Y 7164   4.253   1.694   7.050 -2.0519 -1.8962  2.5786
   78SLPC   C36 7165   4.221   1.477   7.038  0.2723 -0.7790  0.2141
   78SLPC   H6X 7166   4.327   1.448   7.050  0.7519 -0.8728 -3.5137
   78SLPC   H6Y 7167   4.172   1.407   6.966 -1.0399  0.7070 -0.3705
   78SLPC   C37 7168   4.140   1.477   7.173 -0.7441  0.2912 -0.5900
   78SLPC   H7X 7169   4.142   1.373   7.210 -0.3034  0.9628  1.3335
   78SLPC   H7Y 7170   4.037   1.514   7.155 -0.8718 -0.7214 -2.1052
   78SLPC   C38 7171   4.210   1.547   7.293 -0.5625  0.0350 -0.4802
   78SLPC   H8X 7172   4.185   1.654   7.278 -1.5789 -0.4941 -2.7306
   78SLPC   H8Y 7173   4.320   1.537   7.285 -0.6072  0.8648 -2.1261
   78SLPC   C39 7174   4.165   1.493   7.431 -0.4144 -0.2077 -0.6449
   78SLPC   H9X 7175   4.170   1.382   7.443 -0.2761  0.1755  3.7030
   78SLPC   H9Y 7176   4.055   1.507   7.445 -0.4318  0.6770 -1.6551
   78SLPC  C310 7177   4.250   1.565   7.544 -0.1708  0.5899  0.5072
   78SLPC  H10X 7178   4.201   1.664   7.556 -1.2170 -0.1004  2.1152
   78SLPC  H10Y 7179   4.359   1.566   7.522  0.0592 -1.7273  1.3929
   78SLPC  C311 7180   4.240   1.490   7.680 -0.6978  0.1796 -0.7787
   78SLPC  H11X 7181   4.304   1.400   7.678 -0.1081  0.6123 -1.5813
   78SLPC  H11Y 7182   4.134   1.459   7.692 -1.3244  3.1986  2.5926
   78SLPC  C312 7183   4.300   1.574   7.797 -0.3698 -0.2810  0.3440
   78SLPC  H12X 7184   4.241   1.667   7.807  1.0449  0.5660  0.8352
   78SLPC  H12Y 7185   4.401   1.615   7.780 -1.4014  2.0754 -0.2667
   78SLPC  C313 7186   4.320   1.508   7.932  0.3889 -0.3774  0.3241
   78SLPC  H13X 7187   4.376   1.587   7.987 -0.9010 -0.5361  1.8950
   78SLPC  H13Y 7188   4.390   1.422   7.926 -0.2208 -0.7852 -1.2381
   78SLPC  C314 7189   4.193   1.461   7.994 -0.7635 -0.5400 -0.3548
   78SLPC  H14X 7190   4.155   1.376   7.934  0.3939 -2.5346  1.6626
   78SLPC  H14Y 7191   4.124   1.548   7.984  1.0132  1.0567  0.7715
   78SLPC  C315 7192   4.215   1.417   8.142 -0.4717 -0.3908 -1.1842
   78SLPC  H15X 7193   4.307   1.356   8.152 -0.7414 -0.6170  0.0626
   78SLPC  H15Y 7194   4.132   1.348   8.168  1.5954 -2.3972  0.2973
   78SLPC  C316 7195   4.256   1.535   8.227 -0.0122 -0.3519  0.8292
   78SLPC  H16X 7196   4.190   1.623   8.211 -0.4681 -0.7357  0.5777
   78SLPC  H16Y 7197   4.351   1.578   8.189 -1.3220  1.4026 -0.5394
   78SLPC  C317 7198   4.263   1.506   8.384  0.7185 -0.2668  0.3444
   78SLPC  H17X 7199   4.358   1.450   8.399  0.9737  0.6349  2.2157
   78SLPC  H17Y 7200   4.175   1.442   8.402  0.7263 -0.4671 -0.2938
   78SLPC  C318 7201   4.253   1.633   8.470 -0.1702 -0.4944  1.0437
   78SLPC  H18X 7202   4.251   1.614   8.579  3.3808 -1.8915  0.9413
   78SLPC  H18Y 7203   4.154   1.675   8.446  1.2289  1.0524 -2.4430
   78SLPC  H18Z 7204   4.317   1.722   8.451 -1.2147  0.1839  0.6504
   79SLPC     N 7205   6.777   4.319   5.897  0.0080 -0.0747  0.0626
   79SLPC   C13 7206   6.683   4.434   5.909 -0.7885 -0.0074  0.3845
   79SLPC  H13A 7207   6.694   4.492   6.000  2.7371  1.6773 -1.0012
   79SLPC  H13B 7208   6.711   4.502   5.829 -0.0335 -0.0750  0.5826
   79SLPC  H13C 7209   6.581   4.405   5.891 -1.4386 -0.3095  4.1237
   79SLPC   C14 7210   6.916   4.365   5.944 -0.0306 -0.2847 -0.4592
   79SLPC  H14A 7211   6.971   4.274   5.963 -1.7202 -1.0744  0.8119
   79SLPC  H14B 7212   6.962   4.437   5.877 -1.2119 -0.1261 -1.0987
   79SLPC  H14C 7213   6.911   4.404   6.045 -0.9824 -0.8739 -0.2749
   79SLPC   C15 7214   6.778   4.275   5.753 -0.1806  0.7921 -0.1971
   79SLPC  H15A 7215   6.816   4.355   5.692  3.3230 -0.4238  0.2635
   79SLPC  H15B 7216   6.858   4.202   5.743 -0.9932 -0.5550  2.6082
   79SLPC  H15C 7217   6.688   4.228   5.716 -1.2390  1.5089  1.4303
   79SLPC   C12 7218   6.746   4.202   5.989 -0.2306 -0.2887  0.5691
   79SLPC  H12A 7219   6.817   4.128   5.954 -0.5093 -0.1077 -0.3917
   79SLPC  H12B 7220   6.644   4.176   5.966  0.0201  1.3056 -2.5674
   79SLPC   C11 7221   6.754   4.205   6.146 -0.1213 -0.3735 -0.3606
   79SLPC  H11A 7222   6.700   4.119   6.191  1.3645 -1.5301 -0.7295
   79SLPC  H11B 7223   6.691   4.292   6.174  0.3013 -0.4168  0.7308
   79SLPC     P 7224   6.979   4.081   6.179 -0.3290 -0.1081 -0.2737
   79SLPC   O13 7225   6.899   3.967   6.123  0.2963  0.1507 -0.1908
   79SLPC   O14 7226   7.096   4.122   6.103  0.9423 -0.3113  0.3857
   79SLPC   O12 7227   6.889   4.208   6.182  0.1341  0.4407 -0.1889
   79SLPC   O11 7228   7.007   4.053   6.335 -0.0191 -0.3939 -0.5654
   79SLPC    C1 7229   6.901   4.013   6.421 -0.4060  0.2868  0.1491
   79SLPC    HA 7230   6.813   4.081   6.412 -0.2316  0.8347  2.3340
   79SLPC    HB 7231   6.859   3.913   6.394 -0.5472  0.1441  0.8786
   79SLPC    C2 7232   6.949   3.996   6.568  0.5534  0.5491  0.1551
   79SLPC    HS 7233   7.000   4.090   6.599  0.7026  0.3701  0.4661
   79SLPC   O21 7234   7.039   3.889   6.565 -0.6140 -0.1886  0.1775
   79SLPC   C21 7235   7.121   3.895   6.663 -0.3348 -0.0251 -0.1865
   79SLPC   O22 7236   7.143   3.984   6.742  0.2322  0.5457  0.4010
   79SLPC   C22 7237   7.201   3.769   6.666  0.2655  0.2047 -0.2005
   79SLPC   H2R 7238   7.144   3.677   6.641 -0.8323  0.8877 -0.2386
   79SLPC   H2S 7239   7.273   3.772   6.581  0.1307  0.2325 -0.3146
   79SLPC    C3 7240   6.831   3.974   6.660  0.2392  0.3086  0.5180
   79SLPC    HX 7241   6.793   3.875   6.628  1.0879  0.0852  0.1728
   79SLPC    HY 7242   6.744   4.040   6.641 -0.4137 -1.1734 -1.8478
   79SLPC   O31 7243   6.869   3.969   6.799  0.4812  0.0566 -0.2059
   79SLPC   C31 7244   6.880   4.083   6.860  0.2681  0.5169 -0.6148
   79SLPC   O32 7245   6.850   4.190   6.811 -0.3363 -0.3489 -0.4046
   79SLPC   C32 7246   6.924   4.064   7.005 -1.1511  0.3634 -0.4349
   79SLPC   H2X 7247   7.024   4.014   7.009  0.0908  2.4531 -3.4315
   79SLPC   H2Y 7248   6.866   3.998   7.073  1.9604  0.5071  2.5407
   79SLPC   C23 7249   7.279   3.756   6.801 -0.7950 -0.0966  0.5259
   79SLPC   H3R 7250   7.345   3.845   6.812  1.5532 -1.6908 -0.1517
   79SLPC   H3S 7251   7.335   3.661   6.791  0.5115  0.7686 -0.6383
   79SLPC   C24 7252   7.196   3.746   6.926  0.0890  0.0316 -0.2067
   79SLPC   H4R 7253   7.148   3.646   6.917  1.5100 -0.7561  0.7368
   79SLPC   H4S 7254   7.127   3.832   6.940 -0.8766 -0.4017 -2.1535
   79SLPC   C25 7255   7.281   3.727   7.051  0.0187  0.5986 -0.0078
   79SLPC   H5R 7256   7.336   3.820   7.074  2.0485 -1.0226  1.9400
   79SLPC   H5S 7257   7.356   3.650   7.021  0.1278  1.1472 -1.2077
   79SLPC   C26 7258   7.205   3.682   7.173 -0.0816  0.1239  0.3696
   79SLPC   H6R 7259   7.277   3.614   7.222  0.0861 -1.4589 -1.9557
   79SLPC   H6S 7260   7.123   3.615   7.138  0.2955 -0.4821  0.6412
   79SLPC   C27 7261   7.160   3.793   7.266  0.1603  0.0462  0.3620
   79SLPC   H7R 7262   7.082   3.861   7.225  2.1963  2.0890 -0.2597
   79SLPC   H7S 7263   7.246   3.861   7.281 -0.2055  1.1733 -2.3567
   79SLPC   C28 7264   7.096   3.753   7.404 -0.8187  0.2243 -0.3408
   79SLPC   H8R 7265   7.150   3.661   7.436 -0.3765  0.5344 -0.1803
   79SLPC   H8S 7266   6.991   3.727   7.380 -0.3049 -0.1460 -2.2848
   79SLPC   C29 7267   7.105   3.864   7.511 -0.6890 -0.2361 -0.8161
   79SLPC   H9R 7268   7.159   3.955   7.482 -1.8293  0.4680 -0.7761
   79SLPC  C210 7269   7.082   3.851   7.646 -0.3496 -0.2128 -0.2611
   79SLPC  H10R 7270   7.105   3.927   7.722  0.3744 -0.6617 -0.0366
   79SLPC  C211 7271   7.029   3.725   7.706  0.2009 -0.8004 -0.7017
   79SLPC  H11R 7272   6.965   3.671   7.633  1.5771  0.2357 -2.7116
   79SLPC  H11S 7273   6.956   3.741   7.788  0.9612 -0.3209 -0.1141
   79SLPC  C212 7274   7.149   3.642   7.741 -0.9897 -0.6384 -0.0974
   79SLPC  H12R 7275   7.206   3.614   7.651 -1.2122 -2.3798  0.2843
   79SLPC  C213 7276   7.192   3.626   7.865 -0.1340 -0.1007 -0.1254
   79SLPC  H13R 7277   7.277   3.558   7.880  0.3499  0.2268 -1.3299
   79SLPC  C214 7278   7.119   3.681   7.984 -0.4413 -0.5518 -0.7772
   79SLPC  H14R 7279   7.040   3.613   8.022  1.1440 -1.7443  0.4673
   79SLPC  H14S 7280   7.076   3.779   7.955  0.9339  0.9184  1.9596
   79SLPC  C215 7281   7.203   3.719   8.111  0.0637 -0.0543 -0.8781
   79SLPC  H15R 7282   7.260   3.634   8.154 -1.4117 -0.0230  1.1974
   79SLPC  H15S 7283   7.130   3.763   8.182  0.6164  3.1366 -2.1862
   79SLPC  C216 7284   7.298   3.834   8.076  0.6011  0.1865 -0.5829
   79SLPC  H16R 7285   7.248   3.907   8.008 -0.0491  0.9751  0.7189
   79SLPC  H16S 7286   7.390   3.786   8.038 -0.7909 -0.2891 -3.4748
   79SLPC  C217 7287   7.346   3.916   8.198  0.3361  0.0210  0.4075
   79SLPC  H17R 7288   7.256   3.959   8.245 -0.4305  0.1194 -1.1255
   79SLPC  H17S 7289   7.409   3.998   8.159  2.0812 -0.4248  2.1810
   79SLPC  C218 7290   7.425   3.826   8.305  0.4194 -0.9270 -0.7783
   79SLPC  H18R 7291   7.466   3.884   8.391  0.1488 -2.5543  0.4632
   79SLPC  H18S 7292   7.512   3.778   8.254  0.6265 -1.0378 -0.3269
   79SLPC  H18T 7293   7.372   3.733   8.334  0.9547 -0.5852  1.4386
   79SLPC   C33 7294   6.945   4.205   7.074  0.0762  0.4451  0.1923
   79SLPC   H3X 7295   6.846   4.255   7.078 -0.0230  0.2389  0.3162
   79SLPC   H3Y 7296   7.014   4.272   7.019 -0.3615  0.7091 -0.0371
   79SLPC   C34 7297   6.998   4.193   7.221  0.2708  0.0474  1.1497
   79SLPC   H4X 7298   7.103   4.157   7.213  0.1226 -0.0851 -0.4769
   79SLPC   H4Y 7299   6.930   4.117   7.265  0.5862 -2.3793 -2.3835
   79SLPC   C35 7300   7.000   4.320   7.309  0.7790 -0.3501  0.8436
   79SLPC   H5X 7301   6.909   4.379   7.287  0.5095 -0.2099  2.2483
   79SLPC   H5Y 7302   7.092   4.373   7.275  0.7011  0.5693  2.0382
   79SLPC   C36 7303   7.007   4.297   7.461  0.5119  0.2579 -0.6990
   79SLPC   H6X 7304   7.024   4.391   7.516  2.1409  0.7340 -1.9740
   79SLPC   H6Y 7305   7.091   4.226   7.478 -0.8781 -1.0738  0.8524
   79SLPC   C37 7306   6.874   4.246   7.514  0.6967 -0.2755  0.2970
   79SLPC   H7X 7307   6.846   4.142   7.485 -0.1376 -0.3046  1.1619
   79SLPC   H7Y 7308   6.789   4.303   7.471  0.1862 -0.8736  0.5017
   79SLPC   C38 7309   6.864   4.263   7.668  0.6128 -0.3110  0.1003
   79SLPC   H8X 7310   6.762   4.267   7.710  0.3525  1.7677 -0.6912
   79SLPC   H8Y 7311   6.895   4.367   7.693 -2.9241  1.2859 -1.9047
   79SLPC   C39 7312   6.940   4.158   7.736 -0.3312 -0.8123 -1.0035
   79SLPC   H9X 7313   7.049   4.165   7.714  0.7508  1.5086  4.2595
   79SLPC   H9Y 7314   6.907   4.063   7.688 -4.0595 -0.6365  1.0280
   79SLPC  C310 7315   6.930   4.150   7.884  0.5252 -0.0235  0.2173
   79SLPC  H10X 7316   6.872   4.228   7.936  0.1814 -1.1639  1.5810
   79SLPC  H10Y 7317   7.036   4.146   7.919  0.5060  1.1472  0.4258
   79SLPC  C311 7318   6.859   4.019   7.932 -0.0386 -0.6447  0.3088
   79SLPC  H11X 7319   6.900   3.926   7.887  0.2934  0.7745 -2.4519
   79SLPC  H11Y 7320   6.759   4.016   7.884  0.8455 -0.7329 -1.5796
   79SLPC  C312 7321   6.852   4.008   8.085  0.5628 -0.7035 -0.3435
   79SLPC  H12X 7322   6.954   3.989   8.125 -0.0980  0.3849  1.9134
   79SLPC  H12Y 7323   6.787   3.923   8.115 -1.5259  0.7844 -0.5474
   79SLPC  C313 7324   6.805   4.142   8.144  0.0173 -0.0984 -0.0266
   79SLPC  H13X 7325   6.707   4.174   8.102  0.1621  0.7213  0.2473
   79SLPC  H13Y 7326   6.873   4.230   8.146 -0.4090  0.2235  0.1854
   79SLPC  C314 7327   6.754   4.110   8.291 -0.5770 -0.3039 -0.0544
   79SLPC  H14X 7328   6.671   4.036   8.289 -0.2118 -0.7136 -0.1526
   79SLPC  H14Y 7329   6.703   4.201   8.328  2.5381  1.8369 -0.8739
   79SLPC  C315 7330   6.865   4.048   8.383 -0.4680 -0.2782 -0.4967
   79SLPC  H15X 7331   6.948   4.119   8.405 -0.1947 -0.8932  0.5251
   79SLPC  H15Y 7332   6.912   3.959   8.335  0.6435  0.4493 -0.7813
   79SLPC  C316 7333   6.809   4.003   8.520  0.5564  0.5112  0.3153
   79SLPC  H16X 7334   6.883   3.959   8.590 -1.2642 -1.8328  0.8568
   79SLPC  H16Y 7335   6.735   3.921   8.508  1.9215 -0.6604 -0.0977
   79SLPC  C317 7336   6.736   4.117   8.592  0.4966  0.2730  0.0441
   79SLPC  H17X 7337   6.647   4.140   8.529 -0.2418  1.4761  1.4862
   79SLPC  H17Y 7338   6.800   4.207   8.592 -3.0273  2.8989 -1.7823
   79SLPC  C318 7339   6.689   4.061   8.730 -0.3209 -0.5874  0.4989
   79SLPC  H18X 7340   6.580   4.041   8.736 -0.5282  0.2352 -0.3047
   79SLPC  H18Y 7341   6.694   4.148   8.799 -1.3868  1.6548 -2.1239
   79SLPC  H18Z 7342   6.761   3.983   8.762 -0.1762 -0.9277 -0.6269
   80SLPC     N 7343   2.833   1.251   6.016  0.2304 -0.2386  0.8307
   80SLPC   C13 7344   2.888   1.115   6.027 -0.0145 -0.2063  0.8605
   80SLPC  H13A 7345   2.867   1.055   6.114  0.0410 -1.0824  0.2665
   80SLPC  H13B 7346   2.863   1.060   5.938  0.8991 -0.1723  0.5707
   80SLPC  H13C 7347   2.996   1.121   6.025 -0.0012 -0.7506 -0.0440
   80SLPC   C14 7348   2.682   1.233   6.009  0.0412  0.0947 -0.0500
   80SLPC  H14A 7349   2.653   1.176   5.922 -2.6323  0.1702  0.7596
   80SLPC  H14B 7350   2.655   1.170   6.093 -0.4159  0.0674 -0.2207
   80SLPC  H14C 7351   2.624   1.323   6.003  0.2522  0.0808 -2.7566
   80SLPC   C15 7352   2.876   1.315   5.888 -0.0954 -0.0367  0.5179
   80SLPC  H15A 7353   2.813   1.398   5.858 -0.5162 -0.7043 -0.4641
   80SLPC  H15B 7354   2.980   1.342   5.898  0.2827 -0.8320 -1.0670
   80SLPC  H15C 7355   2.873   1.238   5.813 -2.5732  0.6510 -0.1268
   80SLPC   C12 7356   2.873   1.345   6.138 -0.7061  0.3899 -0.1995
   80SLPC  H12A 7357   2.844   1.296   6.231  1.0747  1.1429  0.7724
   80SLPC  H12B 7358   2.821   1.440   6.139 -1.1883  0.1455 -1.3699
   80SLPC   C11 7359   3.024   1.392   6.154  0.1009  0.1157  0.4091
   80SLPC  H11A 7360   3.049   1.451   6.063  0.6353 -3.0637 -1.5699
   80SLPC  H11B 7361   3.094   1.307   6.145 -1.8874 -1.5118 -0.0568
   80SLPC     P 7362   3.024   1.607   6.306  0.3483  0.4531  0.4678
   80SLPC   O13 7363   3.092   1.641   6.434  0.0269  0.4853 -0.3593
   80SLPC   O14 7364   3.059   1.678   6.176  0.3453 -0.3059  0.3773
   80SLPC   O12 7365   3.051   1.458   6.280  0.1456 -0.6167  0.3352
   80SLPC   O11 7366   2.864   1.615   6.325  0.0951  0.1304  0.2973
   80SLPC    C1 7367   2.797   1.646   6.442  0.2391  0.2523  0.4687
   80SLPC    HA 7368   2.817   1.567   6.518  1.3464  2.4472  2.5446
   80SLPC    HB 7369   2.832   1.745   6.481  0.2254  0.8044 -0.8793
   80SLPC    C2 7370   2.647   1.653   6.421 -0.3147 -0.7829 -0.0553
   80SLPC    HS 7371   2.622   1.723   6.338 -0.9483  2.1442  2.4992
   80SLPC   O21 7372   2.595   1.704   6.548  0.0436  0.0849  0.2149
   80SLPC   C21 7373   2.479   1.770   6.547  0.1874 -1.1613 -0.0117
   80SLPC   O22 7374   2.413   1.794   6.451  0.5720  0.6452  0.1543
   80SLPC   C22 7375   2.436   1.804   6.688 -0.4266 -0.5526 -0.6697
   80SLPC   H2R 7376   2.417   1.703   6.732 -2.0151  0.3480  0.7582
   80SLPC   H2S 7377   2.519   1.849   6.747 -1.7444  0.3793  0.4910
   80SLPC    C3 7378   2.587   1.509   6.403 -0.0555 -0.3752  0.8627
   80SLPC    HX 7379   2.625   1.466   6.307 -0.0577 -1.6001  1.4025
   80SLPC    HY 7380   2.477   1.522   6.405  0.0546  0.3089  2.3700
   80SLPC   O31 7381   2.636   1.430   6.516 -0.0851 -0.2992 -0.3561
   80SLPC   C31 7382   2.552   1.392   6.611  0.3170  0.8323 -0.0521
   80SLPC   O32 7383   2.432   1.425   6.623  0.4566  0.2701 -0.4529
   80SLPC   C32 7384   2.634   1.312   6.716  0.0055 -0.7223  0.3635
   80SLPC   H2X 7385   2.740   1.342   6.725 -0.5644  0.5722  3.1636
   80SLPC   H2Y 7386   2.631   1.204   6.690 -2.5815 -1.0563  1.8399
   80SLPC   C23 7387   2.316   1.896   6.686 -0.1496 -0.0952 -0.5698
   80SLPC   H3R 7388   2.229   1.851   6.632 -0.2045  0.9903 -1.4059
   80SLPC   H3S 7389   2.335   1.989   6.629  0.4256  0.1900  0.0904
   80SLPC   C24 7390   2.272   1.937   6.832 -0.4177 -0.1187  0.6670
   80SLPC   H4R 7391   2.199   2.020   6.831 -0.5131 -0.2118  0.0436
   80SLPC   H4S 7392   2.362   1.969   6.890  0.0431  0.2967 -0.2611
   80SLPC   C25 7393   2.196   1.824   6.906  0.3395  0.1823 -0.4542
   80SLPC   H5R 7394   2.263   1.737   6.922 -0.5579 -0.3025  0.7463
   80SLPC   H5S 7395   2.119   1.775   6.843 -1.3999  1.5261  0.5793
   80SLPC   C26 7396   2.131   1.864   7.035 -0.5010  0.2781  0.1481
   80SLPC   H6R 7397   2.086   1.765   7.059 -0.9294  0.2953 -0.5753
   80SLPC   H6S 7398   2.045   1.934   7.027  0.1160  0.9776 -0.4862
   80SLPC   C27 7399   2.225   1.909   7.144 -0.8184  0.4096  0.5563
   80SLPC   H7R 7400   2.268   2.004   7.104 -1.0098  0.2243 -0.0865
   80SLPC   H7S 7401   2.316   1.846   7.148  0.5014  2.2844  1.0774
   80SLPC   C28 7402   2.154   1.936   7.280  0.9618  0.4432  0.3287
   80SLPC   H8R 7403   2.118   1.834   7.303  0.5482  0.5683  0.2382
   80SLPC   H8S 7404   2.073   2.006   7.250  0.4612 -0.6329 -0.8621
   80SLPC   C29 7405   2.239   1.992   7.389 -0.1809  0.3616  0.2140
   80SLPC   H9R 7406   2.334   2.039   7.358 -0.3176  1.2102  1.0599
   80SLPC  C210 7407   2.210   1.988   7.517 -0.1519  0.4756  0.0391
   80SLPC  H10R 7408   2.265   2.047   7.592  0.2924  0.0655  0.0358
   80SLPC  C211 7409   2.095   1.920   7.571 -0.2546  0.0051 -1.0811
   80SLPC  H11R 7410   2.120   1.875   7.669  0.1584 -2.7177 -2.4094
   80SLPC  H11S 7411   2.073   1.831   7.508 -0.9380  0.4599 -1.4976
   80SLPC  C212 7412   1.966   1.991   7.589  0.6853  1.0682  0.1803
   80SLPC  H12R 7413   1.895   1.985   7.505  0.0633 -2.1717  0.8871
   80SLPC  C213 7414   1.936   2.069   7.691  0.2214  0.5212  0.1565
   80SLPC  H13R 7415   1.836   2.113   7.703  0.6296  0.8075  2.9360
   80SLPC  C214 7416   2.032   2.084   7.808 -0.5378  0.4540  0.3321
   80SLPC  H14R 7417   2.052   2.190   7.834 -3.1566  1.4350 -1.4000
   80SLPC  H14S 7418   2.127   2.030   7.789 -0.5680  0.6745 -0.4463
   80SLPC  C215 7419   1.983   2.012   7.931  0.3159  0.1446 -0.0221
   80SLPC  H15R 7420   1.946   1.910   7.907 -1.4714  0.1776  2.3902
   80SLPC  H15S 7421   1.898   2.077   7.962  0.0580  0.3676 -1.1830
   80SLPC  C216 7422   2.089   1.994   8.043 -0.6227  0.8349  0.5629
   80SLPC  H16R 7423   2.174   1.941   7.996 -0.2480  0.4871  1.6331
   80SLPC  H16S 7424   2.035   1.936   8.120 -1.7089  2.6903  1.2558
   80SLPC  C217 7425   2.147   2.116   8.112  0.3887  0.1089 -0.4540
   80SLPC  H17R 7426   2.191   2.179   8.031 -2.2366 -0.1448 -2.1241
   80SLPC  H17S 7427   2.237   2.109   8.178 -1.4707 -0.6742  2.0921
   80SLPC  C218 7428   2.038   2.183   8.191 -1.0482 -0.3594  0.3804
   80SLPC  H18R 7429   2.080   2.257   8.263 -0.2391 -1.0227  0.5965
   80SLPC  H18S 7430   1.976   2.114   8.252  0.4926 -1.9308  0.1977
   80SLPC  H18T 7431   1.969   2.233   8.121 -2.2531 -1.8404  0.4873
   80SLPC   C33 7432   2.582   1.323   6.859  0.4461  0.1591  0.4784
   80SLPC   H3X 7433   2.657   1.275   6.927 -0.5605 -1.8641  0.2107
   80SLPC   H3Y 7434   2.490   1.263   6.877  0.9182 -0.6729  0.1494
   80SLPC   C34 7435   2.565   1.467   6.901 -0.9181 -0.2601 -0.4936
   80SLPC   H4X 7436   2.491   1.522   6.838 -0.5340 -0.1585 -0.8630
   80SLPC   H4Y 7437   2.662   1.521   6.898 -0.3570 -1.2622 -0.6912
   80SLPC   C35 7438   2.519   1.487   7.054 -0.5842  0.6828 -0.4862
   80SLPC   H5X 7439   2.541   1.594   7.075  1.6187  0.0266  0.6358
   80SLPC   H5Y 7440   2.588   1.434   7.123  0.5449  0.6822 -1.6079
   80SLPC   C36 7441   2.371   1.455   7.093  0.6736  0.3953 -0.1723
   80SLPC   H6X 7442   2.362   1.348   7.124  0.7309  0.2933 -0.5008
   80SLPC   H6Y 7443   2.313   1.465   6.999  2.2549  1.1476 -1.0741
   80SLPC   C37 7444   2.320   1.540   7.208  0.2356 -0.4511  0.2462
   80SLPC   H7X 7445   2.221   1.506   7.244 -1.1449  0.2922 -2.7170
   80SLPC   H7Y 7446   2.310   1.645   7.176 -0.5005  0.0039  1.8995
   80SLPC   C38 7447   2.402   1.530   7.332 -0.1082 -0.0911  0.2145
   80SLPC   H8X 7448   2.502   1.570   7.309 -0.5786 -0.1002 -1.9482
   80SLPC   H8Y 7449   2.434   1.424   7.346  0.8265  0.3309  1.3052
   80SLPC   C39 7450   2.329   1.600   7.455  0.4322 -0.4879  0.0910
   80SLPC   H9X 7451   2.231   1.552   7.476 -0.3467  1.5471  1.1769
   80SLPC   H9Y 7452   2.303   1.706   7.435  0.3274 -0.6851 -0.8639
   80SLPC  C310 7453   2.397   1.603   7.591  0.6054  0.1297 -0.0773
   80SLPC  H10X 7454   2.461   1.693   7.599  0.1768  0.3251  1.3690
   80SLPC  H10Y 7455   2.468   1.518   7.596 -0.1821 -0.3984  3.7627
   80SLPC  C311 7456   2.288   1.588   7.703 -0.2526 -0.4620  0.3794
   80SLPC  H11X 7457   2.228   1.494   7.704  1.2652 -1.4711  2.3583
   80SLPC  H11Y 7458   2.222   1.677   7.703 -1.4616 -1.3307  1.3151
   80SLPC  C312 7459   2.358   1.587   7.844 -0.9572 -0.4030 -0.0841
   80SLPC  H12X 7460   2.424   1.672   7.872 -0.0920 -1.2993  0.6155
   80SLPC  H12Y 7461   2.432   1.505   7.836  1.0870  1.3461  0.6046
   80SLPC  C313 7462   2.257   1.569   7.953  0.4734 -0.4956 -0.1399
   80SLPC  H13X 7463   2.202   1.473   7.940 -0.9584 -0.1405  2.7382
   80SLPC  H13Y 7464   2.185   1.653   7.943 -0.1954 -1.1270 -0.6769
   80SLPC  C314 7465   2.313   1.569   8.101  0.0793 -0.3759  0.4778
   80SLPC  H14X 7466   2.377   1.657   8.122 -1.0735  0.4032  0.7305
   80SLPC  H14Y 7467   2.376   1.477   8.107 -0.9454 -1.0605  0.8188
   80SLPC  C315 7468   2.198   1.561   8.202 -0.1645  0.2034 -0.6216
   80SLPC  H15X 7469   2.148   1.463   8.187  0.1414 -0.1523  0.6202
   80SLPC  H15Y 7470   2.125   1.644   8.192  0.1002  0.4730 -0.3625
   80SLPC  C316 7471   2.235   1.564   8.348 -0.2519 -0.7018 -0.7331
   80SLPC  H16X 7472   2.145   1.549   8.411  2.1022 -0.9336  2.7157
   80SLPC  H16Y 7473   2.283   1.660   8.377  1.2058 -1.8403  0.7426
   80SLPC  C317 7474   2.338   1.461   8.391  0.1382 -0.5436  0.5955
   80SLPC  H17X 7475   2.436   1.470   8.340  0.6326  0.4556  1.6988
   80SLPC  H17Y 7476   2.293   1.361   8.372  1.8924 -0.3825 -5.0987
   80SLPC  C318 7477   2.374   1.475   8.535  0.4427  0.7359  0.0946
   80SLPC  H18X 7478   2.281   1.474   8.596 -0.3531  0.6131 -1.1041
   80SLPC  H18Y 7479   2.416   1.577   8.551 -0.3203  1.1075 -0.2470
   80SLPC  H18Z 7480   2.447   1.396   8.564 -0.3420  0.5861  1.7138
   81SAPS     N 7481   2.440   3.474  11.243 -0.6252 -0.3674 -0.5468
   81SAPS   HN1 7482   2.499   3.494  11.326  0.2857 -1.6685 -0.8703
   81SAPS   HN2 7483   2.480   3.402  11.179  2.2679 -0.1469  0.9681
   81SAPS   HN3 7484   2.427   3.559  11.184 -2.4542 -0.8242 -0.8464
   81SAPS   C12 7485   2.302   3.421  11.276 -0.4668 -0.0213 -0.6913
   81SAPS  H12A 7486   2.303   3.334  11.340 -2.1266  1.1580  0.9969
   81SAPS   C13 7487   2.206   3.516  11.349 -0.1282 -0.1027  0.4615
   81SAPS  O13A 7488   2.233   3.638  11.359 -0.1085  0.1311 -0.3950
   81SAPS  O13B 7489   2.100   3.473  11.400  0.4767 -0.1718 -0.8624
   81SAPS   C11 7490   2.239   3.371  11.145  0.1376  0.9414  0.8707
   81SAPS  H11A 7491   2.141   3.321  11.166  1.4192 -2.3449 -0.5357
   81SAPS  H11B 7492   2.309   3.289  11.115  1.0719  1.5593  1.3492
   81SAPS     P 7493   2.139   3.434  10.909  0.0982 -0.6242  0.0405
   81SAPS   O13 7494   2.230   3.449  10.791  0.0961  0.3001 -0.4863
   81SAPS   O14 7495   2.071   3.304  10.915 -0.3588  0.0132 -0.4269
   81SAPS   O12 7496   2.225   3.461  11.036 -0.1227  0.0966  0.1860
   81SAPS   O11 7497   2.039   3.558  10.922  0.2405 -0.4217 -0.7367
   81SAPS    C1 7498   1.906   3.553  10.887  0.2653  0.0120 -0.1568
   81SAPS    HA 7499   1.864   3.455  10.916 -2.3453  1.6713  1.8443
   81SAPS    HB 7500   1.843   3.614  10.955 -1.1922 -2.6120  0.8782
   81SAPS    C2 7501   1.873   3.592  10.741 -0.1333 -0.6425 -0.4250
   81SAPS    HS 7502   1.762   3.599  10.739 -0.0012  1.5260 -1.5768
   81SAPS   O21 7503   1.926   3.491  10.651 -0.0110 -0.9088 -0.2627
   81SAPS   C21 7504   1.851   3.381  10.644 -1.0994  1.0372  0.1143
   81SAPS   O22 7505   1.733   3.374  10.675  0.5720  0.1590  0.4191
   81SAPS   C22 7506   1.943   3.266  10.592  0.7893  0.0419 -0.1152
   81SAPS   H2R 7507   2.029   3.258  10.662  0.6080 -0.4363  0.0533
   81SAPS   H2S 7508   1.890   3.169  10.600  3.3112 -1.3656 -0.0950
   81SAPS    C3 7509   1.938   3.736  10.715  0.1116  0.9403 -0.5135
   81SAPS    HX 7510   2.049   3.731  10.707  0.0802  2.3732 -2.2638
   81SAPS    HY 7511   1.918   3.810  10.795  1.0472 -0.7164  1.2809
   81SAPS   O31 7512   1.874   3.787  10.596 -0.0428 -0.1596  0.6622
   81SAPS   C31 7513   1.768   3.856  10.613 -0.1911 -0.8170 -0.1354
   81SAPS   O32 7514   1.719   3.886  10.724 -0.2165  0.2920  0.7420
   81SAPS   C32 7515   1.709   3.884  10.478  0.8696 -0.0656 -0.3410
   81SAPS   H2X 7516   1.788   3.868  10.401 -0.3172 -2.1424 -1.1951
   81SAPS   H2Y 7517   1.674   3.989  10.485 -0.1049 -0.3532 -0.6848
   81SAPS   C23 7518   1.978   3.294  10.442 -0.1827 -0.0767  0.6020
   81SAPS   H3R 7519   2.019   3.396  10.425 -0.9567  0.1694  0.1866
   81SAPS   H3S 7520   1.890   3.280  10.376  2.2748  0.4551 -2.9674
   81SAPS   C24 7521   2.085   3.200  10.374 -0.1098 -0.4911 -0.3987
   81SAPS   H4R 7522   2.180   3.205  10.433  0.8812  1.9578 -2.1318
   81SAPS   H4S 7523   2.113   3.250  10.279 -0.7186 -0.3894 -0.5211
   81SAPS   C25 7524   2.026   3.069  10.375  0.1481  0.0565 -0.6726
   81SAPS   H5R 7525   2.014   3.027  10.476  0.2260  1.2022 -0.1898
   81SAPS   C26 7526   1.954   3.011  10.273 -0.2646  0.3629  0.1203
   81SAPS   H6R 7527   1.905   2.916  10.299  1.4269 -0.6071 -0.1323
   81SAPS   C27 7528   1.930   3.069  10.133  0.1643 -0.6016  0.1628
   81SAPS   H7R 7529   1.999   3.035  10.053 -1.2780 -1.3876 -0.7529
   81SAPS   H7S 7530   1.924   3.180  10.142  0.3632 -0.4771 -1.0674
   81SAPS   C28 7531   1.793   3.028  10.075 -0.0721  0.1388 -0.4654
   81SAPS   H8R 7532   1.804   2.973   9.980  0.9355 -0.2404 -0.1330
   81SAPS   C29 7533   1.672   3.034  10.137  0.2271  0.4752  0.2322
   81SAPS   H9R 7534   1.583   3.002  10.080  1.1637  0.4968 -1.2707
   81SAPS  C210 7535   1.651   3.074  10.280 -0.2998  0.6677 -0.0781
   81SAPS  H10R 7536   1.738   3.054  10.346 -0.1894  2.4193  0.3273
   81SAPS  H10S 7537   1.570   3.016  10.330 -1.5774  2.6784  0.2598
   81SAPS  C211 7538   1.623   3.218  10.274  0.4709  0.0098  0.5015
   81SAPS  H11R 7539   1.710   3.285  10.271 -0.2594  0.9047 -1.3448
   81SAPS  C212 7540   1.498   3.271  10.266  0.9272 -0.2424  1.2234
   81SAPS  H12R 7541   1.481   3.379  10.262  0.9185 -0.2321  1.5198
   81SAPS  C213 7542   1.366   3.193  10.248  0.0438 -0.4516 -1.0260
   81SAPS  H13R 7543   1.319   3.201  10.348 -0.1224  0.6082 -1.1774
   81SAPS  H13S 7544   1.373   3.087  10.216  0.5637 -0.7256  0.0058
   81SAPS  C214 7545   1.272   3.255  10.147  0.3373  0.4715  0.0072
   81SAPS  H14R 7546   1.216   3.337  10.194  0.8376 -0.0432  1.5326
   81SAPS  C215 7547   1.257   3.225  10.017 -0.1113  0.1911  0.2065
   81SAPS  H15R 7548   1.180   3.278   9.958  0.4000  0.2847 -0.3785
   81SAPS  C216 7549   1.333   3.121   9.936  0.2143 -0.8816 -0.3726
   81SAPS  H16R 7550   1.265   3.039   9.905 -0.9313 -0.0667 -0.0592
   81SAPS  H16S 7551   1.395   3.062  10.007 -0.3941 -1.5083 -0.3589
   81SAPS  C217 7552   1.410   3.181   9.824  0.0509 -0.7719 -0.6605
   81SAPS  H17R 7553   1.345   3.229   9.748 -0.1584  0.9241  0.5659
   81SAPS  H17S 7554   1.458   3.090   9.782 -2.5273 -3.4916  1.9713
   81SAPS  C218 7555   1.522   3.283   9.870 -0.1662  0.2318  0.4565
   81SAPS  H18R 7556   1.589   3.238   9.946 -0.1907  1.0838  0.9820
   81SAPS  H18S 7557   1.474   3.377   9.904 -0.6229  0.9145 -1.9673
   81SAPS  C219 7558   1.624   3.311   9.758 -0.3084  0.2503 -0.1917
   81SAPS  H19R 7559   1.674   3.410   9.762  0.2245 -0.1143  2.8767
   81SAPS  H19S 7560   1.578   3.300   9.657  1.0521 -1.1560 -0.6740
   81SAPS  C220 7561   1.741   3.214   9.761  0.2115 -0.6578  0.4824
   81SAPS  H20R 7562   1.794   3.200   9.664  1.7852 -0.0121  1.2383
   81SAPS  H20S 7563   1.699   3.113   9.780  0.2473 -1.1116 -1.6783
   81SAPS  H20T 7564   1.814   3.248   9.837  0.3866  1.4606 -0.5892
   81SAPS   C33 7565   1.583   3.795  10.452 -0.4870 -0.0960  0.2489
   81SAPS   H3X 7566   1.543   3.821  10.352  0.8997 -1.1518 -0.5998
   81SAPS   H3Y 7567   1.502   3.814  10.525  1.0907  0.4963  1.9081
   81SAPS   C34 7568   1.607   3.645  10.438 -0.4447  0.5485 -0.3865
   81SAPS   H4X 7569   1.519   3.590  10.397  0.6797 -0.7005 -1.1413
   81SAPS   H4Y 7570   1.644   3.614  10.538  0.2701  0.9121 -0.5356
   81SAPS   C35 7571   1.721   3.617  10.337 -0.3730  0.2691 -0.6855
   81SAPS   H5X 7572   1.746   3.509  10.342 -0.6475  0.1306 -2.1176
   81SAPS   H5Y 7573   1.815   3.655  10.384 -0.1026 -2.2962  0.9387
   81SAPS   C36 7574   1.696   3.661  10.200  0.4343  0.0625 -0.2932
   81SAPS   H6X 7575   1.705   3.772  10.204  1.7165 -0.0026 -1.0775
   81SAPS   H6Y 7576   1.587   3.655  10.177  0.4543  0.9332 -0.6296
   81SAPS   C37 7577   1.788   3.612  10.092  0.7592 -0.6750  0.3016
   81SAPS   H7X 7578   1.783   3.501  10.090 -5.1554 -0.5402 -2.5177
   81SAPS   H7Y 7579   1.891   3.644  10.121  0.5850  0.4193 -0.2882
   81SAPS   C38 7580   1.751   3.665   9.950 -0.9190 -0.3309  0.2231
   81SAPS   H8X 7581   1.758   3.775   9.955  1.6172 -0.5460  2.3699
   81SAPS   H8Y 7582   1.651   3.626   9.921 -1.5127  0.1442  1.5994
   81SAPS   C39 7583   1.864   3.632   9.849  0.0642  0.1516  1.1602
   81SAPS   H9X 7584   1.887   3.525   9.863 -0.2044  0.2010  1.9913
   81SAPS   H9Y 7585   1.965   3.677   9.865  2.0484 -4.5078  2.4966
   81SAPS  C310 7586   1.831   3.659   9.699  0.1199 -0.1764  0.0495
   81SAPS  H10X 7587   1.810   3.768   9.689  0.8160  0.0994  1.5356
   81SAPS  H10Y 7588   1.736   3.602   9.686 -0.2453  0.1945  1.0331
   81SAPS  C311 7589   1.921   3.587   9.594 -0.0311 -0.2473 -0.4446
   81SAPS  H11X 7590   1.913   3.479   9.616 -0.6533 -0.1087  0.0067
   81SAPS  H11Y 7591   2.025   3.620   9.615 -0.6552  0.9089  0.9386
   81SAPS  C312 7592   1.870   3.607   9.452 -0.9618 -0.1863 -0.3653
   81SAPS  H12X 7593   1.878   3.717   9.436  1.4115  0.0641  2.0826
   81SAPS  H12Y 7594   1.759   3.595   9.450 -1.1340  1.4632 -2.8907
   81SAPS  C313 7595   1.929   3.516   9.343  0.8052 -0.3632  0.0025
   81SAPS  H13X 7596   1.877   3.418   9.353  1.6011 -0.6890  0.9739
   81SAPS  H13Y 7597   2.039   3.502   9.350  0.5722 -1.4198  1.8332
   81SAPS  C314 7598   1.893   3.560   9.195 -0.1984 -0.6038 -0.5716
   81SAPS  H14X 7599   1.949   3.653   9.174 -0.2685  0.3207  3.0996
   81SAPS  H14Y 7600   1.785   3.587   9.194  0.0195  0.2878 -0.4734
   81SAPS  C315 7601   1.921   3.455   9.081 -0.1144  0.2546 -0.5042
   81SAPS  H15X 7602   1.876   3.492   8.987 -3.3577 -2.9939 -0.3439
   81SAPS  H15Y 7603   1.850   3.374   9.108 -0.3811 -0.2298 -2.5993
   81SAPS  C316 7604   2.065   3.412   9.066  0.2709  0.5765  0.0142
   81SAPS  H16X 7605   2.061   3.340   8.982 -3.1649  1.0703 -0.3076
   81SAPS  H16Y 7606   2.109   3.364   9.156  2.7389 -0.4773 -1.6894
   81SAPS  C317 7607   2.158   3.532   9.028  0.0245  0.4181  0.0289
   81SAPS  H17X 7608   2.167   3.592   9.121  0.0867 -1.5014  1.2832
   81SAPS  H17Y 7609   2.123   3.595   8.943 -2.8929  0.7461  1.4338
   81SAPS  C318 7610   2.292   3.476   8.969 -0.1101 -0.0455 -0.5766
   81SAPS  H18X 7611   2.375   3.551   8.968 -0.1592  0.0216  0.0453
   81SAPS  H18Y 7612   2.282   3.426   8.871  0.1689 -0.1302 -0.5630
   81SAPS  H18Z 7613   2.335   3.392   9.028  0.6530  1.3087  0.8364
   82SAPS     N 7614   1.054   2.216  10.903 -0.1552 -0.3477 -0.5005
   82SAPS   HN1 7615   1.059   2.294  10.834 -4.4621  1.9453  1.5516
   82SAPS   HN2 7616   1.083   2.255  10.995 -0.4947 -0.5235 -0.3170
   82SAPS   HN3 7617   1.122   2.139  10.890 -1.1674 -0.9624 -2.2464
   82SAPS   C12 7618   0.914   2.164  10.905 -0.3139  0.1074  0.0870
   82SAPS  H12A 7619   0.882   2.115  10.813  0.1759 -1.2794  0.6362
   82SAPS   C13 7620   0.895   2.064  11.018  0.0172 -0.2074 -0.0244
   82SAPS  O13A 7621   0.991   2.025  11.088 -1.0880  0.7782  0.1840
   82SAPS  O13B 7622   0.777   2.023  11.045 -0.6254  0.3348  1.1435
   82SAPS   C11 7623   0.828   2.292  10.923 -0.0744 -0.0529 -0.5565
   82SAPS  H11A 7624   0.853   2.333  11.024  2.8777  0.5518 -1.4963
   82SAPS  H11B 7625   0.721   2.263  10.925 -0.1325  0.2054  0.6946
   82SAPS     P 7626   0.739   2.498  10.785 -0.1934 -0.2099 -0.2891
   82SAPS   O13 7627   0.660   2.537  10.906 -0.4427 -0.4225 -0.6048
   82SAPS   O14 7628   0.806   2.608  10.714  0.2400 -0.5210 -0.2625
   82SAPS   O12 7629   0.853   2.388  10.821  0.2297 -0.0480 -0.0592
   82SAPS   O11 7630   0.642   2.418  10.693  0.2097 -0.0457 -0.4807
   82SAPS    C1 7631   0.684   2.309  10.602  0.8382 -0.4658 -0.0446
   82SAPS    HA 7632   0.775   2.256  10.636  1.1519  0.7367  1.0404
   82SAPS    HB 7633   0.615   2.222  10.596  0.3586 -0.5451  4.7575
   82SAPS    C2 7634   0.689   2.360  10.455 -0.6415 -0.3112  0.1990
   82SAPS    HS 7635   0.781   2.421  10.443  0.3050 -1.5058  1.2160
   82SAPS   O21 7636   0.567   2.436  10.434  0.6335 -0.6162 -0.1975
   82SAPS   C21 7637   0.584   2.525  10.336 -0.7869  0.1822  0.2560
   82SAPS   O22 7638   0.694   2.564  10.299 -0.0062  0.1669 -0.0289
   82SAPS   C22 7639   0.459   2.582  10.290  0.1029 -0.6141  0.2180
   82SAPS   H2R 7640   0.414   2.494  10.240  1.3242 -0.2900 -1.5118
   82SAPS   H2S 7641   0.402   2.621  10.377 -0.9455 -0.7898 -0.3845
   82SAPS    C3 7642   0.723   2.244  10.364 -0.2395  0.2694 -0.3265
   82SAPS    HX 7643   0.645   2.168  10.386 -0.8671  0.9883 -0.0538
   82SAPS    HY 7644   0.816   2.189  10.390 -0.7393 -0.8279 -0.8441
   82SAPS   O31 7645   0.723   2.276  10.228  0.0427 -0.3182 -0.7060
   82SAPS   C31 7646   0.842   2.315  10.176 -0.0703 -0.2887 -0.9068
   82SAPS   O32 7647   0.947   2.317  10.236  0.2808  0.1794 -0.3242
   82SAPS   C32 7648   0.823   2.358  10.036 -0.2472  0.1899  0.4061
   82SAPS   H2X 7649   0.722   2.400  10.015 -1.0317 -1.3941  0.9523
   82SAPS   H2Y 7650   0.839   2.267   9.975 -2.5797  0.0855 -0.0863
   82SAPS   C23 7651   0.477   2.690  10.181 -0.0346  0.2760  0.2392
   82SAPS   H3R 7652   0.563   2.755  10.206 -1.0613  2.6147 -2.0957
   82SAPS   H3S 7653   0.383   2.750  10.187 -0.0981  0.0498  1.7390
   82SAPS   C24 7654   0.499   2.632  10.040 -0.3793 -0.3136 -0.2397
   82SAPS   H4R 7655   0.418   2.565  10.004 -0.7086 -0.4736  0.7816
   82SAPS   H4S 7656   0.595   2.578  10.032 -1.0499 -2.2563  3.5082
   82SAPS   C25 7657   0.522   2.745   9.942  0.5913 -0.0539 -0.4272
   82SAPS   H5R 7658   0.622   2.791   9.952  1.0704 -0.8785 -1.3080
   82SAPS   C26 7659   0.433   2.801   9.858 -0.0988 -0.3094  0.2245
   82SAPS   H6R 7660   0.467   2.883   9.793  0.6492 -0.5855  0.2566
   82SAPS   C27 7661   0.289   2.745   9.847  0.0255  0.0768  0.5877
   82SAPS   H7R 7662   0.232   2.821   9.905  0.1647 -1.4784  2.8199
   82SAPS   H7S 7663   0.278   2.649   9.901 -0.0532 -0.7735 -0.9199
   82SAPS   C28 7664   0.256   2.736   9.698  0.1762  0.4406 -0.7124
   82SAPS   H8R 7665   0.332   2.751   9.620 -0.0157 -2.7935 -1.5960
   82SAPS   C29 7666   0.127   2.717   9.667 -0.0494  0.6078 -0.3883
   82SAPS   H9R 7667   0.106   2.711   9.560 -0.2171 -0.2443 -0.3132
   82SAPS  C210 7668   0.008   2.703   9.763 -0.3198 -0.7888  0.3996
   82SAPS  H10R 7669   0.043   2.644   9.850  1.2941  1.3910  1.2917
   82SAPS  H10S 7670  -0.076   2.650   9.714  0.0687 -0.5978 -0.4742
   82SAPS  C211 7671  -0.039   2.833   9.818 -0.7748 -0.0572 -0.3682
   82SAPS  H11R 7672  -0.010   2.853   9.922  1.7205 -0.4490 -0.9513
   82SAPS  C212 7673  -0.106   2.925   9.753 -0.0823 -0.0356  0.6841
   82SAPS  H12R 7674  -0.129   3.010   9.819 -0.8042 -0.1185  0.5377
   82SAPS  C213 7675  -0.155   2.921   9.616  0.4106 -0.0085  0.5188
   82SAPS  H13R 7676  -0.262   2.950   9.623  0.2493  0.9497 -4.1166
   82SAPS  H13S 7677  -0.141   2.822   9.566  2.2708  1.0589 -1.1301
   82SAPS  C214 7678  -0.078   3.017   9.520  0.6743 -0.1681  0.4478
   82SAPS  H14R 7679  -0.029   3.106   9.563  1.7866 -0.7474  0.3990
   82SAPS  C215 7680  -0.065   3.003   9.387 -0.4262 -0.6214  0.1542
   82SAPS  H15R 7681   0.008   3.075   9.347 -1.1149  0.9325  1.6174
   82SAPS  C216 7682  -0.106   2.883   9.301  0.3428 -0.0581 -0.0580
   82SAPS  H16R 7683  -0.165   2.916   9.212  1.0658  1.2430 -0.0740
   82SAPS  H16S 7684  -0.176   2.810   9.348 -4.8238  3.6179 -1.5841
   82SAPS  C217 7685   0.006   2.793   9.230 -0.0108 -0.3886  0.3720
   82SAPS  H17R 7686   0.071   2.756   9.312 -0.3078 -0.0390  0.7646
   82SAPS  H17S 7687   0.063   2.861   9.162 -1.2132 -0.2910 -0.5503
   82SAPS  C218 7688  -0.055   2.677   9.143 -0.4645  0.5026  0.2339
   82SAPS  H18R 7689  -0.133   2.727   9.082  0.2224  0.6050 -0.5784
   82SAPS  H18S 7690  -0.102   2.601   9.209  1.7855  0.2304  1.5898
   82SAPS  C219 7691   0.048   2.595   9.063 -0.4331 -0.1616 -0.0534
   82SAPS  H19R 7692   0.001   2.534   8.984  1.2151 -0.4591 -0.8184
   82SAPS  H19S 7693   0.110   2.527   9.126  0.2474  0.2771 -0.2479
   82SAPS  C220 7694   0.149   2.688   8.985 -0.1143 -0.2994  0.1025
   82SAPS  H20R 7695   0.087   2.742   8.909 -1.3208 -2.0408 -0.1824
   82SAPS  H20S 7696   0.232   2.631   8.940 -1.2732 -0.9907 -1.2081
   82SAPS  H20T 7697   0.204   2.762   9.046  1.6397 -1.0693 -0.5363
   82SAPS   C33 7698   0.931   2.461   9.991 -0.1769 -0.0627 -0.2815
   82SAPS   H3X 7699   1.023   2.409  10.025 -0.5730 -1.6933 -1.6465
   82SAPS   H3Y 7700   0.936   2.560  10.042  1.2311 -0.2371 -0.0630
   82SAPS   C34 7701   0.929   2.476   9.839  0.2285  0.1898  0.5709
   82SAPS   H4X 7702   0.920   2.378   9.787 -0.9197  0.7400 -0.2927
   82SAPS   H4Y 7703   1.026   2.530   9.832  1.1966 -1.5705  0.2410
   82SAPS   C35 7704   0.829   2.584   9.798  0.5501 -0.8433  0.2985
   82SAPS   H5X 7705   0.847   2.675   9.859 -0.8626 -0.2526 -0.1452
   82SAPS   H5Y 7706   0.728   2.550   9.828 -0.4165  0.5119 -1.3735
   82SAPS   C36 7707   0.829   2.623   9.648 -0.1856 -0.4050 -0.4876
   82SAPS   H6X 7708   0.842   2.536   9.580  3.6893  0.8289 -1.4602
   82SAPS   H6Y 7709   0.908   2.695   9.615  1.7814 -1.6750  1.3406
   82SAPS   C37 7710   0.684   2.670   9.611 -0.4514  0.3977 -0.2451
   82SAPS   H7X 7711   0.684   2.762   9.673 -0.1185  0.0602  0.2645
   82SAPS   H7Y 7712   0.612   2.594   9.648  1.1022 -1.1083 -0.2806
   82SAPS   C38 7713   0.663   2.686   9.462  0.0276 -0.4287  0.3832
   82SAPS   H8X 7714   0.674   2.579   9.432 -1.0802 -0.1529 -1.0059
   82SAPS   H8Y 7715   0.749   2.747   9.428 -0.9620  0.3138 -0.8360
   82SAPS   C39 7716   0.528   2.732   9.417 -0.0801 -0.1753 -0.2224
   82SAPS   H9X 7717   0.497   2.825   9.470 -2.6749  0.1658 -2.2223
   82SAPS   H9Y 7718   0.447   2.664   9.452 -1.8025  1.8913 -0.0491
   82SAPS  C310 7719   0.523   2.755   9.267  0.1813 -0.0047 -0.0357
   82SAPS  H10X 7720   0.605   2.823   9.235  3.4078 -3.1028  1.2085
   82SAPS  H10Y 7721   0.433   2.814   9.242  1.2224  1.9854  0.8449
   82SAPS  C311 7722   0.533   2.624   9.188 -0.3369  0.1473 -0.7024
   82SAPS  H11X 7723   0.457   2.553   9.225  1.1886 -1.3435 -0.3523
   82SAPS  H11Y 7724   0.632   2.578   9.207 -0.5664 -0.7408 -1.6138
   82SAPS  C312 7725   0.510   2.639   9.036 -0.0526  0.3425 -0.0479
   82SAPS  H12X 7726   0.451   2.731   9.017  2.7802  2.5338  1.4329
   82SAPS  H12Y 7727   0.457   2.548   9.002  0.5178 -1.1364  2.8959
   82SAPS  C313 7728   0.640   2.650   8.958  0.5364 -0.2171  0.2319
   82SAPS  H13X 7729   0.616   2.657   8.850 -2.3359 -2.0709  0.7200
   82SAPS  H13Y 7730   0.706   2.563   8.979 -0.1921 -0.8027  0.1094
   82SAPS  C314 7731   0.721   2.776   8.982  0.0376 -0.6767 -0.4128
   82SAPS  H14X 7732   0.736   2.770   9.092  1.6414 -0.2244 -0.5925
   82SAPS  H14Y 7733   0.650   2.858   8.960  0.4825  0.2352  1.3806
   82SAPS  C315 7734   0.852   2.791   8.907  0.0375 -0.1202 -0.8286
   82SAPS  H15X 7735   0.828   2.807   8.800  4.4853  1.4622 -1.6596
   82SAPS  H15Y 7736   0.918   2.704   8.926 -1.1847 -1.1892 -1.4110
   82SAPS  C316 7737   0.922   2.924   8.948 -0.2290  0.5992  0.2224
   82SAPS  H16X 7738   0.955   2.911   9.053 -1.5372  0.9328  0.6909
   82SAPS  H16Y 7739   0.844   3.001   8.934  0.4663  1.1570 -0.6528
   82SAPS  C317 7740   1.054   2.957   8.861 -0.3409  0.0344 -0.5962
   82SAPS  H17X 7741   1.079   3.065   8.863  1.7879 -0.4447  2.4780
   82SAPS  H17Y 7742   1.024   2.941   8.755  0.5565  0.0559 -0.8596
   82SAPS  C318 7743   1.187   2.884   8.880 -0.0139  0.1080  0.4195
   82SAPS  H18X 7744   1.180   2.773   8.880 -0.3726  0.0782  2.9784
   82SAPS  H18Y 7745   1.223   2.902   8.984 -1.6601 -0.1928  1.0663
   82SAPS  H18Z 7746   1.264   2.914   8.806  2.8167 -3.2341  1.9010
   83SAPS     N 7747   2.143   3.750  11.142  0.5427 -0.3048 -0.3101
   83SAPS   HN1 7748   2.193   3.721  11.229 -0.7314 -2.9706 -0.4318
   83SAPS   HN2 7749   2.044   3.772  11.166  0.2324 -2.4468  0.4813
   83SAPS   HN3 7750   2.146   3.677  11.069  1.0337 -0.1913 -0.4046
   83SAPS   C12 7751   2.222   3.857  11.085 -0.3280 -0.0221 -0.3811
   83SAPS  H12A 7752   2.227   3.941  11.153 -0.0026 -0.1614 -0.2309
   83SAPS   C13 7753   2.359   3.805  11.038 -0.5291 -0.6561  0.4354
   83SAPS  O13A 7754   2.392   3.685  11.059  0.7373 -0.1263 -0.0990
   83SAPS  O13B 7755   2.434   3.878  10.975  0.0816  0.8027 -0.5686
   83SAPS   C11 7756   2.144   3.907  10.957  0.0385 -0.0918 -0.0564
   83SAPS  H11A 7757   2.137   3.829  10.878 -0.4647  1.1233 -1.2304
   83SAPS  H11B 7758   2.211   3.988  10.922  0.5441  0.1531  1.4469
   83SAPS     P 7759   2.007   4.115  11.012 -0.1554 -0.0031  0.4330
   83SAPS   O13 7760   1.864   4.141  11.036 -0.1415 -0.1851  0.3054
   83SAPS   O14 7761   2.093   4.144  11.127 -1.0191  0.4667  0.2915
   83SAPS   O12 7762   2.015   3.961  10.982  0.2412 -0.0785  0.0020
   83SAPS   O11 7763   2.054   4.179  10.888  0.4946  0.3356 -0.3133
   83SAPS    C1 7764   1.992   4.163  10.762  0.1383  0.9612  0.2431
   83SAPS    HA 7765   2.008   4.054  10.744 -3.0353 -0.0868  3.0573
   83SAPS    HB 7766   1.881   4.172  10.759 -0.1923 -2.4740 -0.6321
   83SAPS    C2 7767   2.081   4.237  10.648  0.3550 -0.0492 -0.3680
   83SAPS    HS 7768   2.038   4.340  10.641 -0.9535 -0.6045 -0.5435
   83SAPS   O21 7769   2.074   4.176  10.516  0.2294 -0.2397  0.1891
   83SAPS   C21 7770   1.961   4.206  10.451  0.0433  0.4349  0.0511
   83SAPS   O22 7771   1.877   4.281  10.487 -0.1420  0.5415 -0.3875
   83SAPS   C22 7772   1.955   4.116  10.323  0.4012 -0.0014 -0.0337
   83SAPS   H2R 7773   2.056   4.128  10.278  0.5788 -3.1137 -0.5236
   83SAPS   H2S 7774   1.947   4.009  10.352 -0.5540  0.6744  2.3660
   83SAPS    C3 7775   2.231   4.245  10.677 -0.6998 -0.2041 -0.4587
   83SAPS    HX 7776   2.259   4.138  10.673  0.1768  0.0379 -0.8209
   83SAPS    HY 7777   2.242   4.290  10.778 -0.2823  1.1731 -1.1045
   83SAPS   O31 7778   2.290   4.331  10.584 -0.5812  0.0672  0.5556
   83SAPS   C31 7779   2.417   4.302  10.559 -0.1571  0.2050  0.2473
   83SAPS   O32 7780   2.489   4.226  10.620 -0.7377  0.8091 -0.1972
   83SAPS   C32 7781   2.446   4.371  10.425 -0.2374 -0.1290  0.2612
   83SAPS   H2X 7782   2.553   4.360  10.399 -0.7106  0.6087 -2.1666
   83SAPS   H2Y 7783   2.413   4.477  10.434  0.2386  0.1292 -0.8725
   83SAPS   C23 7784   1.838   4.150  10.222 -0.4247  0.0482 -0.4298
   83SAPS   H3R 7785   1.818   4.259  10.223  0.5165  0.2343 -1.3356
   83SAPS   H3S 7786   1.747   4.092  10.251 -1.3945  0.6067 -2.2830
   83SAPS   C24 7787   1.875   4.113  10.077  0.0207 -0.0238 -0.4653
   83SAPS   H4R 7788   1.876   4.002  10.070  3.0334 -0.1380  0.9664
   83SAPS   H4S 7789   1.979   4.148  10.061  0.2225 -0.7550 -0.8033
   83SAPS   C25 7790   1.784   4.161   9.970  0.2187  1.3383  0.3283
   83SAPS   H5R 7791   1.686   4.189  10.013 -2.4003 -2.8540 -2.4930
   83SAPS   C26 7792   1.814   4.160   9.842 -0.0245  0.2549 -0.3595
   83SAPS   H6R 7793   1.747   4.208   9.770 -1.4502 -1.1055  0.0355
   83SAPS   C27 7794   1.950   4.119   9.785  0.1315 -0.4244  0.2698
   83SAPS   H7R 7795   1.936   4.030   9.719 -4.3447 -2.3545  3.5354
   83SAPS   H7S 7796   2.017   4.080   9.865 -0.6197 -0.1324  1.0471
   83SAPS   C28 7797   2.016   4.239   9.714  0.0797  0.2808  0.2914
   83SAPS   H8R 7798   2.034   4.321   9.785 -1.1425 -0.6497  1.7120
   83SAPS   C29 7799   2.048   4.242   9.583 -0.8575 -0.3963  0.1229
   83SAPS   H9R 7800   2.093   4.327   9.531 -1.5338  0.7571  1.3739
   83SAPS  C210 7801   2.029   4.135   9.480 -0.0318 -0.1161  0.8308
   83SAPS  H10R 7802   1.987   4.179   9.387  1.1714 -1.8254 -0.5475
   83SAPS  H10S 7803   1.954   4.063   9.517 -1.1794  1.0345  0.7678
   83SAPS  C211 7804   2.170   4.074   9.461 -0.1964  0.9032  0.3567
   83SAPS  H11R 7805   2.240   4.076   9.545  1.9362  1.4741 -1.3858
   83SAPS  C212 7806   2.211   4.018   9.342 -0.2416  0.3290 -0.1496
   83SAPS  H12R 7807   2.313   3.980   9.334 -0.6669 -0.6266 -1.1323
   83SAPS  C213 7808   2.125   4.020   9.220 -0.3193 -0.4207 -0.0161
   83SAPS  H13R 7809   2.099   4.125   9.193 -0.1680  0.3632  2.7102
   83SAPS  H13S 7810   2.026   3.981   9.251 -1.4146  0.2500 -2.5478
   83SAPS  C214 7811   2.177   3.934   9.110  0.0946  0.1303  0.1235
   83SAPS  H14R 7812   2.202   3.831   9.141  0.3633  0.4145  0.8628
   83SAPS  C215 7813   2.197   3.963   8.981 -0.1033  0.3301 -0.1040
   83SAPS  H15R 7814   2.233   3.879   8.919  0.6140  1.9262 -1.8835
   83SAPS  C216 7815   2.164   4.086   8.898 -0.2026 -0.6534 -0.3383
   83SAPS  H16R 7816   2.126   4.171   8.960  1.0798 -2.1929  2.6795
   83SAPS  H16S 7817   2.090   4.060   8.820  0.1027  2.0239 -1.5569
   83SAPS  C217 7818   2.293   4.137   8.821  0.0624  1.0739  0.3629
   83SAPS  H17R 7819   2.317   4.061   8.743 -1.0248 -0.4602  1.5022
   83SAPS  H17S 7820   2.369   4.153   8.900 -0.6311 -1.2919  1.5742
   83SAPS  C218 7821   2.256   4.267   8.750 -0.1304  0.3270 -0.0132
   83SAPS  H18R 7822   2.218   4.352   8.811 -0.4534 -0.7453  1.2978
   83SAPS  H18S 7823   2.161   4.244   8.696 -0.7182 -0.1503  1.2123
   83SAPS  C219 7824   2.375   4.319   8.661  0.0187  0.3027  0.0599
   83SAPS  H19R 7825   2.361   4.426   8.635  0.3338 -0.5161 -3.8092
   83SAPS  H19S 7826   2.386   4.251   8.574 -0.2856 -1.1592  1.1357
   83SAPS  C220 7827   2.503   4.337   8.739  0.3269  0.5585  0.6776
   83SAPS  H20R 7828   2.591   4.356   8.673 -1.5635  1.1889 -1.6978
   83SAPS  H20S 7829   2.531   4.240   8.787 -0.4269 -0.5621 -1.1247
   83SAPS  H20T 7830   2.489   4.409   8.823  0.7826  0.7032  0.6329
   83SAPS   C33 7831   2.373   4.301  10.317  0.7530  0.7835 -0.7287
   83SAPS   H3X 7832   2.266   4.289  10.346  0.6267 -1.3768 -1.9587
   83SAPS   H3Y 7833   2.420   4.201  10.306  1.0033  0.7497  0.5655
   83SAPS   C34 7834   2.375   4.381  10.182 -0.5196  0.6171  0.4293
   83SAPS   H4X 7835   2.482   4.412  10.180  0.2261 -1.8004  0.5076
   83SAPS   H4Y 7836   2.293   4.454  10.165 -0.2251  0.7195 -0.5943
   83SAPS   C35 7837   2.355   4.282  10.070 -0.5812 -0.1632  0.0707
   83SAPS   H5X 7838   2.264   4.219  10.081 -2.2518  2.0172 -0.9405
   83SAPS   H5Y 7839   2.436   4.208  10.088 -0.8648 -0.6797 -0.7500
   83SAPS   C36 7840   2.357   4.348   9.930  0.0169  0.4983  0.9126
   83SAPS   H6X 7841   2.437   4.424   9.935  2.0370 -1.5520  0.6219
   83SAPS   H6Y 7842   2.258   4.387   9.896 -0.4459 -0.0943  1.5562
   83SAPS   C37 7843   2.379   4.247   9.824  0.4851 -0.1384  0.0482
   83SAPS   H7X 7844   2.290   4.180   9.827  1.7848 -1.9124 -0.1323
   83SAPS   H7Y 7845   2.468   4.184   9.847 -0.6748 -0.9208  2.5249
   83SAPS   C38 7846   2.388   4.305   9.690  0.4443 -0.6296  0.0939
   83SAPS   H8X 7847   2.326   4.397   9.684  2.9006  1.0441 -0.4668
   83SAPS   H8Y 7848   2.343   4.229   9.622  1.3323 -0.2522 -0.9307
   83SAPS   C39 7849   2.533   4.321   9.629 -0.6830 -0.7093 -0.2856
   83SAPS   H9X 7850   2.607   4.274   9.697  0.8712  1.7770 -0.2113
   83SAPS   H9Y 7851   2.552   4.431   9.631 -2.7452 -0.3663  2.1209
   83SAPS  C310 7852   2.533   4.261   9.485  0.8771  0.0327 -0.2949
   83SAPS  H10X 7853   2.440   4.305   9.443  0.4231  0.9190  1.5798
   83SAPS  H10Y 7854   2.513   4.152   9.493  0.1290  0.2104  0.4263
   83SAPS  C311 7855   2.652   4.283   9.388 -0.1214 -0.2931  0.0193
   83SAPS  H11X 7856   2.737   4.245   9.449 -0.7746 -1.7655  0.0147
   83SAPS  H11Y 7857   2.661   4.391   9.362 -0.3820 -0.1456  0.5301
   83SAPS  C312 7858   2.622   4.210   9.260  0.4319 -0.0619 -0.6458
   83SAPS  H12X 7859   2.531   4.258   9.217  1.5938 -1.2033 -4.5476
   83SAPS  H12Y 7860   2.602   4.102   9.277  1.1376 -0.0924 -0.0047
   83SAPS  C313 7861   2.736   4.212   9.165 -1.0631 -0.8875 -0.4167
   83SAPS  H13X 7862   2.830   4.169   9.204 -0.3338 -0.7174 -1.9361
   83SAPS  H13Y 7863   2.764   4.315   9.134  1.4334 -1.0118  1.3160
   83SAPS  C314 7864   2.702   4.139   9.038  0.2564  0.3084 -1.6420
   83SAPS  H14X 7865   2.790   4.129   8.972  0.4305 -3.0131 -0.9915
   83SAPS  H14Y 7866   2.614   4.191   8.994 -1.2910  0.3418  1.3401
   83SAPS  C315 7867   2.664   3.992   9.067 -0.4777  0.3295  0.0613
   83SAPS  H15X 7868   2.554   3.982   9.080 -0.4844  1.4121  0.8978
   83SAPS  H15Y 7869   2.716   3.954   9.158 -0.9591 -1.5286 -0.4205
   83SAPS  C316 7870   2.683   3.898   8.942 -0.3262  0.1623  0.1179
   83SAPS  H16X 7871   2.787   3.912   8.905 -0.4553  0.6361 -0.0679
   83SAPS  H16Y 7872   2.617   3.940   8.863  1.0443  0.7331 -0.7469
   83SAPS  C317 7873   2.633   3.758   8.973 -0.0696 -0.0125  0.1249
   83SAPS  H17X 7874   2.523   3.746   8.962 -0.5238  2.3598  1.5499
   83SAPS  H17Y 7875   2.662   3.749   9.080 -0.6009 -2.3007  0.1096
   83SAPS  C318 7876   2.706   3.657   8.891 -0.3061 -0.3358  0.1896
   83SAPS  H18X 7877   2.811   3.649   8.926 -0.3264 -0.5845  0.1894
   83SAPS  H18Y 7878   2.710   3.692   8.785  0.3281  1.7239  0.8643
   83SAPS  H18Z 7879   2.656   3.558   8.894  0.7651 -0.9212 -0.8248
   84SAPS     N 7880   4.202   3.809  11.486 -0.0971 -0.3181  1.1878
   84SAPS   HN1 7881   4.236   3.743  11.559  0.1111  0.5809  1.9150
   84SAPS   HN2 7882   4.222   3.771  11.392 -1.8964 -0.6985  0.9387
   84SAPS   HN3 7883   4.254   3.899  11.489 -0.1049 -0.2984  0.7455
   84SAPS   C12 7884   4.053   3.817  11.485  0.6053 -0.4437 -0.9928
   84SAPS  H12A 7885   4.019   3.725  11.530  3.4188 -0.7747  0.5919
   84SAPS   C13 7886   3.983   3.936  11.558  0.0993 -0.9902  0.1351
   84SAPS  O13A 7887   4.061   4.012  11.622  0.4645  0.0135  0.3607
   84SAPS  O13B 7888   3.858   3.925  11.588 -0.1508 -0.0063  0.5938
   84SAPS   C11 7889   3.998   3.805  11.341 -0.3512  0.3960 -0.0946
   84SAPS  H11A 7890   3.894   3.844  11.342 -0.5823 -0.1897 -0.8327
   84SAPS  H11B 7891   4.004   3.697  11.317 -1.2252  0.3567 -0.1299
   84SAPS     P 7892   4.024   3.939  11.109  0.1142  0.0883 -0.0875
   84SAPS   O13 7893   3.887   3.984  11.113 -0.1505  0.0714  0.3283
   84SAPS   O14 7894   4.129   4.033  11.062  0.6906  0.3135 -0.2704
   84SAPS   O12 7895   4.081   3.873  11.246  0.1580  0.3156  0.1922
   84SAPS   O11 7896   4.034   3.813  11.020  0.9280 -0.0707 -0.1605
   84SAPS    C1 7897   4.130   3.715  11.042  0.2893  0.0429 -0.2313
   84SAPS    HA 7898   4.227   3.769  11.036  1.0506 -1.1081  1.3384
   84SAPS    HB 7899   4.112   3.674  11.144 -1.8048 -0.2249 -0.6920
   84SAPS    C2 7900   4.134   3.601  10.933  0.4262  0.1126  0.2113
   84SAPS    HS 7901   4.222   3.540  10.962 -1.5062 -2.9696 -0.1965
   84SAPS   O21 7902   4.136   3.663  10.804  0.2649  0.5114 -0.4516
   84SAPS   C21 7903   4.185   3.590  10.704  0.6448  1.1904 -1.2297
   84SAPS   O22 7904   4.242   3.481  10.713  0.0350 -0.7702  0.2875
   84SAPS   C22 7905   4.152   3.665  10.583  0.2457 -0.3365  0.1006
   84SAPS   H2R 7906   4.043   3.686  10.591  0.4226  0.3986  0.6427
   84SAPS   H2S 7907   4.203   3.763  10.590 -2.5762  1.2298 -0.2892
   84SAPS    C3 7908   4.010   3.507  10.955 -0.1138  0.2524  0.2550
   84SAPS    HX 7909   3.918   3.568  10.942 -0.8983 -0.5487  1.9506
   84SAPS    HY 7910   4.006   3.485  11.063 -2.9142 -1.6853 -0.1992
   84SAPS   O31 7911   4.013   3.390  10.872 -0.0129 -0.2117  0.6303
   84SAPS   C31 7912   3.943   3.402  10.762  0.2020  0.6951  0.1758
   84SAPS   O32 7913   3.875   3.501  10.727 -0.0348  0.2960 -0.3670
   84SAPS   C32 7914   3.956   3.272  10.688 -0.1537 -0.2787  0.2790
   84SAPS   H2X 7915   3.905   3.203  10.758 -1.1612  0.7871  0.6052
   84SAPS   H2Y 7916   4.063   3.241  10.683 -0.5252 -1.3504 -1.2122
   84SAPS   C23 7917   4.169   3.593  10.452 -0.1885 -0.5833 -0.2270
   84SAPS   H3R 7918   4.116   3.495  10.454  1.4404 -1.4851 -0.3917
   84SAPS   H3S 7919   4.277   3.567  10.449 -0.4469 -1.5788 -3.2215
   84SAPS   C24 7920   4.129   3.667  10.324  0.5332 -0.2555 -0.0616
   84SAPS   H4R 7921   4.168   3.616  10.233 -1.4412  1.5255 -1.9340
   84SAPS   H4S 7922   4.177   3.767  10.331  1.0887 -0.5568  0.4450
   84SAPS   C25 7923   3.983   3.699  10.312 -0.3139  0.3064  0.8799
   84SAPS   H5R 7924   3.964   3.767  10.397 -0.2849 -0.4439  1.4874
   84SAPS   C26 7925   3.900   3.680  10.205 -0.8683  0.4563  0.0729
   84SAPS   H6R 7926   3.794   3.709  10.208 -1.0753 -0.1660 -1.1591
   84SAPS   C27 7927   3.940   3.607  10.077 -0.2997  0.0999  0.2390
   84SAPS   H7R 7928   3.847   3.584  10.020 -0.3167 -1.9712  1.0562
   84SAPS   H7S 7929   3.957   3.498  10.092 -0.8449  0.1257  1.0208
   84SAPS   C28 7930   4.051   3.666   9.987  0.0528 -0.2206  0.5140
   84SAPS   H8R 7931   4.144   3.703  10.033 -1.1125 -0.8069  3.4922
   84SAPS   C29 7932   4.045   3.684   9.855 -0.3604 -0.0426 -0.2296
   84SAPS   H9R 7933   4.114   3.752   9.803  1.6183 -0.6838  1.5073
   84SAPS  C210 7934   3.927   3.644   9.767  0.7654  0.2093  0.4016
   84SAPS  H10R 7935   3.838   3.616   9.827  1.1399 -0.0600  0.8438
   84SAPS  H10S 7936   3.960   3.541   9.740  2.1464  0.2195  1.9349
   84SAPS  C211 7937   3.898   3.718   9.642  0.1375  0.2892  0.5767
   84SAPS  H11R 7938   3.822   3.796   9.659  0.0479  0.5325 -0.8577
   84SAPS  C212 7939   3.951   3.696   9.518  1.1853  0.0106  0.9910
   84SAPS  H12R 7940   3.919   3.756   9.432 -1.0530 -1.4142  0.7737
   84SAPS  C213 7941   4.052   3.592   9.481 -0.1157  0.1457 -0.0961
   84SAPS  H13R 7942   3.991   3.515   9.429  0.3140  0.6429 -1.3556
   84SAPS  H13S 7943   4.097   3.533   9.564  0.4969  0.2316 -0.3659
   84SAPS  C214 7944   4.166   3.660   9.402  0.2895 -0.4096  0.4820
   84SAPS  H14R 7945   4.243   3.721   9.452 -0.6816  0.3163  1.1185
   84SAPS  C215 7946   4.179   3.669   9.265 -0.0292  0.4860 -0.2581
   84SAPS  H15R 7947   4.267   3.717   9.221 -1.8897  1.5426 -2.9150
   84SAPS  C216 7948   4.079   3.614   9.159  0.1115  0.4329  0.3794
   84SAPS  H16R 7949   4.019   3.694   9.111  0.4759 -0.2582 -1.2449
   84SAPS  H16S 7950   4.001   3.563   9.220  2.1426  0.3016  2.9713
   84SAPS  C217 7951   4.159   3.537   9.058  0.0481 -0.7348 -0.0079
   84SAPS  H17R 7952   4.235   3.472   9.106  0.5351 -1.4149 -1.6328
   84SAPS  H17S 7953   4.223   3.616   9.011 -0.8499 -0.5490 -0.9376
   84SAPS  C218 7954   4.079   3.460   8.951  0.1512 -0.3537 -0.0232
   84SAPS  H18R 7955   3.985   3.512   8.923 -0.3391 -1.0949  0.2610
   84SAPS  H18S 7956   4.060   3.359   8.993 -2.4112 -0.2492 -0.8824
   84SAPS  C219 7957   4.162   3.469   8.827 -0.3344  0.5613  0.1453
   84SAPS  H19R 7958   4.260   3.422   8.848 -0.3237  0.5764  0.1263
   84SAPS  H19S 7959   4.181   3.572   8.792  1.1772  0.1598 -0.2727
   84SAPS  C220 7960   4.099   3.373   8.723  0.1119 -0.4325  0.6137
   84SAPS  H20R 7961   4.150   3.387   8.626  0.8857  0.9762  1.2118
   84SAPS  H20S 7962   3.994   3.403   8.703  0.2765  0.5719  1.2644
   84SAPS  H20T 7963   4.107   3.266   8.755 -0.0567 -0.7713 -0.4676
   84SAPS   C33 7964   3.891   3.267  10.542 -0.3832  0.2477 -0.3609
   84SAPS   H3X 7965   3.970   3.319  10.484  0.9429  0.0624  1.2346
   84SAPS   H3Y 7966   3.801   3.328  10.522 -0.0241  1.6655  2.0763
   84SAPS   C34 7967   3.876   3.120  10.497 -0.2853  0.0796  0.4244
   84SAPS   H4X 7968   3.813   3.068  10.573 -0.7052 -2.2533 -1.4584
   84SAPS   H4Y 7969   3.980   3.082  10.498 -0.8645 -1.5575  0.1382
   84SAPS   C35 7970   3.808   3.094  10.363 -0.5331 -0.4665 -0.2761
   84SAPS   H5X 7971   3.709   3.145  10.364 -1.5981 -2.4397 -1.5683
   84SAPS   H5Y 7972   3.774   2.988  10.360 -0.6415 -0.4752  0.9506
   84SAPS   C36 7973   3.892   3.128  10.242 -0.4406  1.2987 -0.3347
   84SAPS   H6X 7974   3.981   3.062  10.243 -1.4976 -0.1551  2.4135
   84SAPS   H6Y 7975   3.927   3.233  10.252 -0.3619  1.3030 -0.6515
   84SAPS   C37 7976   3.825   3.112  10.103  0.0178  0.1353 -0.1593
   84SAPS   H7X 7977   3.811   3.005  10.079 -1.4900 -0.1896  2.0253
   84SAPS   H7Y 7978   3.894   3.141  10.021 -1.0261  2.5638 -0.2343
   84SAPS   C38 7979   3.693   3.198  10.084 -0.4578  0.2760 -0.0153
   84SAPS   H8X 7980   3.725   3.303  10.103 -1.3010  0.5975 -0.3395
   84SAPS   H8Y 7981   3.628   3.163  10.167  1.6420  0.9804  1.9749
   84SAPS   C39 7982   3.641   3.188   9.938  0.1765  0.0426 -0.2429
   84SAPS   H9X 7983   3.547   3.247   9.926  0.7422  1.1678  0.8478
   84SAPS   H9Y 7984   3.599   3.091   9.904 -2.0525  1.2320 -1.0215
   84SAPS  C310 7985   3.736   3.241   9.830 -0.1236  0.8107 -0.1827
   84SAPS  H10X 7986   3.826   3.176   9.819 -0.8692 -0.4897  1.2929
   84SAPS  H10Y 7987   3.773   3.340   9.865 -0.2257  0.3897  1.1369
   84SAPS  C311 7988   3.679   3.251   9.683  0.1498  0.2357  0.2311
   84SAPS  H11X 7989   3.590   3.318   9.683 -0.1608 -0.1637 -1.1116
   84SAPS  H11Y 7990   3.617   3.164   9.654  2.0438 -0.5616 -1.4830
   84SAPS  C312 7991   3.771   3.284   9.570 -0.4428  0.7425  0.3976
   84SAPS  H12X 7992   3.866   3.226   9.569  0.4451  2.1257  2.2412
   84SAPS  H12Y 7993   3.802   3.390   9.574 -0.1798  0.6451  0.9946
   84SAPS  C313 7994   3.701   3.244   9.434  0.6347 -0.0123  0.0508
   84SAPS  H13X 7995   3.600   3.291   9.432  1.8069  2.5522 -0.0338
   84SAPS  H13Y 7996   3.688   3.134   9.432  1.1327 -0.1136  1.3689
   84SAPS  C314 7997   3.773   3.291   9.308  1.4991  0.1532  0.3300
   84SAPS  H14X 7998   3.877   3.252   9.320  0.6279 -2.3572 -0.0073
   84SAPS  H14Y 7999   3.780   3.402   9.318 -1.7351  0.3784  0.6847
   84SAPS  C315 8000   3.718   3.223   9.186  0.0827 -0.3043  0.3393
   84SAPS  H15X 8001   3.612   3.253   9.172  0.5220  0.8821 -0.5059
   84SAPS  H15Y 8002   3.721   3.112   9.191 -1.6227 -0.5735 -3.3749
   84SAPS  C316 8003   3.797   3.249   9.062 -1.0598  0.5082  0.5923
   84SAPS  H16X 8004   3.903   3.214   9.056 -0.7767  1.7277 -1.9307
   84SAPS  H16Y 8005   3.800   3.355   9.028  0.2564  0.2232 -0.2248
   84SAPS  C317 8006   3.730   3.171   8.942 -0.2212 -0.0705 -0.5775
   84SAPS  H17X 8007   3.626   3.206   8.926 -1.5082 -2.1137  2.5395
   84SAPS  H17Y 8008   3.715   3.066   8.978  0.9534  0.0718  0.3621
   84SAPS  C318 8009   3.804   3.188   8.808  0.6502  0.8364 -0.5532
   84SAPS  H18X 8010   3.744   3.130   8.734  2.7749 -2.3538  0.1385
   84SAPS  H18Y 8011   3.907   3.146   8.810  0.4739  0.3464 -1.5380
   84SAPS  H18Z 8012   3.799   3.294   8.774  0.5521  0.4916 -1.6475
   85SAPS     N 8013   0.334   5.073  11.162 -0.6147  0.4172 -0.0144
   85SAPS   HN1 8014   0.261   5.047  11.232 -1.3092  3.4822  0.4779
   85SAPS   HN2 8015   0.402   4.999  11.137  0.5326  1.8325 -1.1750
   85SAPS   HN3 8016   0.389   5.147  11.211  0.1654  0.0746 -0.3606
   85SAPS   C12 8017   0.267   5.149  11.045 -0.9230 -0.5539 -0.3559
   85SAPS  H12A 8018   0.195   5.084  10.998 -2.2300 -0.9105  2.0812
   85SAPS   C13 8019   0.199   5.280  11.085  0.5123 -0.2758  0.1909
   85SAPS  O13A 8020   0.199   5.320  11.211  0.2516  0.0178  1.0056
   85SAPS  O13B 8021   0.122   5.338  11.004  0.4432 -0.1751 -1.2048
   85SAPS   C11 8022   0.374   5.202  10.943 -0.1434  0.4154 -0.3010
   85SAPS  H11A 8023   0.322   5.270  10.872  0.7023  3.0738  1.5409
   85SAPS  H11B 8024   0.404   5.109  10.890  0.7289  1.9299 -2.5548
   85SAPS     P 8025   0.630   5.210  11.023  0.0182 -0.0368  0.3192
   85SAPS   O13 8026   0.714   5.325  11.070  0.5151  0.3084  0.3796
   85SAPS   O14 8027   0.611   5.088  11.103 -0.6632  0.3424 -0.4022
   85SAPS   O12 8028   0.486   5.270  11.010  0.1409  0.7902  0.4306
   85SAPS   O11 8029   0.673   5.179  10.879  0.0147  0.4362  0.6571
   85SAPS    C1 8030   0.685   5.279  10.783 -0.5172 -0.9934  0.4025
   85SAPS    HA 8031   0.586   5.321  10.758  0.0785  0.0435 -0.2553
   85SAPS    HB 8032   0.735   5.364  10.835  0.0528 -0.9715 -0.1756
   85SAPS    C2 8033   0.758   5.233  10.654  0.0614  0.8227  0.0199
   85SAPS    HS 8034   0.868   5.237  10.664  0.1218  0.2306 -0.3562
   85SAPS   O21 8035   0.726   5.309  10.536 -0.4236  0.0206  0.1376
   85SAPS   C21 8036   0.774   5.433  10.550  0.7559 -0.1729 -0.0685
   85SAPS   O22 8037   0.856   5.472  10.632  0.0932 -0.5968  0.2526
   85SAPS   C22 8038   0.696   5.522  10.460  0.5089  0.4579  0.7172
   85SAPS   H2R 8039   0.591   5.489  10.443  1.1310 -1.6625  0.8399
   85SAPS   H2S 8040   0.703   5.626  10.497  0.9722  0.0765  1.7183
   85SAPS    C3 8041   0.734   5.079  10.621  0.9586 -0.7967 -0.0092
   85SAPS    HX 8042   0.624   5.072  10.637  0.6588  2.1471 -0.4555
   85SAPS    HY 8043   0.790   5.017  10.694 -0.6670 -2.2027  0.0691
   85SAPS   O31 8044   0.776   5.051  10.485 -0.0216 -0.0208 -0.0755
   85SAPS   C31 8045   0.907   5.038  10.472 -0.5878  0.4739 -0.4362
   85SAPS   O32 8046   0.995   5.047  10.557 -0.1641 -0.3186 -0.1420
   85SAPS   C32 8047   0.941   5.026  10.321  0.6234  0.2255  0.3217
   85SAPS   H2X 8048   0.844   5.018  10.267 -0.9500 -2.8918  3.4351
   85SAPS   H2Y 8049   0.991   4.929  10.302  0.9260  0.4060  0.1861
   85SAPS   C23 8050   0.750   5.513  10.313  0.2999  0.2414  0.2605
   85SAPS   H3R 8051   0.652   5.515  10.260 -0.9265  1.6571  2.5358
   85SAPS   H3S 8052   0.793   5.415  10.280  2.4937  0.5464  2.1056
   85SAPS   C24 8053   0.837   5.632  10.274 -1.4926 -0.4883 -0.2158
   85SAPS   H4R 8054   0.781   5.723  10.305  2.7591  1.0830  3.4081
   85SAPS   H4S 8055   0.850   5.646  10.165  0.0525  0.4857  0.0707
   85SAPS   C25 8056   0.978   5.627  10.343 -0.2595 -0.1595 -0.4687
   85SAPS   H5R 8057   0.987   5.679  10.439 -1.6572  1.1549 -1.0383
   85SAPS   C26 8058   1.097   5.602  10.290  0.1938 -0.0866  0.6674
   85SAPS   H6R 8059   1.189   5.604  10.351  1.6315 -2.8971 -1.3057
   85SAPS   C27 8060   1.115   5.554  10.142  0.1498 -0.5305 -0.2291
   85SAPS   H7R 8061   1.019   5.508  10.108  0.5889 -1.8672  0.3295
   85SAPS   H7S 8062   1.198   5.481  10.145  0.8079  0.2275  0.1773
   85SAPS   C28 8063   1.167   5.665  10.050  0.1914  0.0407  0.3210
   85SAPS   H8R 8064   1.225   5.741  10.105  0.2664  0.1211  0.1338
   85SAPS   C29 8065   1.142   5.682   9.916  0.5968 -0.6352  0.1368
   85SAPS   H9R 8066   1.178   5.774   9.869 -3.6198  0.2329 -1.6406
   85SAPS  C210 8067   1.058   5.596   9.832  0.1096 -0.2151 -0.0916
   85SAPS  H10R 8068   0.983   5.534   9.885  0.2562 -1.4705 -1.3297
   85SAPS  H10S 8069   1.130   5.528   9.783  0.8023  0.5316 -0.1235
   85SAPS  C211 8070   0.998   5.686   9.728 -0.5100  0.3521  0.4092
   85SAPS  H11R 8071   0.897   5.719   9.757 -1.2530 -1.6101  0.1265
   85SAPS  C212 8072   1.055   5.719   9.611 -0.4113 -0.3298  0.1155
   85SAPS  H12R 8073   0.997   5.790   9.550  0.3804  0.0196 -0.2496
   85SAPS  C213 8074   1.196   5.687   9.559 -0.4897 -0.4452  0.2184
   85SAPS  H13R 8075   1.264   5.667   9.644 -0.1909 -0.1620  0.0439
   85SAPS  H13S 8076   1.239   5.775   9.507  2.5804 -1.6473  0.6426
   85SAPS  C214 8077   1.190   5.568   9.464 -0.5330 -0.3672  0.1596
   85SAPS  H14R 8078   1.128   5.487   9.504  0.7744 -1.4261  0.0720
   85SAPS  C215 8079   1.254   5.548   9.343 -0.5211  1.0297 -0.3406
   85SAPS  H15R 8080   1.230   5.456   9.288  1.2332  1.3576 -1.6970
   85SAPS  C216 8081   1.352   5.630   9.267  0.4630 -0.4162  0.2620
   85SAPS  H16R 8082   1.452   5.585   9.286  0.1995 -1.1343 -0.0169
   85SAPS  H16S 8083   1.334   5.734   9.302  2.9049 -0.1724  0.8732
   85SAPS  C217 8084   1.326   5.637   9.112  0.9141  0.0170 -0.0116
   85SAPS  H17R 8085   1.218   5.654   9.096  0.8077 -0.8373 -0.2466
   85SAPS  H17S 8086   1.352   5.543   9.058  0.6629  0.2938 -0.6184
   85SAPS  C218 8087   1.396   5.753   9.040  0.2178 -0.3203 -0.4631
   85SAPS  H18R 8088   1.506   5.750   9.055  0.2237 -0.2737 -0.4968
   85SAPS  H18S 8089   1.357   5.854   9.066 -2.6915 -0.8220 -2.6240
   85SAPS  C219 8090   1.384   5.730   8.887 -0.1643  0.3051  0.3367
   85SAPS  H19R 8091   1.277   5.744   8.860 -0.6756 -1.3681  1.3948
   85SAPS  H19S 8092   1.413   5.624   8.866  0.1354  0.1198  1.6841
   85SAPS  C220 8093   1.475   5.829   8.808  0.3545 -0.1297  0.0917
   85SAPS  H20R 8094   1.579   5.804   8.836 -0.3791 -1.2746  1.8817
   85SAPS  H20S 8095   1.442   5.933   8.827 -1.3718 -1.0345  2.2875
   85SAPS  H20T 8096   1.477   5.808   8.699 -0.5774  1.1462 -0.1865
   85SAPS   C33 8097   1.043   5.126  10.255  0.4273  0.4342 -0.0858
   85SAPS   H3X 8098   1.143   5.078  10.267 -0.5793 -0.9865  2.8759
   85SAPS   H3Y 8099   1.056   5.212  10.325  0.4703  0.7361 -0.4631
   85SAPS   C34 8100   1.018   5.173  10.116 -0.2145  0.8398 -0.6154
   85SAPS   H4X 8101   1.095   5.247  10.085  0.4105  0.9802  1.2229
   85SAPS   H4Y 8102   0.920   5.225  10.109  0.8378  2.9182 -0.3682
   85SAPS   C35 8103   1.039   5.055  10.018  0.0538 -0.2571 -1.1120
   85SAPS   H5X 8104   0.961   4.979  10.036  0.4457  0.0483  2.0447
   85SAPS   H5Y 8105   1.134   4.999  10.030 -0.9003 -1.2494  2.1466
   85SAPS   C36 8106   1.020   5.098   9.873  0.1783  0.3876  0.4630
   85SAPS   H6X 8107   1.082   5.185   9.843  1.2736 -0.0843  1.3129
   85SAPS   H6Y 8108   0.913   5.117   9.854  0.0028 -2.3174 -1.4890
   85SAPS   C37 8109   1.052   4.985   9.778  0.3877 -0.4207 -0.2358
   85SAPS   H7X 8110   0.976   4.905   9.791 -0.4771 -0.0013 -2.4392
   85SAPS   H7Y 8111   1.154   4.949   9.804  1.0499  2.7255  1.7497
   85SAPS   C38 8112   1.039   5.031   9.631  1.0610 -0.3502 -0.7958
   85SAPS   H8X 8113   1.124   5.097   9.603 -1.3703  2.4266 -1.7365
   85SAPS   H8Y 8114   0.947   5.090   9.614  1.3260 -0.4758 -2.7669
   85SAPS   C39 8115   1.030   4.912   9.532  0.0742  0.1502 -0.7384
   85SAPS   H9X 8116   0.929   4.867   9.546  0.5838 -1.0284 -0.7650
   85SAPS   H9Y 8117   1.105   4.836   9.565  0.5489  1.2768  0.8087
   85SAPS  C310 8118   1.051   4.953   9.390  0.2607  0.4348  0.6190
   85SAPS  H10X 8119   1.080   4.866   9.328 -0.4194 -0.9970  2.2730
   85SAPS  H10Y 8120   1.140   5.019   9.379 -0.0785  0.5910 -1.2775
   85SAPS  C311 8121   0.939   5.030   9.316 -0.1505  0.8280  0.3612
   85SAPS  H11X 8122   0.950   5.139   9.337  0.3748  1.0544 -1.0073
   85SAPS  H11Y 8123   0.852   4.987   9.369 -2.2587 -0.6429 -4.0508
   85SAPS  C312 8124   0.920   5.000   9.167  0.6437 -0.4638 -0.6390
   85SAPS  H12X 8125   0.835   5.059   9.125  0.1759 -1.6202 -1.3473
   85SAPS  H12Y 8126   0.891   4.893   9.160 -0.1024 -0.3576  0.6131
   85SAPS  C313 8127   1.044   5.029   9.081  0.0787  0.0852  0.3984
   85SAPS  H13X 8128   1.112   4.943   9.096  0.7205  0.0259 -2.5085
   85SAPS  H13Y 8129   1.101   5.120   9.112  0.1485 -0.6499  2.4766
   85SAPS  C314 8130   1.002   5.034   8.932 -0.1764 -0.9473  0.1431
   85SAPS  H14X 8131   0.930   5.119   8.919  1.4435 -0.0585 -3.3775
   85SAPS  H14Y 8132   0.962   4.932   8.913  0.0990 -1.0529  0.1363
   85SAPS  C315 8133   1.118   5.070   8.840 -0.4073 -0.2295 -0.6771
   85SAPS  H15X 8134   1.193   4.989   8.828 -0.2465 -0.0960 -0.5773
   85SAPS  H15Y 8135   1.179   5.148   8.889 -1.6167  0.6203 -0.4894
   85SAPS  C316 8136   1.080   5.143   8.710 -0.0210 -0.6410  0.1168
   85SAPS  H16X 8137   1.004   5.222   8.728 -0.3768 -1.4833  2.4315
   85SAPS  H16Y 8138   1.031   5.068   8.644  3.1284 -1.9401 -0.8389
   85SAPS  C317 8139   1.201   5.206   8.651 -0.0168 -0.3982  0.5583
   85SAPS  H17X 8140   1.295   5.148   8.646  0.7318  0.9974 -3.3049
   85SAPS  H17Y 8141   1.207   5.305   8.703 -1.4044  0.3614 -0.6873
   85SAPS  C318 8142   1.167   5.244   8.501 -0.3242  0.0003  0.1513
   85SAPS  H18X 8143   1.249   5.288   8.440 -0.2222  0.5801  0.7095
   85SAPS  H18Y 8144   1.082   5.316   8.502  0.7909  1.3252  0.7210
   85SAPS  H18Z 8145   1.147   5.153   8.440 -0.5792  1.0299 -1.3352
   86SAPS     N 8146   2.477   5.572  11.006 -0.1668 -0.5842 -0.0854
   86SAPS   HN1 8147   2.445   5.635  11.083  1.4160  0.2104 -0.0699
   86SAPS   HN2 8148   2.486   5.621  10.915  1.1634 -0.4182  0.1361
   86SAPS   HN3 8149   2.414   5.489  10.995  1.4005 -2.0591  1.6607
   86SAPS   C12 8150   2.609   5.528  11.043 -0.5991  0.6484  0.5078
   86SAPS  H12A 8151   2.685   5.604  11.047 -0.9565  0.9186  2.6979
   86SAPS   C13 8152   2.621   5.455  11.175  0.8390 -0.0853  0.0734
   86SAPS  O13A 8153   2.525   5.456  11.261 -0.0927 -0.0825  0.6197
   86SAPS  O13B 8154   2.740   5.433  11.212  0.7532 -0.2312 -0.4431
   86SAPS   C11 8155   2.659   5.435  10.933 -0.4538 -0.0831 -0.1997
   86SAPS  H11A 8156   2.762   5.402  10.954 -0.0966 -0.4806 -2.3852
   86SAPS  H11B 8157   2.687   5.497  10.845 -0.6542 -2.7104 -2.1809
   86SAPS     P 8158   2.562   5.227  10.791  0.6575 -0.3716  0.0845
   86SAPS   O13 8159   2.633   5.103  10.836 -0.1132 -0.2343  0.8612
   86SAPS   O14 8160   2.435   5.224  10.711 -0.1960  0.5650 -0.5253
   86SAPS   O12 8161   2.562   5.325  10.915 -0.2390  0.3190  0.7555
   86SAPS   O11 8162   2.664   5.297  10.699 -0.5635 -0.0092  0.3717
   86SAPS    C1 8163   2.640   5.354  10.579  0.2887 -0.3531 -0.4090
   86SAPS    HA 8164   2.534   5.349  10.547 -0.0263 -0.8753  0.6575
   86SAPS    HB 8165   2.652   5.464  10.588 -2.4222  0.1833 -2.8346
   86SAPS    C2 8166   2.730   5.303  10.463 -0.3530 -0.1241  0.4300
   86SAPS    HS 8167   2.801   5.383  10.432  1.6411 -1.2607  2.0288
   86SAPS   O21 8168   2.652   5.250  10.356  0.3023  0.0355  0.1225
   86SAPS   C21 8169   2.586   5.335  10.285 -0.0023  0.0471 -0.4383
   86SAPS   O22 8170   2.590   5.457  10.293  0.2198 -0.1310 -0.4516
   86SAPS   C22 8171   2.494   5.261  10.191 -0.2683  0.2086 -0.5525
   86SAPS   H2R 8172   2.547   5.169  10.156 -2.6331 -1.0740 -0.8340
   86SAPS   H2S 8173   2.405   5.217  10.242 -1.5581  0.2629 -2.7217
   86SAPS    C3 8174   2.815   5.186  10.515 -0.2480 -0.6949  0.6773
   86SAPS    HX 8175   2.732   5.119  10.548 -2.2519  1.5595  0.3537
   86SAPS    HY 8176   2.886   5.225  10.591  0.5512  1.4087 -1.0860
   86SAPS   O31 8177   2.876   5.119  10.406  0.3397  0.1908 -0.3838
   86SAPS   C31 8178   3.004   5.077  10.425  0.1750  0.2085 -0.2750
   86SAPS   O32 8179   3.058   5.072  10.533  0.2619 -1.0901  0.1877
   86SAPS   C32 8180   3.054   5.010  10.293 -0.3957  0.1391  0.9554
   86SAPS   H2X 8181   3.057   5.085  10.210  3.0910 -1.2445 -0.2950
   86SAPS   H2Y 8182   2.980   4.932  10.266  0.4115  0.0172 -1.0507
   86SAPS   C23 8183   2.461   5.345  10.067 -0.3070 -0.1706 -0.5087
   86SAPS   H3R 8184   2.553   5.386  10.020 -0.0589 -2.3960 -2.0410
   86SAPS   H3S 8185   2.392   5.427  10.097  2.0256  0.9882  1.8771
   86SAPS   C24 8186   2.396   5.263   9.953  0.3498 -0.3412 -0.9446
   86SAPS   H4R 8187   2.308   5.215  10.001  1.0395 -0.6866 -0.0156
   86SAPS   H4S 8188   2.472   5.191   9.915  0.7219  0.2318 -1.2880
   86SAPS   C25 8189   2.346   5.345   9.833  0.0703 -0.0319  0.1544
   86SAPS   H5R 8190   2.257   5.402   9.862 -0.7580 -2.4763  2.5454
   86SAPS   C26 8191   2.390   5.359   9.704 -0.2335  0.0806  0.9983
   86SAPS   H6R 8192   2.333   5.421   9.632 -0.6474 -1.1327  0.2671
   86SAPS   C27 8193   2.519   5.296   9.655 -1.0453 -0.3767 -0.4618
   86SAPS   H7R 8194   2.539   5.199   9.706  2.7239  0.4449 -0.2051
   86SAPS   H7S 8195   2.609   5.353   9.687 -2.1523  1.0139  0.2177
   86SAPS   C28 8196   2.509   5.291   9.503 -0.4721 -0.1713 -0.4564
   86SAPS   H8R 8197   2.453   5.201   9.475 -0.6798 -0.3341  0.4710
   86SAPS   C29 8198   2.574   5.360   9.406 -0.4987  0.2915 -1.3437
   86SAPS   H9R 8199   2.551   5.333   9.302 -1.3165 -1.1353 -0.7966
   86SAPS  C210 8200   2.662   5.485   9.433 -1.0801  0.6458 -0.1417
   86SAPS  H10R 8201   2.752   5.481   9.368  0.2973 -1.7618  1.8157
   86SAPS  H10S 8202   2.702   5.489   9.536 -0.4191 -0.9459 -0.3077
   86SAPS  C211 8203   2.581   5.609   9.413 -0.2401 -0.1982 -0.1313
   86SAPS  H11R 8204   2.507   5.623   9.493 -0.4053  3.1813 -0.8008
   86SAPS  C212 8205   2.583   5.696   9.309 -0.5816 -0.6455 -0.2579
   86SAPS  H12R 8206   2.496   5.764   9.314 -1.0239 -1.1453 -1.0371
   86SAPS  C213 8207   2.678   5.682   9.192  0.3205  0.2548 -0.1600
   86SAPS  H13R 8208   2.756   5.603   9.200  0.3625  0.0646 -2.1346
   86SAPS  H13S 8209   2.744   5.771   9.192  0.7426 -0.0530 -0.0437
   86SAPS  C214 8210   2.601   5.667   9.067  0.6168  0.0523 -0.4547
   86SAPS  H14R 8211   2.546   5.758   9.038 -1.4174 -0.1442  2.5003
   86SAPS  C215 8212   2.605   5.558   8.992  0.5241 -0.1895 -0.4517
   86SAPS  H15R 8213   2.556   5.547   8.894 -1.3788 -0.5084  0.5090
   86SAPS  C216 8214   2.684   5.437   9.020  0.5753  0.7282 -0.0819
   86SAPS  H16R 8215   2.659   5.390   9.117 -0.0111  2.4097  0.6069
   86SAPS  H16S 8216   2.794   5.457   9.014  0.7998 -0.6167 -0.6277
   86SAPS  C217 8217   2.659   5.322   8.918  0.8105 -0.0875  0.5485
   86SAPS  H17R 8218   2.682   5.368   8.819  0.5962  0.1208  0.5949
   86SAPS  H17S 8219   2.550   5.301   8.908  0.9068  0.2196 -1.2449
   86SAPS  C218 8220   2.730   5.196   8.942  0.6054 -0.2423 -0.2660
   86SAPS  H18R 8221   2.710   5.146   9.039  0.0925 -0.7258 -0.6212
   86SAPS  H18S 8222   2.840   5.215   8.943  0.6961 -0.7760  0.1850
   86SAPS  C219 8223   2.712   5.093   8.826 -0.5732 -0.0069  0.5664
   86SAPS  H19R 8224   2.802   5.028   8.837 -0.9914 -1.1499 -2.1568
   86SAPS  H19S 8225   2.708   5.145   8.728  1.3706 -2.3121 -0.8056
   86SAPS  C220 8226   2.590   5.005   8.839  0.2245 -0.5863 -0.0138
   86SAPS  H20R 8227   2.592   4.953   8.937 -1.8437 -0.2057  0.2467
   86SAPS  H20S 8228   2.581   4.926   8.761 -0.9753 -2.6963  2.1939
   86SAPS  H20T 8229   2.501   5.070   8.835  0.5589 -0.0362  1.5042
   86SAPS   C33 8230   3.193   4.960  10.319 -0.1433  0.1874 -0.3893
   86SAPS   H3X 8231   3.176   4.888  10.402 -1.3871  1.3262  0.3629
   86SAPS   H3Y 8232   3.258   5.044  10.350 -0.7444  0.3954  0.3339
   86SAPS   C34 8233   3.259   4.873  10.212  0.3495  0.1769 -0.3417
   86SAPS   H4X 8234   3.183   4.796  10.185 -0.5328  0.2594  1.7994
   86SAPS   H4Y 8235   3.351   4.819  10.244  0.1923  0.7661  1.1357
   86SAPS   C35 8236   3.279   4.962  10.087  0.1949  0.5866  0.2069
   86SAPS   H5X 8237   3.352   5.039  10.118  1.3290 -0.5051  0.2809
   86SAPS   H5Y 8238   3.182   4.997  10.046 -1.0108  0.5365  2.8945
   86SAPS   C36 8239   3.349   4.897   9.963 -0.1361  0.0457 -0.4038
   86SAPS   H6X 8240   3.275   4.821   9.929  2.1778 -1.9798 -1.0544
   86SAPS   H6Y 8241   3.434   4.834   9.994 -1.8612 -1.8279  0.6377
   86SAPS   C37 8242   3.386   5.002   9.852  0.5942  0.3384  0.5109
   86SAPS   H7X 8243   3.481   5.056   9.874 -0.0444  1.8027 -0.2849
   86SAPS   H7Y 8244   3.301   5.073   9.842  1.2911  1.0613 -0.3905
   86SAPS   C38 8245   3.406   4.941   9.713 -0.4868  0.0630  0.1679
   86SAPS   H8X 8246   3.508   4.897   9.720  0.1494  1.6687  1.2261
   86SAPS   H8Y 8247   3.402   5.024   9.640  0.4488  1.4907  1.6868
   86SAPS   C39 8248   3.307   4.837   9.664 -0.4212  0.0583 -0.0891
   86SAPS   H9X 8249   3.216   4.821   9.726 -0.2431 -1.5246 -0.2308
   86SAPS   H9Y 8250   3.358   4.741   9.684 -0.0272  0.0378 -1.1603
   86SAPS  C310 8251   3.273   4.851   9.516  0.3020 -0.2011  0.0517
   86SAPS  H10X 8252   3.216   4.946   9.504 -0.2252 -0.5228 -0.0515
   86SAPS  H10Y 8253   3.218   4.762   9.477  0.1491 -0.4133  0.7496
   86SAPS  C311 8254   3.405   4.869   9.430 -0.1395 -1.3115  0.0055
   86SAPS  H11X 8255   3.469   4.778   9.436 -0.6468 -1.6471  0.3898
   86SAPS  H11Y 8256   3.455   4.964   9.456 -0.9639 -1.2005  1.1738
   86SAPS  C312 8257   3.366   4.882   9.283  0.5597  0.8123 -0.1301
   86SAPS  H12X 8258   3.293   4.810   9.240  1.5410 -0.3123  0.0659
   86SAPS  H12Y 8259   3.455   4.865   9.219  1.4555 -1.6042  1.6890
   86SAPS  C313 8260   3.315   5.025   9.246 -0.9497  0.2364 -0.3561
   86SAPS  H13X 8261   3.402   5.093   9.259  0.9081 -2.1278 -0.2469
   86SAPS  H13Y 8262   3.230   5.049   9.314  0.7883  1.4714  1.4501
   86SAPS  C314 8263   3.267   5.032   9.096 -0.4194  0.6550  0.8674
   86SAPS  H14X 8264   3.190   4.954   9.077 -1.4085  0.8043  3.9637
   86SAPS  H14Y 8265   3.356   5.035   9.029 -1.7140  2.3563 -0.8261
   86SAPS  C315 8266   3.181   5.158   9.069  0.0126 -0.3849 -0.5918
   86SAPS  H15X 8267   3.097   5.161   9.142  0.7726  2.1262  0.2240
   86SAPS  H15Y 8268   3.135   5.154   8.968  1.4253  1.3663 -1.3314
   86SAPS  C316 8269   3.270   5.286   9.070 -0.2300 -0.0623 -0.6264
   86SAPS  H16X 8270   3.359   5.267   9.005 -0.5770 -4.0166 -0.0644
   86SAPS  H16Y 8271   3.307   5.302   9.173 -2.3351 -1.1806  0.3171
   86SAPS  C317 8272   3.188   5.410   9.017  0.3086 -0.2099  0.1895
   86SAPS  H17X 8273   3.132   5.381   8.926 -1.5062  1.6091  0.6906
   86SAPS  H17Y 8274   3.258   5.487   8.978  1.5794 -0.7711  1.3362
   86SAPS  C318 8275   3.098   5.456   9.129 -0.2291 -0.1558 -0.0090
   86SAPS  H18X 8276   3.040   5.545   9.095  0.8753  0.2989 -0.7384
   86SAPS  H18Y 8277   3.157   5.491   9.216  0.4280  0.7382 -0.7957
   86SAPS  H18Z 8278   3.030   5.373   9.157  1.7290 -1.4934  0.7960
   87SAPS     N 8279   3.639   6.497  11.037 -0.2541  0.0702  0.1863
   87SAPS   HN1 8280   3.645   6.445  10.947 -3.0733 -4.2593  2.3318
   87SAPS   HN2 8281   3.577   6.580  11.027 -0.0929  0.0495 -1.1130
   87SAPS   HN3 8282   3.734   6.530  11.060 -0.5114  2.0140 -1.3649
   87SAPS   C12 8283   3.572   6.414  11.135 -0.7130  0.0275  0.7583
   87SAPS  H12A 8284   3.633   6.326  11.146  1.7745  1.4238 -1.2965
   87SAPS   C13 8285   3.534   6.478  11.274  0.7171  0.3484 -0.2631
   87SAPS  O13A 8286   3.568   6.599  11.288  0.3063  0.2025  0.0689
   87SAPS  O13B 8287   3.458   6.415  11.351  0.2370  0.0499 -0.6057
   87SAPS   C11 8288   3.442   6.357  11.079 -0.0554 -0.4403  0.0472
   87SAPS  H11A 8289   3.374   6.445  11.078 -2.6975 -2.4245 -0.7092
   87SAPS  H11B 8290   3.391   6.286  11.148  1.4471  0.0969  1.7477
   87SAPS     P 8291   3.455   6.140  10.929 -0.4391  0.2268  0.0875
   87SAPS   O13 8292   3.522   6.115  10.801 -0.4712 -0.0680  0.2043
   87SAPS   O14 8293   3.521   6.086  11.051 -0.0310 -0.2538  0.3744
   87SAPS   O12 8294   3.449   6.300  10.951 -0.2734  0.3700  0.5541
   87SAPS   O11 8295   3.304   6.095  10.918 -1.0072  0.9548  0.3987
   87SAPS    C1 8296   3.219   6.181  10.837 -0.6590  0.2566 -0.4396
   87SAPS    HA 8297   3.190   6.275  10.888 -0.0230  0.7855 -1.0336
   87SAPS    HB 8298   3.273   6.216  10.746 -0.2102 -1.4159 -0.8460
   87SAPS    C2 8299   3.093   6.112  10.796 -0.3308 -0.3773 -0.0192
   87SAPS    HS 8300   3.064   6.053  10.885  1.0403 -2.5978 -0.9981
   87SAPS   O21 8301   3.118   6.022  10.689  0.7069 -0.0376 -0.1479
   87SAPS   C21 8302   3.026   5.930  10.674 -0.2192  0.1475  0.0986
   87SAPS   O22 8303   2.930   5.911  10.743  0.0067  0.3072 -0.3717
   87SAPS   C22 8304   3.055   5.857  10.542  0.2660  0.1192  0.0709
   87SAPS   H2R 8305   3.162   5.878  10.521  1.0941 -3.2473  0.5602
   87SAPS   H2S 8306   3.049   5.748  10.565 -0.5501 -0.4250 -2.5033
   87SAPS    C3 8307   2.975   6.206  10.762  0.3018  0.2361  0.3428
   87SAPS    HX 8308   2.969   6.273  10.851  0.5488  1.8486 -0.8210
   87SAPS    HY 8309   2.876   6.157  10.767 -0.5602  1.9283  0.4301
   87SAPS   O31 8310   2.995   6.275  10.630  0.0052 -0.3687 -0.1638
   87SAPS   C31 8311   2.935   6.392  10.630 -0.7569 -0.6189  0.6077
   87SAPS   O32 8312   2.851   6.434  10.708 -0.2411  0.6352  0.0453
   87SAPS   C32 8313   2.975   6.467  10.501 -0.9668  0.0887 -0.1983
   87SAPS   H2X 8314   2.915   6.414  10.424 -0.2168 -0.6925 -0.2543
   87SAPS   H2Y 8315   3.084   6.449  10.486 -0.8798  0.0577  0.4719
   87SAPS   C23 8316   2.951   5.901  10.435  0.0516  0.2785  0.3063
   87SAPS   H3R 8317   2.984   5.991  10.377 -0.3664 -0.2689 -0.7959
   87SAPS   H3S 8318   2.852   5.913  10.483 -0.3324 -0.4446 -0.2989
   87SAPS   C24 8319   2.920   5.798  10.324 -0.4240 -0.5693 -0.3528
   87SAPS   H4R 8320   2.824   5.834  10.281 -1.5990 -0.7048  2.0802
   87SAPS   H4S 8321   2.905   5.698  10.369 -0.7867 -0.2626  0.2180
   87SAPS   C25 8322   3.030   5.794  10.224 -0.1623  0.3845  0.2165
   87SAPS   H5R 8323   3.080   5.889  10.205  0.7309 -0.2814 -0.7963
   87SAPS   C26 8324   3.061   5.686  10.142  0.1691 -0.2857  0.2009
   87SAPS   H6R 8325   3.144   5.691  10.070 -0.5217 -2.0691 -0.7411
   87SAPS   C27 8326   2.986   5.560  10.135  0.1421  0.2177  0.2359
   87SAPS   H7R 8327   2.891   5.562  10.192 -0.5782  0.1942 -0.9540
   87SAPS   H7S 8328   3.039   5.475  10.184  0.2630  0.2176  0.1049
   87SAPS   C28 8329   2.945   5.535   9.996 -0.6764  0.2117  0.9762
   87SAPS   H8R 8330   2.918   5.625   9.939  0.5254 -0.0584 -0.0401
   87SAPS   C29 8331   2.936   5.415   9.931  0.1351  0.2112 -0.0703
   87SAPS   H9R 8332   2.908   5.419   9.824 -0.6029 -0.2303  0.0968
   87SAPS  C210 8333   2.949   5.275   9.980 -0.2043  0.0408  0.3218
   87SAPS  H10R 8334   2.999   5.274  10.079 -0.5252 -0.3527  0.4818
   87SAPS  H10S 8335   3.021   5.212   9.924 -2.0722 -1.5527 -0.3599
   87SAPS  C211 8336   2.818   5.199   9.997 -0.8170 -0.1542 -0.2322
   87SAPS  H11R 8337   2.735   5.265  10.026  0.3643  1.5464 -0.6231
   87SAPS  C212 8338   2.801   5.068   9.991  0.5273 -0.2572 -0.1424
   87SAPS  H12R 8339   2.708   5.027  10.034  1.6405 -3.7371 -0.9179
   87SAPS  C213 8340   2.905   4.958   9.957  0.1612 -0.2609  0.6251
   87SAPS  H13R 8341   2.947   4.913  10.050  1.0626 -0.0035  0.3488
   87SAPS  H13S 8342   2.995   5.000   9.909  2.1620 -0.2994  4.1467
   87SAPS  C214 8343   2.831   4.856   9.869  0.1321 -0.2722  0.6482
   87SAPS  H14R 8344   2.803   4.899   9.772 -0.4507  1.4651  1.5510
   87SAPS  C215 8345   2.808   4.726   9.896  0.2448 -0.5344 -0.4231
   87SAPS  H15R 8346   2.749   4.660   9.831 -0.6245 -2.4880  2.3010
   87SAPS  C216 8347   2.853   4.671  10.021 -0.4072 -0.5034 -0.4210
   87SAPS  H16R 8348   2.774   4.599  10.051 -1.0305  1.1681  2.1788
   87SAPS  H16S 8349   2.854   4.737  10.110  1.2687  1.9884 -2.2195
   87SAPS  C217 8350   2.988   4.605  10.000  0.0455 -0.0326  0.0169
   87SAPS  H17R 8351   3.069   4.668   9.958  0.7337 -0.1448  1.1722
   87SAPS  H17S 8352   2.982   4.523   9.926  0.4699 -0.8613  0.8862
   87SAPS  C218 8353   3.036   4.528  10.126 -0.8483  0.5591 -0.5432
   87SAPS  H18R 8354   2.958   4.466  10.174 -1.0201  2.4618  1.7143
   87SAPS  H18S 8355   3.062   4.604  10.202 -2.7884  1.0958 -0.3958
   87SAPS  C219 8356   3.157   4.445  10.093 -0.3835  0.2813 -0.0953
   87SAPS  H19R 8357   3.229   4.523  10.059  0.1926 -0.3201 -0.2786
   87SAPS  H19S 8358   3.118   4.385  10.008 -3.9116 -0.7974  2.2094
   87SAPS  C220 8359   3.216   4.366  10.210  0.1493  0.3722  0.0014
   87SAPS  H20R 8360   3.222   4.433  10.298 -1.0000  1.3190 -0.6351
   87SAPS  H20S 8361   3.323   4.345  10.186 -0.2997 -0.0894 -1.6899
   87SAPS  H20T 8362   3.164   4.273  10.242 -1.3394  1.4065  0.6057
   87SAPS   C33 8363   2.938   6.620  10.501  0.0207  0.5425 -0.8042
   87SAPS   H3X 8364   2.988   6.665  10.590  2.6099  0.2119 -2.0394
   87SAPS   H3Y 8365   2.829   6.617  10.522 -0.1974 -2.3410 -2.1586
   87SAPS   C34 8366   2.960   6.692  10.372 -0.9207  0.6911  0.0515
   87SAPS   H4X 8367   2.916   6.793  10.382 -0.6520  1.0099 -1.8457
   87SAPS   H4Y 8368   2.904   6.638  10.292 -0.7479  0.7807 -0.1287
   87SAPS   C35 8369   3.101   6.701  10.319  0.1725 -0.3234  0.0212
   87SAPS   H5X 8370   3.153   6.603  10.313  0.6608 -0.0324 -0.6181
   87SAPS   H5Y 8371   3.164   6.759  10.390  0.8827  0.5329 -1.2922
   87SAPS   C36 8372   3.120   6.773  10.182  0.9044 -0.2407 -0.2242
   87SAPS   H6X 8373   3.227   6.776  10.150  0.6279 -0.2252 -1.1520
   87SAPS   H6Y 8374   3.086   6.878  10.198 -1.7126 -0.7728 -2.0925
   87SAPS   C37 8375   3.028   6.715  10.073 -0.1193 -0.2586 -0.3102
   87SAPS   H7X 8376   2.920   6.715  10.099 -0.2489 -3.4406 -0.6532
   87SAPS   H7Y 8377   3.049   6.606  10.067 -3.1442 -0.7957 -1.8654
   87SAPS   C38 8378   3.048   6.765   9.928  1.1375  0.6204  0.6547
   87SAPS   H8X 8379   2.982   6.708   9.860  1.0914  0.3715  0.9034
   87SAPS   H8Y 8380   3.153   6.741   9.903  0.7062 -1.5620  0.8641
   87SAPS   C39 8381   3.028   6.918   9.907  0.6614  0.6531  0.3577
   87SAPS   H9X 8382   3.122   6.967   9.941  1.8816 -0.8219 -0.8187
   87SAPS   H9Y 8383   2.942   6.959   9.965  0.6257  0.5985  0.3425
   87SAPS  C310 8384   2.990   6.965   9.761  0.2445  0.5661  0.0170
   87SAPS  H10X 8385   2.918   7.050   9.765 -1.2436 -0.6168 -1.2676
   87SAPS  H10Y 8386   2.919   6.892   9.717  0.9406 -0.4520  0.5717
   87SAPS  C311 8387   3.105   6.980   9.669  0.5516 -0.4406  0.1896
   87SAPS  H11X 8388   3.178   6.897   9.679 -1.9060 -2.7814 -0.7370
   87SAPS  H11Y 8389   3.148   7.082   9.679 -1.2833  0.3822 -0.1207
   87SAPS  C312 8390   3.074   6.957   9.517 -0.0356  0.3882 -0.3761
   87SAPS  H12X 8391   2.981   7.009   9.485 -1.7630 -1.2148  1.8408
   87SAPS  H12Y 8392   3.043   6.850   9.518  0.7152  0.1671 -0.5833
   87SAPS  C313 8393   3.192   6.986   9.425  0.0116  0.1168 -0.0323
   87SAPS  H13X 8394   3.266   6.903   9.424  0.2576  0.3044  1.2485
   87SAPS  H13Y 8395   3.251   7.074   9.457  1.3907 -0.3120 -1.3083
   87SAPS  C314 8396   3.150   7.000   9.272 -0.0110  0.0927  0.4607
   87SAPS  H14X 8397   3.096   7.096   9.263 -0.3935 -0.1973 -0.3758
   87SAPS  H14Y 8398   3.088   6.912   9.243 -0.7141  1.2918 -1.7476
   87SAPS  C315 8399   3.271   7.007   9.169 -0.4139 -0.6108  0.0725
   87SAPS  H15X 8400   3.322   6.909   9.168  0.4329 -0.1668 -1.0642
   87SAPS  H15Y 8401   3.340   7.086   9.205 -1.8929  0.3758  0.8332
   87SAPS  C316 8402   3.236   7.053   9.027  0.3587 -0.3164 -0.1926
   87SAPS  H16X 8403   3.175   7.145   9.030  1.8296  0.6593  0.0241
   87SAPS  H16Y 8404   3.164   6.976   8.991 -0.1914  1.0127 -1.9773
   87SAPS  C317 8405   3.359   7.081   8.933  0.1553 -0.8235 -0.3051
   87SAPS  H17X 8406   3.408   6.982   8.923 -1.5391 -1.4204 -3.3044
   87SAPS  H17Y 8407   3.423   7.160   8.976  0.2023 -0.5461 -0.8881
   87SAPS  C318 8408   3.309   7.108   8.790  0.1766 -0.5264  0.7083
   87SAPS  H18X 8409   3.239   7.024   8.771 -1.6397  0.7414  1.5358
   87SAPS  H18Y 8410   3.402   7.101   8.730  0.0187  1.1210  0.2507
   87SAPS  H18Z 8411   3.262   7.208   8.778  1.1833 -0.2530 -0.9372
   88SAPS     N 8412   5.298   5.017  10.522  0.2666 -0.2870 -0.5429
   88SAPS   HN1 8413   5.390   4.970  10.517  0.7522  0.6587 -0.5161
   88SAPS   HN2 8414   5.217   4.959  10.492  0.7919 -1.4200  0.2203
   88SAPS   HN3 8415   5.297   5.101  10.461  0.0778  0.0040 -0.1424
   88SAPS   C12 8416   5.278   5.068  10.659 -0.1553 -0.1814  0.1432
   88SAPS  H12A 8417   5.359   5.137  10.676 -0.6678  0.9622 -1.9325
   88SAPS   C13 8418   5.140   5.137  10.692 -0.1941 -0.5608 -0.3140
   88SAPS  O13A 8419   5.046   5.146  10.607 -0.2561  0.1137  0.2712
   88SAPS  O13B 8420   5.133   5.198  10.803  0.0607 -0.2254  0.2103
   88SAPS   C11 8421   5.291   4.933  10.752 -0.6167 -0.0666 -0.1715
   88SAPS  H11A 8422   5.203   4.867  10.738 -1.2112  0.6355  0.2342
   88SAPS  H11B 8423   5.284   4.961  10.859  1.0751 -0.0906 -0.0328
   88SAPS     P 8424   5.483   4.765  10.831  0.3536  0.1968 -0.1526
   88SAPS   O13 8425   5.630   4.766  10.799 -0.0512 -0.4934  0.2327
   88SAPS   O14 8426   5.443   4.805  10.970 -0.2591 -0.2593 -0.4457
   88SAPS   O12 8427   5.413   4.860  10.725  0.2157  0.0188  0.5619
   88SAPS   O11 8428   5.418   4.628  10.797  0.1330  0.1800 -0.0279
   88SAPS    C1 8429   5.380   4.569  10.670  0.4041 -0.1288 -0.4298
   88SAPS    HA 8430   5.325   4.477  10.699 -0.5122  1.2010  2.1906
   88SAPS    HB 8431   5.317   4.637  10.610  1.6730  1.0610 -0.4344
   88SAPS    C2 8432   5.506   4.535  10.587 -0.5496 -0.6702 -0.3761
   88SAPS    HS 8433   5.558   4.632  10.568 -3.9099  1.0895 -1.1105
   88SAPS   O21 8434   5.470   4.480  10.457  0.3744  0.5056  0.0817
   88SAPS   C21 8435   5.417   4.565  10.374  0.1921  0.2750  0.1801
   88SAPS   O22 8436   5.408   4.686  10.392  0.2579  0.0034  0.8885
   88SAPS   C22 8437   5.380   4.487  10.247  0.4951  0.6215 -0.7525
   88SAPS   H2R 8438   5.371   4.378  10.269  1.9662  0.6838  0.2462
   88SAPS   H2S 8439   5.282   4.531  10.221  2.1915  4.4213 -0.9534
   88SAPS    C3 8440   5.610   4.437  10.642  0.2059  0.0681  0.6189
   88SAPS    HX 8441   5.554   4.341  10.643  0.8735 -0.3196  1.5202
   88SAPS    HY 8442   5.634   4.453  10.749 -1.9245 -1.5768  1.3897
   88SAPS   O31 8443   5.726   4.454  10.561 -0.2447 -0.0258  0.3853
   88SAPS   C31 8444   5.789   4.345  10.526  0.3907  0.1091  0.2959
   88SAPS   O32 8445   5.745   4.233  10.551  0.2691  0.0065 -0.4688
   88SAPS   C32 8446   5.918   4.382  10.445 -0.4250 -0.0484 -0.5298
   88SAPS   H2X 8447   6.005   4.379  10.513  1.3176 -0.9748 -2.7132
   88SAPS   H2Y 8448   5.912   4.489  10.417 -2.8669  0.5185  1.9280
   88SAPS   C23 8449   5.478   4.510  10.131  0.2287  0.4436 -0.3167
   88SAPS   H3R 8450   5.456   4.443  10.045  3.6176 -0.1169 -0.8206
   88SAPS   H3S 8451   5.580   4.496  10.171  0.2032 -0.5270 -0.5826
   88SAPS   C24 8452   5.473   4.660  10.072  0.4622  0.0588  0.1246
   88SAPS   H4R 8453   5.558   4.660  10.000 -0.0994 -1.8824 -0.5855
   88SAPS   H4S 8454   5.490   4.732  10.155 -1.1272 -1.9917  2.3075
   88SAPS   C25 8455   5.341   4.702  10.023  0.4852  0.1458  0.3613
   88SAPS   H5R 8456   5.279   4.759  10.094 -0.9272  0.7970 -1.3548
   88SAPS   C26 8457   5.286   4.667   9.904  0.0688 -0.1921  0.4701
   88SAPS   H6R 8458   5.183   4.700   9.884  0.8537  1.1519 -1.4599
   88SAPS   C27 8459   5.346   4.582   9.794  0.5365  0.4370 -0.3285
   88SAPS   H7R 8460   5.451   4.555   9.818  0.0866  0.8620  2.2570
   88SAPS   H7S 8461   5.357   4.634   9.696 -0.4353 -0.4558 -0.9174
   88SAPS   C28 8462   5.261   4.455   9.779  0.4288 -1.0177 -0.1776
   88SAPS   H8R 8463   5.268   4.390   9.867  2.3772 -0.2747  0.2283
   88SAPS   C29 8464   5.178   4.428   9.673  0.1584 -0.7768 -0.4627
   88SAPS   H9R 8465   5.126   4.331   9.667 -1.8095  0.3378 -1.9886
   88SAPS  C210 8466   5.167   4.516   9.555  0.2436 -0.0021  0.6508
   88SAPS  H10R 8467   5.268   4.522   9.509 -0.0022 -1.6716 -0.1599
   88SAPS  H10S 8468   5.125   4.613   9.588 -1.3482  0.7008 -3.1514
   88SAPS  C211 8469   5.064   4.463   9.456  0.1913  0.4590  0.6287
   88SAPS  H11R 8470   4.991   4.390   9.492  2.0523 -1.9600 -0.3619
   88SAPS  C212 8471   5.041   4.506   9.329  0.2251  0.6461 -0.2281
   88SAPS  H12R 8472   4.958   4.454   9.279  0.4811  0.2993 -0.2968
   88SAPS  C213 8473   5.122   4.605   9.244  0.6821 -0.5865  0.4649
   88SAPS  H13R 8474   5.229   4.606   9.273  0.8168 -1.1136  0.0101
   88SAPS  H13S 8475   5.087   4.707   9.270  2.4340 -0.9269  4.4227
   88SAPS  C214 8476   5.094   4.576   9.095 -0.9061 -0.5086 -0.2685
   88SAPS  H14R 8477   5.166   4.511   9.044  0.9232  1.2857 -0.0286
   88SAPS  C215 8478   4.993   4.634   9.023  0.4755  0.3022 -0.5507
   88SAPS  H15R 8479   4.984   4.623   8.914  1.7348 -1.2663 -0.5110
   88SAPS  C216 8480   4.895   4.725   9.078 -0.3238  0.1331  0.1699
   88SAPS  H16R 8481   4.908   4.828   9.039  1.6068 -0.7089 -1.4344
   88SAPS  H16S 8482   4.901   4.732   9.189 -0.2055 -1.2530  0.2553
   88SAPS  C217 8483   4.758   4.696   9.041 -0.1322 -0.9073  0.3514
   88SAPS  H17R 8484   4.750   4.656   8.938 -0.7283  2.2252 -0.8523
   88SAPS  H17S 8485   4.701   4.791   9.051  1.5528 -0.1142  3.0297
   88SAPS  C218 8486   4.697   4.601   9.137  0.6050 -0.5786 -0.2171
   88SAPS  H18R 8487   4.745   4.501   9.145  1.0420 -0.1621  3.0249
   88SAPS  H18S 8488   4.600   4.569   9.093 -0.0331  1.8341 -0.6228
   88SAPS  C219 8489   4.667   4.638   9.286 -0.4171  0.5578  0.1376
   88SAPS  H19R 8490   4.616   4.737   9.283 -0.1138  0.7562  1.3635
   88SAPS  H19S 8491   4.768   4.652   9.329 -0.0793 -2.1913  0.3354
   88SAPS  C220 8492   4.584   4.549   9.371  0.1750  0.3018 -0.3326
   88SAPS  H20R 8493   4.570   4.603   9.466 -2.3235 -0.3297 -0.3101
   88SAPS  H20S 8494   4.622   4.445   9.381 -0.1566  0.0949 -1.1375
   88SAPS  H20T 8495   4.481   4.543   9.330  0.2583  0.9593 -0.6430
   88SAPS   C33 8496   5.931   4.290  10.329 -0.1743 -0.0889  0.7081
   88SAPS   H3X 8497   5.849   4.305  10.257  0.4563  1.4627  0.3025
   88SAPS   H3Y 8498   5.924   4.187  10.371  1.4322 -0.9093 -0.9475
   88SAPS   C34 8499   6.065   4.306  10.251 -0.2503 -0.5865 -0.5744
   88SAPS   H4X 8500   6.144   4.321  10.327  0.4336 -3.2576 -0.7103
   88SAPS   H4Y 8501   6.061   4.404  10.197  1.3172 -0.6118 -0.7528
   88SAPS   C35 8502   6.083   4.184  10.155  0.3158 -0.4428  0.6683
   88SAPS   H5X 8503   6.013   4.102  10.182 -0.4543  0.3750  1.2088
   88SAPS   H5Y 8504   6.187   4.149  10.170  0.0704 -1.2167  0.5785
   88SAPS   C36 8505   6.069   4.222  10.005 -0.7538 -0.5447  0.3808
   88SAPS   H6X 8506   6.139   4.305   9.982  1.6393 -2.4254  0.6401
   88SAPS   H6Y 8507   5.974   4.278   9.994  0.8275  2.1592 -0.0341
   88SAPS   C37 8508   6.076   4.097   9.915  0.3751  0.1814 -0.2047
   88SAPS   H7X 8509   5.983   4.041   9.938  1.7760 -1.7675  0.8193
   88SAPS   H7Y 8510   6.170   4.046   9.943 -0.1050 -1.7703 -2.0246
   88SAPS   C38 8511   6.075   4.158   9.763  0.5653 -0.1800  0.4179
   88SAPS   H8X 8512   6.177   4.202   9.754  0.9598 -0.9151  1.2995
   88SAPS   H8Y 8513   5.996   4.236   9.771 -0.9998 -1.2037 -3.5610
   88SAPS   C39 8514   6.038   4.069   9.644  0.4845  0.4746  0.4540
   88SAPS   H9X 8515   5.943   4.095   9.593  0.4449  0.5529  0.5697
   88SAPS   H9Y 8516   6.023   3.968   9.687  4.1213  0.6650  2.3791
   88SAPS  C310 8517   6.154   4.082   9.546  0.2625  0.1611  1.0133
   88SAPS  H10X 8518   6.246   4.052   9.600 -0.8105 -2.6212  1.3948
   88SAPS  H10Y 8519   6.173   4.187   9.515  1.3059 -0.1343  0.6463
   88SAPS  C311 8520   6.142   3.983   9.432 -0.4843 -0.5609  0.0611
   88SAPS  H11X 8521   6.122   3.884   9.479  1.2509 -0.5396  0.9017
   88SAPS  H11Y 8522   6.243   3.965   9.389 -0.8635 -2.4903 -0.0431
   88SAPS  C312 8523   6.043   4.004   9.317  0.0448  0.5448 -0.2915
   88SAPS  H12X 8524   5.941   4.001   9.360 -0.1851 -0.8011 -0.9096
   88SAPS  H12Y 8525   6.052   3.914   9.252 -0.8420 -1.0456  1.7469
   88SAPS  C313 8526   6.079   4.126   9.230 -0.1016  0.3830  0.1940
   88SAPS  H13X 8527   6.183   4.114   9.191  0.1506 -1.6723  1.4371
   88SAPS  H13Y 8528   6.074   4.219   9.292 -0.2819  0.5899 -0.1331
   88SAPS  C314 8529   5.981   4.145   9.110  0.1962 -0.2963  0.0473
   88SAPS  H14X 8530   5.984   4.250   9.072 -0.1533 -0.6279 -0.9173
   88SAPS  H14Y 8531   5.879   4.120   9.144 -0.8958  0.1455 -2.7270
   88SAPS  C315 8532   6.005   4.056   8.987  0.3317 -1.0748  0.8606
   88SAPS  H15X 8533   6.027   3.953   9.023  2.2303 -0.5709  1.2308
   88SAPS  H15Y 8534   6.096   4.087   8.930 -0.6922 -0.7688 -0.6226
   88SAPS  C316 8535   5.891   4.050   8.879  0.6355 -0.2861 -0.6298
   88SAPS  H16X 8536   5.864   4.148   8.834  0.0800 -0.3653 -0.4641
   88SAPS  H16Y 8537   5.802   4.002   8.926  1.7663 -1.3433  0.4780
   88SAPS  C317 8538   5.938   3.957   8.767 -0.3493 -0.6643 -0.8046
   88SAPS  H17X 8539   5.956   3.856   8.807  1.7552  0.4503  1.1863
   88SAPS  H17Y 8540   6.036   3.990   8.724 -0.8366  0.4562 -1.0910
   88SAPS  C318 8541   5.833   3.954   8.653 -0.3421 -0.4142  0.1707
   88SAPS  H18X 8542   5.731   3.936   8.695  0.9635 -1.4162  3.0566
   88SAPS  H18Y 8543   5.861   3.863   8.595  0.7693  0.7351 -1.1223
   88SAPS  H18Z 8544   5.835   4.037   8.579  0.5414 -0.7151 -0.1489
   89SAPS     N 8545   4.683   0.591  11.152 -0.1586 -0.1979 -0.3497
   89SAPS   HN1 8546   4.771   0.621  11.198  0.3503  2.2013 -2.7946
   89SAPS   HN2 8547   4.602   0.635  11.202  0.1618 -0.6489  0.5731
   89SAPS   HN3 8548   4.678   0.488  11.141 -2.0123 -0.1784  0.1529
   89SAPS   C12 8549   4.684   0.646  11.013 -0.1341 -0.9506 -0.3642
   89SAPS  H12A 8550   4.601   0.600  10.963  0.5996  0.7125 -3.2200
   89SAPS   C13 8551   4.664   0.800  11.009  0.4181 -0.7093  0.2762
   89SAPS  O13A 8552   4.651   0.867  11.112 -0.2191 -0.9295  0.2057
   89SAPS  O13B 8553   4.675   0.858  10.897 -0.6511 -0.6140 -0.2299
   89SAPS   C11 8554   4.818   0.614  10.944 -0.4380 -0.8198 -0.1471
   89SAPS  H11A 8555   4.903   0.657  11.001 -0.7426 -0.1477 -0.1988
   89SAPS  H11B 8556   4.817   0.658  10.842  0.5360  1.3222  0.7383
   89SAPS     P 8557   4.942   0.402  10.854 -0.4788  0.2887 -0.1674
   89SAPS   O13 8558   5.059   0.485  10.880 -0.6143 -0.3306 -0.0883
   89SAPS   O14 8559   4.951   0.265  10.907 -0.0082 -0.1054  0.0089
   89SAPS   O12 8560   4.823   0.473  10.932 -0.5856  0.2800 -0.3291
   89SAPS   O11 8561   4.905   0.407  10.702 -0.1182 -0.1097 -0.5418
   89SAPS    C1 8562   4.773   0.428  10.659  0.0263  0.3072  0.5812
   89SAPS    HA 8563   4.706   0.362  10.718 -1.1605  1.7046  0.8207
   89SAPS    HB 8564   4.756   0.537  10.673  0.2061  0.2196  1.5297
   89SAPS    C2 8565   4.746   0.387  10.510  0.2414  0.9507 -0.1569
   89SAPS    HS 8566   4.636   0.379  10.492  0.5065 -0.0120 -1.4708
   89SAPS   O21 8567   4.816   0.265  10.481  0.5406 -0.6393 -0.3023
   89SAPS   C21 8568   4.752   0.161  10.535  0.0880 -0.0264  0.0145
   89SAPS   O22 8569   4.640   0.162  10.582  0.3853 -0.5165  0.2070
   89SAPS   C22 8570   4.839   0.042  10.503  0.1849 -0.1217  0.1959
   89SAPS   H2R 8571   4.845   0.037  10.393 -0.5539  0.6308  0.1199
   89SAPS   H2S 8572   4.939   0.061  10.548  0.1291 -1.0908  0.7342
   89SAPS    C3 8573   4.787   0.507  10.412  0.0157  0.9675  0.0060
   89SAPS    HX 8574   4.893   0.527  10.439  0.3533 -0.9404  0.1820
   89SAPS    HY 8575   4.720   0.592  10.436 -3.1705 -1.4522 -0.0441
   89SAPS   O31 8576   4.765   0.474  10.277 -0.0633 -0.1792 -0.6423
   89SAPS   C31 8577   4.868   0.443  10.203  0.1467  0.4080 -0.3506
   89SAPS   O32 8578   4.988   0.441  10.229 -0.4423 -0.0443 -0.1804
   89SAPS   C32 8579   4.826   0.400  10.062  0.0452  0.2801  0.3493
   89SAPS   H2X 8580   4.765   0.486  10.026  0.8703  0.6769 -0.1279
   89SAPS   H2Y 8581   4.768   0.306  10.070 -0.4761  0.5577 -0.1663
   89SAPS   C23 8582   4.777  -0.099  10.552  0.2469 -0.4439  0.0695
   89SAPS   H3R 8583   4.719  -0.078  10.645 -1.0490  1.6793 -1.1886
   89SAPS   H3S 8584   4.847  -0.185  10.559 -0.4114 -1.0509 -0.8046
   89SAPS   C24 8585   4.671  -0.167  10.463  0.5233  0.4463  0.9317
   89SAPS   H4R 8586   4.639  -0.261  10.514 -1.5522  0.4637 -0.2876
   89SAPS   H4S 8587   4.719  -0.212  10.374  2.8505  0.6714  2.0252
   89SAPS   C25 8588   4.565  -0.075  10.419  0.4999 -0.3596 -0.5910
   89SAPS   H5R 8589   4.480  -0.069  10.489 -0.6080  1.1278 -2.0340
   89SAPS   C26 8590   4.548   0.005  10.313 -0.4768 -0.3981  0.4372
   89SAPS   H6R 8591   4.464   0.076  10.302 -0.6339 -0.6402  0.0536
   89SAPS   C27 8592   4.648   0.013  10.195  0.2418  0.0373 -0.1934
   89SAPS   H7R 8593   4.741  -0.046  10.208 -1.0419 -2.3455 -1.3494
   89SAPS   H7S 8594   4.678   0.119  10.190 -0.3601  0.1783 -0.8052
   89SAPS   C28 8595   4.581  -0.017  10.068  0.3351  0.3881 -0.7387
   89SAPS   H8R 8596   4.473   0.003  10.063  0.0725 -1.2713 -1.8914
   89SAPS   C29 8597   4.634  -0.045   9.949 -0.3800  0.2689 -0.2182
   89SAPS   H9R 8598   4.563  -0.041   9.866 -0.1398 -0.4348 -0.4566
   89SAPS  C210 8599   4.779  -0.068   9.912  0.4042 -0.0774  0.5668
   89SAPS  H10R 8600   4.821  -0.105  10.008 -0.7557 -1.7739  0.4343
   89SAPS  H10S 8601   4.820   0.031   9.883  0.9405 -0.6314 -0.6362
   89SAPS  C211 8602   4.789  -0.165   9.801  0.2662 -0.1730 -0.6674
   89SAPS  H11R 8603   4.777  -0.269   9.834 -1.6110 -0.1398 -1.1988
   89SAPS  C212 8604   4.816  -0.141   9.671 -0.0985 -0.3171 -1.0396
   89SAPS  H12R 8605   4.838  -0.230   9.610  1.4020 -1.5653  1.2448
   89SAPS  C213 8606   4.830  -0.004   9.605 -0.5805  0.5112  0.5758
   89SAPS  H13R 8607   4.933   0.011   9.567  1.2804 -1.8285  4.2819
   89SAPS  H13S 8608   4.811   0.084   9.670  0.6902  0.7772  0.6103
   89SAPS  C214 8609   4.741   0.015   9.483  0.0787  0.5044 -0.4901
   89SAPS  H14R 8610   4.670   0.098   9.477  0.6924  1.1064  0.5577
   89SAPS  C215 8611   4.743  -0.061   9.374 -0.2024 -0.0303  0.0995
   89SAPS  H15R 8612   4.679  -0.042   9.287  0.3963 -2.1732 -0.8491
   89SAPS  C216 8613   4.849  -0.159   9.340  0.2914  0.0608  0.5180
   89SAPS  H16R 8614   4.805  -0.256   9.309  1.8158 -0.8900  1.2776
   89SAPS  H16S 8615   4.918  -0.179   9.425 -0.3769 -1.9466  0.6043
   89SAPS  C217 8616   4.935  -0.118   9.227  0.3297 -0.1175  0.4721
   89SAPS  H17R 8617   4.959  -0.010   9.239 -0.8630  0.0127  1.8127
   89SAPS  H17S 8618   4.876  -0.120   9.133  0.4060  1.6810  0.3727
   89SAPS  C218 8619   5.057  -0.209   9.207  0.2282  0.4515  0.1233
   89SAPS  H18R 8620   5.014  -0.311   9.209  2.1901 -0.3546  2.4990
   89SAPS  H18S 8621   5.131  -0.195   9.289 -0.3760 -1.4094  1.0047
   89SAPS  C219 8622   5.131  -0.190   9.066 -0.3182  1.2364 -0.3642
   89SAPS  H19R 8623   5.230  -0.239   9.062 -0.7045  0.1839  2.1306
   89SAPS  H19S 8624   5.143  -0.080   9.053 -1.4190  1.7367  2.5235
   89SAPS  C220 8625   5.050  -0.245   8.950 -0.4192 -0.7400 -0.1331
   89SAPS  H20R 8626   5.111  -0.241   8.857 -1.6671  0.2891 -0.9257
   89SAPS  H20S 8627   4.951  -0.195   8.941 -0.2462 -0.1114  1.3580
   89SAPS  H20T 8628   5.023  -0.352   8.964  1.3982 -1.1155  0.6008
   89SAPS   C33 8629   4.948   0.387   9.972  0.2798  0.3109  0.2345
   89SAPS   H3X 8630   5.013   0.301   9.998  0.9401  0.9201  0.6203
   89SAPS   H3Y 8631   5.017   0.472   9.990  0.3258 -0.0072  1.6025
   89SAPS   C34 8632   4.907   0.381   9.829  0.0963  0.8314 -0.4053
   89SAPS   H4X 8633   4.866   0.472   9.780 -0.3949  1.2375  0.7568
   89SAPS   H4Y 8634   4.838   0.295   9.825  0.2329  0.7147 -0.2385
   89SAPS   C35 8635   5.025   0.339   9.736 -0.0377 -0.0374  0.0874
   89SAPS   H5X 8636   5.046   0.233   9.762 -0.0502  0.1839  1.0383
   89SAPS   H5Y 8637   5.116   0.398   9.762 -0.1110  0.1862 -0.1597
   89SAPS   C36 8638   4.989   0.349   9.590  0.4218 -0.1071  0.3539
   89SAPS   H6X 8639   4.949   0.450   9.566 -0.6408 -0.3318  1.1162
   89SAPS   H6Y 8640   4.907   0.280   9.561  0.5064  0.0932 -0.3545
   89SAPS   C37 8641   5.114   0.319   9.497  0.5894  0.3260  0.3927
   89SAPS   H7X 8642   5.146   0.221   9.539  0.0815  0.0720  0.1972
   89SAPS   H7Y 8643   5.182   0.397   9.536 -1.3842  2.4547 -0.3319
   89SAPS   C38 8644   5.101   0.323   9.354  0.2647  0.0896  0.1296
   89SAPS   H8X 8645   5.039   0.235   9.324  1.1853 -0.1030 -1.2643
   89SAPS   H8Y 8646   5.203   0.307   9.311  0.5429 -1.5421  1.3479
   89SAPS   C39 8647   5.029   0.446   9.307  1.2546 -0.3346 -0.8086
   89SAPS   H9X 8648   5.064   0.529   9.372 -0.3245 -0.4289  0.1519
   89SAPS   H9Y 8649   4.923   0.434   9.337  1.6167 -0.5922  0.3816
   89SAPS  C310 8650   5.023   0.472   9.161 -0.5254 -0.7086  0.2161
   89SAPS  H10X 8651   5.130   0.482   9.133 -0.6548  2.7898  0.7907
   89SAPS  H10Y 8652   4.985   0.572   9.130  3.3372  1.1429  1.2151
   89SAPS  C311 8653   4.958   0.363   9.083  0.7425  0.4930 -1.1279
   89SAPS  H11X 8654   4.867   0.326   9.136  1.9603  0.5161  1.0252
   89SAPS  H11Y 8655   5.027   0.276   9.073 -0.3313 -0.7526  1.7408
   89SAPS  C312 8656   4.895   0.408   8.950  0.0081 -0.1552 -0.1287
   89SAPS  H12X 8657   4.809   0.472   8.981  0.3672  0.0252  0.4950
   89SAPS  H12Y 8658   4.860   0.315   8.899 -0.2204 -0.4574  0.5766
   89SAPS  C313 8659   4.988   0.487   8.861 -0.3739 -0.3237  0.0255
   89SAPS  H13X 8660   5.085   0.436   8.878 -1.0269 -1.0844  1.6861
   89SAPS  H13Y 8661   5.015   0.585   8.906  0.5196  0.3260 -1.9216
   89SAPS  C314 8662   4.949   0.505   8.717 -0.3135 -0.1427  0.8564
   89SAPS  H14X 8663   4.900   0.410   8.685  0.6047  0.1434 -1.4406
   89SAPS  H14Y 8664   5.036   0.509   8.649 -1.0830 -2.9410 -0.3877
   89SAPS  C315 8665   4.854   0.620   8.697 -0.9679 -0.1662  0.1054
   89SAPS  H15X 8666   4.893   0.716   8.739 -2.1445 -0.6913  2.4585
   89SAPS  H15Y 8667   4.765   0.591   8.756 -0.8575 -2.1873 -0.6949
   89SAPS  C316 8668   4.802   0.642   8.558 -0.3968 -0.7214  0.1492
   89SAPS  H16X 8669   4.890   0.661   8.493 -0.0432 -0.2574  0.7461
   89SAPS  H16Y 8670   4.745   0.736   8.567 -0.5848 -0.8758  0.5779
   89SAPS  C317 8671   4.695   0.548   8.503 -0.0012  0.7617 -0.0211
   89SAPS  H17X 8672   4.630   0.506   8.583  2.0130  0.3767  1.4713
   89SAPS  H17Y 8673   4.760   0.462   8.476  0.2548  0.8605  0.2774
   89SAPS  C318 8674   4.606   0.599   8.379  0.1718 -0.0202  0.1580
   89SAPS  H18X 8675   4.660   0.575   8.285  1.0595 -1.3663  0.9848
   89SAPS  H18Y 8676   4.583   0.707   8.377 -1.9685 -0.4482  0.8547
   89SAPS  H18Z 8677   4.511   0.542   8.382  0.2872 -0.1766  0.9076
   90SAPS     N 8678   0.138   6.618  10.988 -0.1098 -0.3319  0.4275
   90SAPS   HN1 8679   0.144   6.667  11.080 -0.4590  0.3467  0.0965
   90SAPS   HN2 8680   0.233   6.618  10.946 -0.0769  3.3523  0.3134
   90SAPS   HN3 8681   0.084   6.678  10.922  0.1276 -1.6732 -1.0216
   90SAPS   C12 8682   0.060   6.484  11.010 -1.2697  0.1850 -0.1736
   90SAPS  H12A 8683   0.113   6.425  11.083 -1.9657 -1.5549 -1.0553
   90SAPS   C13 8684  -0.080   6.498  11.072  0.9373 -0.2058  0.0126
   90SAPS  O13A 8685  -0.132   6.614  11.071 -0.1166 -0.5664  0.5515
   90SAPS  O13B 8686  -0.149   6.400  11.115  0.0769 -0.4587 -0.0711
   90SAPS   C11 8687   0.036   6.418  10.863 -0.6390 -0.0574 -0.0704
   90SAPS  H11A 8688  -0.002   6.315  10.877  2.6652 -1.0747  2.2328
   90SAPS  H11B 8689   0.133   6.420  10.809 -0.3548  4.0510  0.3880
   90SAPS     P 8690  -0.124   6.420  10.660 -0.0209 -0.6614 -0.1565
   90SAPS   O13 8691  -0.178   6.297  10.713 -0.4245  0.3448 -0.5132
   90SAPS   O14 8692  -0.218   6.521  10.603 -0.2739  0.3876  0.5697
   90SAPS   O12 8693  -0.050   6.494  10.777  0.2881  0.0753  0.1917
   90SAPS   O11 8694  -0.004   6.391  10.562  0.0206 -0.2074 -0.0366
   90SAPS    C1 8695   0.071   6.492  10.498  0.1667 -0.0648  0.3314
   90SAPS    HA 8696   0.073   6.590  10.551 -0.8218 -0.4079  1.0175
   90SAPS    HB 8697   0.178   6.467  10.487  0.3782 -0.0243  2.1039
   90SAPS    C2 8698   0.015   6.529  10.356 -0.1885  0.1107  0.3842
   90SAPS    HS 8699  -0.090   6.563  10.369  0.4993  2.0948  0.8784
   90SAPS   O21 8700   0.018   6.415  10.275 -0.2629  0.4145  0.2069
   90SAPS   C21 8701  -0.068   6.400  10.171 -0.1139 -0.1806 -0.6925
   90SAPS   O22 8702  -0.155   6.477  10.146  0.4058  0.0652 -0.7844
   90SAPS   C22 8703  -0.052   6.253  10.112 -0.1556 -0.1093 -0.4258
   90SAPS   H2R 8704  -0.056   6.175  10.191  0.4034  0.1267 -0.1581
   90SAPS   H2S 8705  -0.124   6.241  10.028  0.6037  0.4945 -1.1848
   90SAPS    C3 8706   0.094   6.643  10.288 -0.0854 -0.1669  0.1819
   90SAPS    HX 8707   0.198   6.605  10.274 -0.6020 -0.9827 -1.6504
   90SAPS    HY 8708   0.107   6.729  10.357 -3.6198 -0.0011  0.7423
   90SAPS   O31 8709   0.049   6.690  10.162 -0.2350 -0.2045 -0.4676
   90SAPS   C31 8710  -0.043   6.787  10.165 -0.4704  0.5854 -0.9368
   90SAPS   O32 8711  -0.102   6.819  10.269  0.0467 -0.0583  0.0670
   90SAPS   C32 8712  -0.089   6.834  10.022 -0.1676 -0.3824  0.1839
   90SAPS   H2X 8713  -0.200   6.831  10.027 -0.2706  2.7329  0.8935
   90SAPS   H2Y 8714  -0.037   6.757   9.960  1.6030  0.2496  0.8408
   90SAPS   C23 8715   0.089   6.228  10.043 -0.2618  0.0300  0.3649
   90SAPS   H3R 8716   0.106   6.118  10.042 -1.8110 -0.2386 -2.5215
   90SAPS   H3S 8717   0.165   6.277  10.108 -1.7069  0.9253  1.4052
   90SAPS   C24 8718   0.102   6.274   9.895  0.5295  0.3089  0.2194
   90SAPS   H4R 8719   0.033   6.216   9.831  0.9986 -0.5084  0.4450
   90SAPS   H4S 8720   0.207   6.265   9.862  0.4539 -2.4556  0.6312
   90SAPS   C25 8721   0.062   6.423   9.881 -0.3022 -0.0961  0.2758
   90SAPS   H5R 8722   0.069   6.477   9.976 -1.0680 -2.8377  1.9269
   90SAPS   C26 8723   0.015   6.496   9.773  0.2412 -0.3554  0.5713
   90SAPS   H6R 8724   0.006   6.603   9.798  0.9323 -0.6868  2.3241
   90SAPS   C27 8725  -0.006   6.443   9.634  0.4423 -0.5854 -0.0462
   90SAPS   H7R 8726  -0.065   6.517   9.576 -0.4195  0.2040  1.8159
   90SAPS   H7S 8727  -0.090   6.374   9.657 -0.9306  0.7341 -0.9261
   90SAPS   C28 8728   0.106   6.372   9.557  0.0429  0.3439 -0.7786
   90SAPS   H8R 8729   0.175   6.330   9.631  0.6847 -0.8315 -2.0321
   90SAPS   C29 8730   0.136   6.382   9.426 -0.0566  0.0870 -0.0710
   90SAPS   H9R 8731   0.214   6.317   9.384 -0.3598 -0.4408  0.1814
   90SAPS  C210 8732   0.046   6.456   9.327 -0.4435 -0.0338  0.0517
   90SAPS  H10R 8733   0.099   6.533   9.267 -1.0542 -0.9538 -1.7278
   90SAPS  H10S 8734  -0.023   6.527   9.378 -0.2378 -0.3570  0.7818
   90SAPS  C211 8735  -0.034   6.363   9.239 -0.1892 -0.5698  0.8407
   90SAPS  H11R 8736  -0.118   6.309   9.287 -1.5735  1.8485  1.2605
   90SAPS  C212 8737  -0.021   6.355   9.107 -0.2727  0.1566 -0.4276
   90SAPS  H12R 8738  -0.088   6.282   9.058  0.3540 -0.6988 -0.0212
   90SAPS  C213 8739   0.075   6.420   9.005 -0.3210 -0.2803 -0.1562
   90SAPS  H13R 8740   0.141   6.490   9.060 -0.9259  0.1343  0.0522
   90SAPS  H13S 8741   0.026   6.491   8.934 -2.4996  0.1138  1.6687
   90SAPS  C214 8742   0.153   6.310   8.927 -0.1452  0.3261  0.4671
   90SAPS  H14R 8743   0.169   6.211   8.973  1.4072 -0.3079 -1.3648
   90SAPS  C215 8744   0.189   6.315   8.792 -0.2360 -0.0384 -0.4888
   90SAPS  H15R 8745   0.261   6.242   8.753 -1.0529 -0.6671 -0.8344
   90SAPS  C216 8746   0.171   6.432   8.698  0.0620  0.4965 -0.5747
   90SAPS  H16R 8747   0.259   6.440   8.631  0.8905  0.8931  0.5531
   90SAPS  H16S 8748   0.167   6.527   8.756  1.9453 -0.4316  1.1491
   90SAPS  C217 8749   0.053   6.396   8.598  0.7861 -0.8528 -0.2945
   90SAPS  H17R 8750   0.089   6.307   8.542  0.4869 -1.3668  0.3241
   90SAPS  H17S 8751   0.052   6.484   8.530  1.2604 -1.2351 -0.8027
   90SAPS  C218 8752  -0.088   6.379   8.650  0.4852  0.1605 -0.2482
   90SAPS  H18R 8753  -0.113   6.475   8.701  0.9907  0.5681 -0.7598
   90SAPS  H18S 8754  -0.107   6.290   8.713  2.0122 -0.0751 -0.1046
   90SAPS  C219 8755  -0.185   6.364   8.531  0.6645  0.1592 -0.3201
   90SAPS  H19R 8756  -0.215   6.465   8.496  0.9574 -0.2112 -1.6675
   90SAPS  H19S 8757  -0.266   6.309   8.584  2.5653 -1.4836  0.9596
   90SAPS  C220 8758  -0.138   6.280   8.406 -0.1769 -0.0117  0.4941
   90SAPS  H20R 8759  -0.057   6.206   8.427 -0.3323  0.0380  1.3147
   90SAPS  H20S 8760  -0.101   6.349   8.328  0.3291 -0.9971 -0.1520
   90SAPS  H20T 8761  -0.229   6.233   8.364  1.0866 -1.8219 -0.3118
   90SAPS   C33 8762  -0.048   6.975   9.989  0.2114  0.6709  0.9589
   90SAPS   H3X 8763   0.055   6.996  10.027  0.4329 -1.1737  1.4482
   90SAPS   H3Y 8764  -0.117   7.045  10.040 -1.8642  2.2308 -3.7800
   90SAPS   C34 8765  -0.039   7.004   9.833 -0.0682  0.1789 -0.0262
   90SAPS   H4X 8766  -0.126   6.968   9.774  0.2346  0.5815 -0.7359
   90SAPS   H4Y 8767   0.044   6.952   9.782 -0.0328  0.1755  0.0336
   90SAPS   C35 8768  -0.034   7.161   9.804  0.0153  0.7904  0.6323
   90SAPS   H5X 8769   0.067   7.196   9.835  0.0768  0.0914  1.2208
   90SAPS   H5Y 8770  -0.109   7.219   9.862 -0.3012 -0.8984  1.9479
   90SAPS   C36 8771  -0.045   7.185   9.658 -0.6569  0.3940  0.0662
   90SAPS   H6X 8772  -0.147   7.163   9.623 -1.0135  1.4723  0.3938
   90SAPS   H6Y 8773   0.021   7.114   9.605 -1.7313  0.4322 -1.3468
   90SAPS   C37 8774  -0.004   7.328   9.604  0.2610 -0.3790 -0.1688
   90SAPS   H7X 8775   0.105   7.347   9.605  0.5473 -1.9058 -0.8603
   90SAPS   H7Y 8776  -0.039   7.406   9.675 -1.1213  1.5234 -2.8824
   90SAPS   C38 8777  -0.063   7.365   9.472 -0.8527  1.1175 -0.4108
   90SAPS   H8X 8778  -0.042   7.474   9.461  2.2703  0.6567  0.6361
   90SAPS   H8Y 8779  -0.174   7.354   9.471 -0.7456 -0.2073  0.8845
   90SAPS   C39 8780   0.016   7.301   9.353  0.6523 -0.2141  0.2281
   90SAPS   H9X 8781   0.000   7.192   9.361  0.3596 -0.2939 -1.2431
   90SAPS   H9Y 8782   0.125   7.321   9.363  0.4421  1.1776 -0.0344
   90SAPS  C310 8783  -0.042   7.360   9.217 -0.6662  0.0522 -0.4436
   90SAPS  H10X 8784  -0.046   7.471   9.220 -2.8506  0.0234 -1.3243
   90SAPS  H10Y 8785  -0.145   7.329   9.188 -1.2482  1.8426 -0.3673
   90SAPS  C311 8786   0.060   7.351   9.102  0.5154  0.2952  0.0431
   90SAPS  H11X 8787   0.101   7.249   9.088 -3.2515 -1.0367 -1.6560
   90SAPS  H11Y 8788   0.147   7.416   9.127  1.6092 -0.1121 -2.6085
   90SAPS  C312 8789   0.001   7.400   8.965 -0.1380  0.2611  1.0775
   90SAPS  H12X 8790  -0.033   7.505   8.972  0.2878  0.3646  1.5774
   90SAPS  H12Y 8791  -0.085   7.335   8.937  0.8075 -0.5417  0.0085
   90SAPS  C313 8792   0.114   7.376   8.860 -0.2599 -0.0001  1.1893
   90SAPS  H13X 8793   0.151   7.271   8.863  1.0089  0.4270  0.6251
   90SAPS  H13Y 8794   0.191   7.452   8.883 -0.7173  1.0367 -0.5895
   90SAPS  C314 8795   0.049   7.407   8.723  0.0800  0.7434  0.0880
   90SAPS  H14X 8796   0.029   7.515   8.708 -0.2169  0.4691 -1.6665
   90SAPS  H14Y 8797  -0.034   7.334   8.713  0.3030  0.2697  1.6251
   90SAPS  C315 8798   0.149   7.392   8.600  0.7268  0.3265  0.0698
   90SAPS  H15X 8799   0.240   7.448   8.628  0.4526  0.7898  0.0354
   90SAPS  H15Y 8800   0.119   7.443   8.506 -0.7500 -0.2009  0.2380
   90SAPS  C316 8801   0.170   7.245   8.563 -0.2052  0.4358  0.3436
   90SAPS  H16X 8802   0.081   7.227   8.500  0.5653  0.3324 -0.7288
   90SAPS  H16Y 8803   0.175   7.175   8.649 -0.1014 -0.0895 -0.0889
   90SAPS  C317 8804   0.301   7.232   8.484  0.5299  0.0598 -0.8947
   90SAPS  H17X 8805   0.381   7.268   8.552 -0.9559  1.0739  0.3569
   90SAPS  H17Y 8806   0.293   7.305   8.400  0.7263  2.4823  1.1286
   90SAPS  C318 8807   0.329   7.090   8.433 -0.3367  0.6438  0.2203
   90SAPS  H18X 8808   0.430   7.092   8.387 -0.3191 -0.8888  0.1542
   90SAPS  H18Y 8809   0.260   7.076   8.347  1.4441  0.6913 -1.2457
   90SAPS  H18Z 8810   0.323   7.016   8.516 -1.6913  0.9551  0.4089
   91SAPS     N 8811   5.577   4.308   5.845 -0.1894 -0.0480  0.6791
   91SAPS   HN1 8812   5.523   4.268   5.924 -0.1060  0.9759  1.2677
   91SAPS   HN2 8813   5.567   4.253   5.757  2.6255 -2.5112  1.8464
   91SAPS   HN3 8814   5.676   4.295   5.873  1.0399  1.8927 -2.4641
   91SAPS   C12 8815   5.561   4.449   5.827 -0.3587  0.1114  0.3774
   91SAPS  H12A 8816   5.661   4.488   5.812 -0.6596  1.3566  1.5293
   91SAPS   C13 8817   5.508   4.477   5.686 -0.6115  0.0098 -0.3557
   91SAPS  O13A 8818   5.455   4.382   5.618  0.0219  0.6081 -0.0999
   91SAPS  O13B 8819   5.505   4.597   5.644  0.5230 -0.1589 -0.1647
   91SAPS   C11 8820   5.463   4.514   5.924 -0.1865 -0.0180  0.1038
   91SAPS  H11A 8821   5.360   4.476   5.909 -0.0775 -0.2975  0.0788
   91SAPS  H11B 8822   5.456   4.623   5.902 -0.0762  0.1667  0.9821
   91SAPS     P 8823   5.445   4.388   6.158 -0.2569  0.1502  0.3589
   91SAPS   O13 8824   5.404   4.267   6.082 -0.2727 -0.0755 -0.0178
   91SAPS   O14 8825   5.531   4.367   6.270 -0.5587  0.0327  0.3691
   91SAPS   O12 8826   5.512   4.494   6.058 -0.2638  0.6420  0.5025
   91SAPS   O11 8827   5.307   4.451   6.206  0.1726 -0.4623  0.4111
   91SAPS    C1 8828   5.271   4.594   6.213 -0.1466  0.4202 -0.2448
   91SAPS    HA 8829   5.268   4.636   6.110  2.5081  1.4688  0.0643
   91SAPS    HB 8830   5.162   4.606   6.235 -0.5513  1.9298 -2.8966
   91SAPS    C2 8831   5.355   4.670   6.318 -0.3637  0.3363  0.3214
   91SAPS    HS 8832   5.458   4.688   6.279 -0.3837  4.4102  1.9536
   91SAPS   O21 8833   5.350   4.598   6.440  0.2521  0.5234 -0.3458
   91SAPS   C21 8834   5.452   4.616   6.524  0.2344  0.4955 -0.9927
   91SAPS   O22 8835   5.554   4.675   6.496 -0.2910  0.4900  0.2835
   91SAPS   C22 8836   5.420   4.554   6.657 -0.3754  0.1517  0.1094
   91SAPS   H2R 8837   5.313   4.525   6.664  0.2480 -2.0368  1.1976
   91SAPS   H2S 8838   5.475   4.458   6.665  0.6484  0.6779 -0.5293
   91SAPS    C3 8839   5.300   4.811   6.344  0.0745  0.3603  0.0006
   91SAPS    HX 8840   5.203   4.793   6.396 -0.1967 -0.4159 -0.7533
   91SAPS    HY 8841   5.282   4.865   6.248  0.6584  0.2987 -0.1420
   91SAPS   O31 8842   5.376   4.901   6.432 -0.3539  0.0024  0.3340
   91SAPS   C31 8843   5.481   4.961   6.364  0.0601  0.1378  0.1539
   91SAPS   O32 8844   5.498   4.953   6.242  0.7196 -0.0388  0.3112
   91SAPS   C32 8845   5.578   5.020   6.462 -0.1602  0.8464  0.8410
   91SAPS   H2X 8846   5.648   5.077   6.397 -0.4110 -0.7145 -0.8356
   91SAPS   H2Y 8847   5.634   4.940   6.515  1.1670  1.6504  0.6801
   91SAPS   C23 8848   5.451   4.658   6.777  0.0553 -0.2753  0.0452
   91SAPS   H3R 8849   5.396   4.751   6.750 -1.8721 -1.1929  0.7302
   91SAPS   H3S 8850   5.558   4.687   6.772 -0.8262  3.0264 -1.4192
   91SAPS   C24 8851   5.409   4.597   6.911  0.4095  0.5575 -0.2907
   91SAPS   H4R 8852   5.301   4.573   6.894  0.5384  0.4781 -1.0415
   91SAPS   H4S 8853   5.422   4.676   6.989  0.7911 -0.2656  0.4827
   91SAPS   C25 8854   5.486   4.471   6.961  0.2667 -0.5149  0.3857
   91SAPS   H5R 8855   5.595   4.490   6.958 -0.1959  2.2405 -0.3498
   91SAPS   C26 8856   5.435   4.356   7.003  0.3858  0.5709 -0.6283
   91SAPS   H6R 8857   5.501   4.274   7.035 -2.2156 -1.6882 -0.8550
   91SAPS   C27 8858   5.284   4.318   7.011 -0.2969  0.3451  0.5482
   91SAPS   H7R 8859   5.262   4.277   6.910 -0.5771  1.4945  0.1352
   91SAPS   H7S 8860   5.224   4.412   7.018  0.8590  0.9753  2.5451
   91SAPS   C28 8861   5.266   4.207   7.109  0.6100 -0.2888 -0.5190
   91SAPS   H8R 8862   5.237   4.110   7.065  1.8765 -0.3744 -1.1721
   91SAPS   C29 8863   5.257   4.211   7.244 -0.3816 -0.2431 -0.3031
   91SAPS   H9R 8864   5.257   4.112   7.292  2.7353 -0.4845 -0.7046
   91SAPS  C210 8865   5.259   4.336   7.332  1.1049 -0.2755 -0.7935
   91SAPS  H10R 8866   5.178   4.337   7.408  2.0674  0.7690  0.2507
   91SAPS  H10S 8867   5.234   4.419   7.263 -0.1096  1.8664  2.1418
   91SAPS  C211 8868   5.393   4.347   7.390  0.1878 -0.1285  0.1729
   91SAPS  H11R 8869   5.472   4.360   7.314  0.3654  0.4374  0.4518
   91SAPS  C212 8870   5.426   4.346   7.519  0.7305 -0.0912 -0.5383
   91SAPS  H12R 8871   5.535   4.351   7.538  0.9159 -0.2229 -1.5168
   91SAPS  C213 8872   5.326   4.310   7.627  0.2220 -0.8517  0.6024
   91SAPS  H13R 8873   5.258   4.231   7.588 -1.5259  0.9908 -0.1265
   91SAPS  H13S 8874   5.265   4.396   7.660  0.7607 -0.0575 -0.4204
   91SAPS  C214 8875   5.407   4.263   7.751 -0.4323  0.0590  0.0949
   91SAPS  H14R 8876   5.419   4.154   7.763  2.1539  0.4567  1.6531
   91SAPS  C215 8877   5.454   4.340   7.852 -0.3054 -0.0264  1.2185
   91SAPS  H15R 8878   5.491   4.293   7.944 -0.2443 -2.6216 -0.0877
   91SAPS  C216 8879   5.430   4.489   7.858 -0.5286 -0.2754  0.2905
   91SAPS  H16R 8880   5.399   4.523   7.757  0.9073  1.2409  0.3391
   91SAPS  H16S 8881   5.521   4.547   7.885 -1.3397  0.3135  1.8382
   91SAPS  C217 8882   5.320   4.533   7.951  0.8280 -0.0241 -0.1106
   91SAPS  H17R 8883   5.228   4.476   7.926  0.2045  1.8745 -2.3118
   91SAPS  H17S 8884   5.297   4.639   7.925 -0.5030 -0.2305  0.1818
   91SAPS  C218 8885   5.353   4.517   8.094 -0.5617 -0.1109 -0.3093
   91SAPS  H18R 8886   5.404   4.608   8.132 -0.9744 -0.5024  1.2222
   91SAPS  H18S 8887   5.415   4.425   8.097 -0.1648  0.2002  2.1557
   91SAPS  C219 8888   5.238   4.504   8.187 -0.2861 -0.3076 -1.4559
   91SAPS  H19R 8889   5.264   4.499   8.295 -2.6402  2.1372 -0.7220
   91SAPS  H19S 8890   5.184   4.408   8.171  0.2793 -0.5906 -1.7176
   91SAPS  C220 8891   5.142   4.623   8.173 -0.5926 -0.1090 -0.7232
   91SAPS  H20R 8892   5.040   4.603   8.211 -0.6010 -1.6531 -1.5413
   91SAPS  H20S 8893   5.106   4.650   8.072  0.7999  0.5808 -1.0568
   91SAPS  H20T 8894   5.171   4.722   8.215 -2.8119  0.3778 -0.2742
   91SAPS   C33 8895   5.520   5.132   6.550 -0.5116 -0.3437 -1.0309
   91SAPS   H3X 8896   5.456   5.203   6.493  0.4757  0.5089 -1.0870
   91SAPS   H3Y 8897   5.609   5.179   6.597 -1.1091 -0.9347  0.7217
   91SAPS   C34 8898   5.433   5.081   6.674 -0.0767 -0.0870 -0.3216
   91SAPS   H4X 8899   5.492   5.010   6.736 -0.1147 -0.9842 -1.3226
   91SAPS   H4Y 8900   5.334   5.034   6.656  0.9424 -2.4764  0.1971
   91SAPS   C35 8901   5.411   5.210   6.757  0.2696  0.4032  0.2825
   91SAPS   H5X 8902   5.326   5.271   6.720 -2.1817 -2.1700  1.5086
   91SAPS   H5Y 8903   5.504   5.270   6.762  1.3372 -1.3996  2.9085
   91SAPS   C36 8904   5.375   5.168   6.900  0.2872 -0.1658 -0.2696
   91SAPS   H6X 8905   5.461   5.110   6.942  0.7013  1.4944  1.2572
   91SAPS   H6Y 8906   5.296   5.090   6.905 -0.0759  0.1574 -1.0063
   91SAPS   C37 8907   5.339   5.280   7.002 -0.1930 -0.2184 -0.6185
   91SAPS   H7X 8908   5.240   5.315   6.964 -0.4588 -1.2670 -0.9106
   91SAPS   H7Y 8909   5.406   5.368   6.996 -0.4809  0.0309 -0.1942
   91SAPS   C38 8910   5.331   5.227   7.147 -0.1488  0.5915  0.4011
   91SAPS   H8X 8911   5.291   5.124   7.132 -0.0912  0.2159  2.6289
   91SAPS   H8Y 8912   5.256   5.294   7.194  1.1278  1.5661  1.0689
   91SAPS   C39 8913   5.467   5.204   7.227 -0.0970 -0.8312 -0.6654
   91SAPS   H9X 8914   5.505   5.309   7.227 -2.5150  0.0634 -1.9826
   91SAPS   H9Y 8915   5.540   5.139   7.173 -1.3522 -2.9323  0.0887
   91SAPS  C310 8916   5.461   5.152   7.373 -0.8612 -0.2441 -0.4721
   91SAPS  H10X 8917   5.569   5.138   7.393 -0.1678  2.0817 -2.3114
   91SAPS  H10Y 8918   5.411   5.054   7.392  0.5100 -0.8137  0.2713
   91SAPS  C311 8919   5.399   5.259   7.473 -0.7476  0.1862  0.0596
   91SAPS  H11X 8920   5.318   5.304   7.412 -1.2394 -1.4989 -0.5669
   91SAPS  H11Y 8921   5.470   5.341   7.495 -0.3455  0.3796 -1.9393
   91SAPS  C312 8922   5.340   5.193   7.597  0.0506  0.4195  0.6746
   91SAPS  H12X 8923   5.421   5.137   7.648  0.5253  0.1809 -0.3254
   91SAPS  H12Y 8924   5.256   5.127   7.568 -1.2323  2.0829  0.5248
   91SAPS  C313 8925   5.307   5.305   7.697 -0.2994 -0.0066  0.1904
   91SAPS  H13X 8926   5.239   5.383   7.654  0.3549 -0.0109 -0.8634
   91SAPS  H13Y 8927   5.396   5.361   7.733  0.9417 -2.2371  0.6572
   91SAPS  C314 8928   5.242   5.245   7.820  0.0153  0.2329 -0.1643
   91SAPS  H14X 8929   5.304   5.162   7.860 -0.5597  0.5819  1.5106
   91SAPS  H14Y 8930   5.143   5.202   7.794  0.9111 -1.8751 -0.1564
   91SAPS  C315 8931   5.216   5.337   7.934  0.4005  0.7496 -0.4203
   91SAPS  H15X 8932   5.148   5.420   7.904 -0.6937  1.1500  2.9722
   91SAPS  H15Y 8933   5.304   5.392   7.973 -0.3222  0.3424  1.8229
   91SAPS  C316 8934   5.167   5.259   8.063  0.3386 -0.4466  0.2509
   91SAPS  H16X 8935   5.086   5.191   8.028  0.3041  0.8996 -2.4714
   91SAPS  H16Y 8936   5.126   5.325   8.142 -0.4463  1.0914 -1.4059
   91SAPS  C317 8937   5.261   5.176   8.152 -0.6405 -0.5241  0.7363
   91SAPS  H17X 8938   5.327   5.246   8.207 -1.6888  0.0856  1.2430
   91SAPS  H17Y 8939   5.326   5.110   8.091  1.3814  2.1764 -0.1083
   91SAPS  C318 8940   5.203   5.090   8.266 -0.5350  0.2768  0.1936
   91SAPS  H18X 8941   5.284   5.034   8.317  0.4571  0.1086 -1.5261
   91SAPS  H18Y 8942   5.127   5.022   8.221 -0.5602 -0.1591  0.8883
   91SAPS  H18Z 8943   5.159   5.148   8.350 -0.4321 -1.6569  1.6213
   92SAPS     N 8944   4.253   2.778   6.571  0.7806  0.0438 -0.0263
   92SAPS   HN1 8945   4.250   2.689   6.624 -4.4461 -0.2984 -0.6872
   92SAPS   HN2 8946   4.274   2.851   6.642 -0.1087  0.2578  0.0144
   92SAPS   HN3 8947   4.162   2.812   6.533 -0.3776  0.9720  3.4505
   92SAPS   C12 8948   4.349   2.779   6.454  0.0996  0.3998  0.8462
   92SAPS  H12A 8949   4.435   2.728   6.494  0.3134  1.2569  1.5070
   92SAPS   C13 8950   4.310   2.706   6.327 -0.1464  0.0451  0.7465
   92SAPS  O13A 8951   4.196   2.659   6.310 -0.7684  0.2621  0.4138
   92SAPS  O13B 8952   4.384   2.726   6.226  0.8345  0.6184 -0.7141
   92SAPS   C11 8953   4.375   2.927   6.415 -0.3528 -0.3319 -0.4873
   92SAPS  H11A 8954   4.283   2.965   6.366  1.0479  2.3790 -1.1193
   92SAPS  H11B 8955   4.459   2.937   6.344  1.0475  2.2193  1.4153
   92SAPS     P 8956   4.428   3.157   6.518 -0.0036  0.2105  0.0994
   92SAPS   O13 8957   4.553   3.184   6.442 -0.3091 -0.3849 -0.3494
   92SAPS   O14 8958   4.301   3.219   6.474 -0.2120 -0.3601 -0.1401
   92SAPS   O12 8959   4.404   3.003   6.538 -0.3440  0.0653 -0.0773
   92SAPS   O11 8960   4.453   3.201   6.667  0.0299 -0.1692 -0.6549
   92SAPS    C1 8961   4.566   3.156   6.740  0.2393 -0.3989  0.9288
   92SAPS    HA 8962   4.663   3.171   6.689 -0.5767 -1.9211 -1.1347
   92SAPS    HB 8963   4.578   3.224   6.827 -1.3044  0.2493  0.6488
   92SAPS    C2 8964   4.554   3.006   6.796 -0.2441 -0.7777  0.2990
   92SAPS    HS 8965   4.519   2.933   6.720  1.5201 -2.4524  1.0605
   92SAPS   O21 8966   4.475   3.011   6.915 -0.3858 -0.1587  0.2426
   92SAPS   C21 8967   4.356   2.958   6.903 -0.3404 -0.0544 -0.2274
   92SAPS   O22 8968   4.308   2.894   6.812  0.1047  0.1421  0.0617
   92SAPS   C22 8969   4.279   2.999   7.025 -0.0611 -0.0804  0.2703
   92SAPS   H2R 8970   4.277   3.110   7.022  0.0828 -0.0822  0.1127
   92SAPS   H2S 8971   4.176   2.961   7.009  0.6274 -1.6710 -0.5018
   92SAPS    C3 8972   4.693   2.949   6.835 -0.1770  0.3257 -0.8520
   92SAPS    HX 8973   4.722   3.014   6.921 -0.1034 -0.1890 -0.4867
   92SAPS    HY 8974   4.774   2.953   6.760 -0.4358  1.4134 -1.0811
   92SAPS   O31 8975   4.681   2.814   6.890 -0.3331 -0.0046  0.2981
   92SAPS   C31 8976   4.668   2.717   6.806  0.5397  0.7750 -0.4055
   92SAPS   O32 8977   4.653   2.727   6.687 -0.2244 -0.0531 -0.3690
   92SAPS   C32 8978   4.658   2.590   6.878  0.0679  0.9414 -0.2028
   92SAPS   H2X 8979   4.746   2.527   6.852 -0.0293  0.1675  1.2543
   92SAPS   H2Y 8980   4.569   2.536   6.839  1.2549 -0.5419 -0.8999
   92SAPS   C23 8981   4.351   2.955   7.160  0.1795  0.2384  0.4127
   92SAPS   H3R 8982   4.447   3.008   7.174  0.1787  0.3583 -0.0522
   92SAPS   H3S 8983   4.353   2.844   7.166 -0.3201  0.1812 -0.3755
   92SAPS   C24 8984   4.273   3.007   7.287  0.4615  0.1572  0.3429
   92SAPS   H4R 8985   4.272   3.118   7.283 -3.2719  0.1688  0.2909
   92SAPS   H4S 8986   4.328   2.980   7.379 -0.3427 -1.6848  0.3045
   92SAPS   C25 8987   4.130   2.972   7.302  0.2310  0.0672 -0.2534
   92SAPS   H5R 8988   4.079   2.984   7.205 -1.1129 -1.0314  0.3103
   92SAPS   C26 8989   4.069   2.915   7.409 -0.5262 -0.1195  0.0521
   92SAPS   H6R 8990   3.959   2.918   7.413 -0.4500  2.5964  0.7714
   92SAPS   C27 8991   4.129   2.882   7.548 -0.2828  0.7944  0.9209
   92SAPS   H7R 8992   4.104   2.962   7.620 -1.2966 -0.2453  1.7391
   92SAPS   H7S 8993   4.237   2.871   7.525 -0.6041  3.4559 -2.2307
   92SAPS   C28 8994   4.069   2.750   7.602  0.0796  0.1110 -0.5201
   92SAPS   H8R 8995   4.085   2.665   7.534  0.7092 -0.4572  0.3310
   92SAPS   C29 8996   3.983   2.729   7.700 -0.3837 -0.5171  0.5195
   92SAPS   H9R 8997   3.943   2.629   7.719  0.1198 -0.2648  3.0350
   92SAPS  C210 8998   3.923   2.836   7.792 -0.5301 -0.6927  0.2442
   92SAPS  H10R 8999   3.823   2.860   7.748  0.3867  0.2092 -1.4056
   92SAPS  H10S 9000   3.986   2.927   7.792  1.4582 -2.0266  0.9137
   92SAPS  C211 9001   3.900   2.781   7.933  0.2506  0.1338  0.5946
   92SAPS  H11R 9002   3.953   2.687   7.951  0.1766 -0.7099 -3.0737
   92SAPS  C212 9003   3.819   2.838   8.022 -0.2143 -0.2828 -0.1933
   92SAPS  H12R 9004   3.819   2.793   8.122  4.2879 -3.5536 -1.5022
   92SAPS  C213 9005   3.750   2.969   8.005 -1.0296 -0.0711 -0.5715
   92SAPS  H13R 9006   3.776   3.005   7.903  1.7343  0.2135  0.2073
   92SAPS  H13S 9007   3.792   3.049   8.069  2.7428 -0.5842 -2.3110
   92SAPS  C214 9008   3.592   2.961   8.017  0.3015 -0.0489  0.4012
   92SAPS  H14R 9009   3.549   2.967   7.916  1.2930 -0.8951 -0.0779
   92SAPS  C215 9010   3.519   2.945   8.133  0.3845  0.0630 -0.0245
   92SAPS  H15R 9011   3.409   2.949   8.127  0.2807  0.3727  1.8941
   92SAPS  C216 9012   3.561   2.935   8.278  0.2826  0.4664  0.3208
   92SAPS  H16R 9013   3.484   2.991   8.334 -1.9647 -2.3821  0.2252
   92SAPS  H16S 9014   3.655   2.992   8.291  0.3929 -0.2156  2.7798
   92SAPS  C217 9015   3.567   2.790   8.323 -0.0230 -0.3071  0.1692
   92SAPS  H17R 9016   3.614   2.726   8.245  0.0854 -0.9054  0.7228
   92SAPS  H17S 9017   3.459   2.762   8.317  0.2474 -1.4236  0.3119
   92SAPS  C218 9018   3.636   2.778   8.460 -0.1922  0.3524 -0.4600
   92SAPS  H18R 9019   3.736   2.817   8.435  1.0604 -1.5188  1.4351
   92SAPS  H18S 9020   3.652   2.671   8.486  0.8144  0.6815  0.3069
   92SAPS  C219 9021   3.562   2.856   8.574 -0.3188 -0.1525  0.3826
   92SAPS  H19R 9022   3.462   2.807   8.574 -0.7237  0.6712  1.0126
   92SAPS  H19S 9023   3.540   2.961   8.545  0.5808  0.4997  1.9980
   92SAPS  C220 9024   3.626   2.855   8.719  0.3283  0.3519  0.4239
   92SAPS  H20R 9025   3.568   2.927   8.780  0.2270  0.4422  0.2227
   92SAPS  H20S 9026   3.732   2.889   8.719  0.9764 -1.6189  2.1269
   92SAPS  H20T 9027   3.629   2.752   8.759 -0.8371 -0.3838 -1.3182
   92SAPS   C33 9028   4.649   2.587   7.036 -0.6871  0.4213 -0.5954
   92SAPS   H3X 9029   4.574   2.661   7.069 -0.2823  0.1842  0.8876
   92SAPS   H3Y 9030   4.745   2.621   7.081 -2.1869  2.2091  1.3042
   92SAPS   C34 9031   4.613   2.453   7.097  1.0692  0.7382  0.6646
   92SAPS   H4X 9032   4.689   2.376   7.077 -2.2392 -2.4496 -0.1821
   92SAPS   H4Y 9033   4.518   2.422   7.048  2.1404 -0.9908 -0.3325
   92SAPS   C35 9034   4.603   2.463   7.247 -0.8047  0.3448  0.4184
   92SAPS   H5X 9035   4.500   2.499   7.266 -1.1025 -0.9215  1.2356
   92SAPS   H5Y 9036   4.674   2.529   7.301 -1.1864 -0.7965  2.3672
   92SAPS   C36 9037   4.619   2.327   7.305  0.5522 -0.9028  0.4499
   92SAPS   H6X 9038   4.717   2.285   7.276  0.4229 -1.0105  0.1672
   92SAPS   H6Y 9039   4.536   2.261   7.272  0.0289 -0.5023  0.9533
   92SAPS   C37 9040   4.612   2.323   7.460 -0.4569  0.5791  0.1368
   92SAPS   H7X 9041   4.703   2.380   7.487  2.0469 -2.7508 -0.9840
   92SAPS   H7Y 9042   4.619   2.216   7.490 -0.0773  0.1279 -1.4728
   92SAPS   C38 9043   4.492   2.397   7.516  0.2254  0.4609 -0.0765
   92SAPS   H8X 9044   4.402   2.367   7.458  0.2446 -1.5388  0.8865
   92SAPS   H8Y 9045   4.495   2.507   7.496 -3.7815  0.9797  1.6262
   92SAPS   C39 9046   4.474   2.368   7.664  0.0363 -0.0992 -0.7545
   92SAPS   H9X 9047   4.558   2.394   7.732 -0.0069 -1.6686 -0.0844
   92SAPS   H9Y 9048   4.459   2.258   7.666  2.3960 -0.4218  1.3794
   92SAPS  C310 9049   4.356   2.441   7.727 -0.7630 -0.3386 -0.3317
   92SAPS  H10X 9050   4.260   2.404   7.687 -1.5606  1.2189  0.0595
   92SAPS  H10Y 9051   4.372   2.551   7.720 -0.8919 -0.3473 -0.7517
   92SAPS  C311 9052   4.347   2.396   7.878  0.1176 -0.4928 -0.2328
   92SAPS  H11X 9053   4.446   2.412   7.925  1.9713 -2.0329 -3.4240
   92SAPS  H11Y 9054   4.327   2.287   7.872  2.1227 -0.8507 -0.8124
   92SAPS  C312 9055   4.233   2.468   7.956 -0.3033 -0.0271  0.5269
   92SAPS  H12X 9056   4.232   2.426   8.059 -0.5244  1.6386  1.2223
   92SAPS  H12Y 9057   4.130   2.452   7.918 -1.0723  4.3083  0.4260
   92SAPS  C313 9058   4.248   2.618   7.962 -0.1492 -0.6572 -0.2577
   92SAPS  H13X 9059   4.154   2.664   8.001  0.5237 -0.0996  0.7448
   92SAPS  H13Y 9060   4.260   2.668   7.863 -4.0527  0.8758 -0.0513
   92SAPS  C314 9061   4.369   2.675   8.044 -0.6295  0.4346  0.3527
   92SAPS  H14X 9062   4.348   2.780   8.072 -2.4703  0.1711  0.0453
   92SAPS  H14Y 9063   4.455   2.667   7.975 -0.6550  2.0218  0.1255
   92SAPS  C315 9064   4.385   2.602   8.176 -0.4089  0.5525  0.3028
   92SAPS  H15X 9065   4.438   2.507   8.152  0.0938  0.8364  0.2787
   92SAPS  H15Y 9066   4.289   2.565   8.218 -1.2757  1.5421 -0.7802
   92SAPS  C316 9067   4.458   2.683   8.287 -0.2840 -0.1698 -0.2886
   92SAPS  H16X 9068   4.416   2.785   8.296  1.1455  0.3013  1.0848
   92SAPS  H16Y 9069   4.567   2.691   8.268  0.0146  1.5550  1.9550
   92SAPS  C317 9070   4.440   2.614   8.425 -1.0978  0.4741  0.5556
   92SAPS  H17X 9071   4.456   2.504   8.421  3.3527  1.0086  0.7701
   92SAPS  H17Y 9072   4.340   2.640   8.466 -0.6947  0.1825  1.7412
   92SAPS  C318 9073   4.541   2.657   8.531  0.1505 -0.0504 -0.0256
   92SAPS  H18X 9074   4.641   2.677   8.487 -0.3762  1.4647 -0.5560
   92SAPS  H18Y 9075   4.554   2.579   8.610 -0.6890  1.2941  1.4627
   92SAPS  H18Z 9076   4.495   2.745   8.579  2.1632  0.0688  1.7764
   93SAPS     N 9077   5.799   2.595   6.443 -0.5137 -0.5407  0.5377
   93SAPS   HN1 9078   5.742   2.637   6.519  1.1365  1.0082  0.9587
   93SAPS   HN2 9079   5.749   2.514   6.402  1.0705 -0.9825 -0.5546
   93SAPS   HN3 9080   5.890   2.571   6.488 -0.8858 -1.0328  1.0474
   93SAPS   C12 9081   5.802   2.694   6.330  0.1145 -0.2169 -0.1641
   93SAPS  H12A 9082   5.869   2.655   6.255 -0.7572  0.7021 -1.4382
   93SAPS   C13 9083   5.661   2.705   6.266  0.7413 -0.2552 -0.9001
   93SAPS  O13A 9084   5.574   2.617   6.288  0.0420 -0.3589  0.0957
   93SAPS  O13B 9085   5.645   2.793   6.179 -0.2473 -0.2667 -0.3723
   93SAPS   C11 9086   5.859   2.833   6.381 -0.2264  0.7514  0.3038
   93SAPS  H11A 9087   5.790   2.866   6.461 -3.0197 -0.6925 -1.4568
   93SAPS  H11B 9088   5.846   2.903   6.296 -1.2590 -1.6541 -1.5935
   93SAPS     P 9089   6.098   2.926   6.398  0.2446  0.0976 -0.3750
   93SAPS   O13 9090   6.233   2.891   6.450  0.4606 -0.7241 -0.7225
   93SAPS   O14 9091   6.081   2.966   6.252  0.0515  0.1502 -0.8560
   93SAPS   O12 9092   5.990   2.815   6.429 -0.6995 -0.1638 -0.2056
   93SAPS   O11 9093   6.030   3.044   6.477 -0.0752 -0.6094 -0.2579
   93SAPS    C1 9094   6.049   3.056   6.619  0.4592 -0.3703 -0.6120
   93SAPS    HA 9095   6.029   2.963   6.675 -1.1741 -0.1869 -0.8503
   93SAPS    HB 9096   6.153   3.091   6.634  1.0095 -1.7543 -1.1267
   93SAPS    C2 9097   5.946   3.153   6.682 -0.2737 -0.1256 -0.3613
   93SAPS    HS 9098   5.954   3.252   6.632  0.6125 -0.5483 -1.0776
   93SAPS   O21 9099   5.982   3.171   6.819  0.5128 -0.1219  0.0376
   93SAPS   C21 9100   5.926   3.269   6.885 -0.4667  0.1899  0.3929
   93SAPS   O22 9101   5.857   3.355   6.838 -0.4531 -0.5873 -0.4112
   93SAPS   C22 9102   5.987   3.261   7.030  0.3708  0.4362 -0.0538
   93SAPS   H2R 9103   6.019   3.156   7.051  2.9187  1.2288  0.1101
   93SAPS   H2S 9104   6.084   3.314   7.025  1.0051 -0.7344 -0.6584
   93SAPS    C3 9105   5.799   3.102   6.659  0.1099 -0.4729 -0.8941
   93SAPS    HX 9106   5.761   3.099   6.555  0.4375  2.7692 -1.1522
   93SAPS    HY 9107   5.732   3.177   6.705  1.7052  1.1363 -1.1740
   93SAPS   O31 9108   5.796   2.970   6.725  0.0304 -0.2929 -0.5975
   93SAPS   C31 9109   5.747   2.968   6.842 -0.0808 -0.2165  0.3464
   93SAPS   O32 9110   5.695   3.052   6.910 -0.0490 -0.1166  0.0613
   93SAPS   C32 9111   5.776   2.823   6.889 -0.4403  0.0768 -0.4614
   93SAPS   H2X 9112   5.866   2.777   6.843  0.0556 -0.4865  1.0295
   93SAPS   H2Y 9113   5.695   2.755   6.853  0.4798 -2.5203  2.1841
   93SAPS   C23 9114   5.884   3.304   7.139 -0.5435 -0.6932  0.2319
   93SAPS   H3R 9115   5.791   3.244   7.134 -1.4975  0.8989 -2.4806
   93SAPS   H3S 9116   5.847   3.402   7.103  0.1909  0.0611  1.4939
   93SAPS   C24 9117   5.937   3.328   7.279 -0.1448 -0.8927  0.2300
   93SAPS   H4R 9118   6.023   3.397   7.261 -1.1294 -0.1400 -1.7641
   93SAPS   H4S 9119   5.981   3.231   7.311  0.0817 -0.1860  2.0907
   93SAPS   C25 9120   5.834   3.370   7.383 -0.0151 -0.6645  0.2516
   93SAPS   H5R 9121   5.778   3.465   7.375  0.6252 -0.2710  0.4129
   93SAPS   C26 9122   5.801   3.289   7.487 -0.3041  0.6017 -0.3539
   93SAPS   H6R 9123   5.710   3.325   7.536 -0.4567  1.7065 -1.4381
   93SAPS   C27 9124   5.849   3.149   7.526  0.3173 -0.0161  0.2181
   93SAPS   H7R 9125   5.878   3.159   7.632  0.7135 -0.7931  0.1882
   93SAPS   H7S 9126   5.933   3.118   7.459  0.2930  0.6335 -0.1228
   93SAPS   C28 9127   5.731   3.053   7.530 -0.6835  0.7083  0.0046
   93SAPS   H8R 9128   5.704   3.014   7.431 -1.7514 -3.8959  1.9778
   93SAPS   C29 9129   5.657   3.012   7.634 -0.3168 -0.3576 -0.1588
   93SAPS   H9R 9130   5.569   2.952   7.604  1.1811 -2.4660 -0.4706
   93SAPS  C210 9131   5.668   3.042   7.785 -0.7293  0.5212 -0.1554
   93SAPS  H10R 9132   5.765   3.003   7.821 -2.3017 -1.1077  2.5277
   93SAPS  H10S 9133   5.595   2.982   7.844 -2.1128  1.2881 -1.0776
   93SAPS  C211 9134   5.663   3.175   7.840 -0.1211 -0.2030 -0.1210
   93SAPS  H11R 9135   5.669   3.254   7.763 -2.3715  0.3499  0.2175
   93SAPS  C212 9136   5.642   3.216   7.964  0.8835  0.2246 -0.0701
   93SAPS  H12R 9137   5.642   3.325   7.974 -0.0950  0.3316 -1.1461
   93SAPS  C213 9138   5.631   3.124   8.090 -0.1609  0.5865 -0.3832
   93SAPS  H13R 9139   5.621   3.200   8.171  2.8595 -2.0692  2.6643
   93SAPS  H13S 9140   5.723   3.065   8.106 -1.0351 -0.9450 -0.9330
   93SAPS  C214 9141   5.510   3.037   8.092  0.0487  0.4562 -0.3350
   93SAPS  H14R 9142   5.455   3.031   7.997  0.4480  1.1130 -0.6069
   93SAPS  C215 9143   5.474   2.958   8.190  0.3860 -0.1571  0.2630
   93SAPS  H15R 9144   5.386   2.893   8.192  1.8743 -2.2364 -1.0104
   93SAPS  C216 9145   5.553   2.954   8.322 -0.0761 -1.2195 -0.2703
   93SAPS  H16R 9146   5.654   2.995   8.298 -0.5315 -0.4337 -0.8572
   93SAPS  H16S 9147   5.571   2.854   8.367 -0.5900 -1.6535 -1.0267
   93SAPS  C217 9148   5.492   3.045   8.434 -0.6006  0.3849  0.8688
   93SAPS  H17R 9149   5.494   3.154   8.413 -0.1524  0.4071  1.0344
   93SAPS  H17S 9150   5.554   3.034   8.526 -0.9333 -0.9159  0.9486
   93SAPS  C218 9151   5.352   3.000   8.486  0.2356 -0.3557 -0.1825
   93SAPS  H18R 9152   5.268   3.012   8.414 -0.2946 -1.5979  0.2257
   93SAPS  H18S 9153   5.330   3.093   8.543  1.3059  1.2262 -2.2693
   93SAPS  C219 9154   5.342   2.869   8.565  0.3905  0.0818  0.3881
   93SAPS  H19R 9155   5.424   2.852   8.639 -0.1550  0.9973  1.2026
   93SAPS  H19S 9156   5.361   2.781   8.499 -1.4954  0.6471 -0.9506
   93SAPS  C220 9157   5.213   2.837   8.642 -0.6402  0.2783 -0.1657
   93SAPS  H20R 9158   5.204   2.730   8.672 -0.8191 -0.0781 -1.4655
   93SAPS  H20S 9159   5.122   2.862   8.584 -0.8142  1.5706  0.6498
   93SAPS  H20T 9160   5.198   2.900   8.732 -1.0775 -0.9613  0.6352
   93SAPS   C33 9161   5.792   2.823   7.044 -0.0566  0.2085  0.0780
   93SAPS   H3X 9162   5.802   2.719   7.082  0.7753  0.5606  0.8285
   93SAPS   H3Y 9163   5.705   2.864   7.100  0.5143  1.2427  0.2186
   93SAPS   C34 9164   5.923   2.892   7.083 -0.1399 -0.1674 -0.1932
   93SAPS   H4X 9165   5.935   2.989   7.030 -2.7371  0.9312  1.1135
   93SAPS   H4Y 9166   5.999   2.829   7.033  1.5901  1.7157  0.0308
   93SAPS   C35 9167   5.959   2.923   7.223 -0.6033  0.3941 -0.1959
   93SAPS   H5X 9168   5.902   3.009   7.264 -2.4975 -0.8887 -0.0644
   93SAPS   H5Y 9169   6.066   2.953   7.219 -0.3945 -0.3935 -0.6021
   93SAPS   C36 9170   5.943   2.804   7.314 -0.0638 -0.2797  0.2987
   93SAPS   H6X 9171   5.989   2.714   7.267 -0.4482  0.0814 -0.7844
   93SAPS   H6Y 9172   5.839   2.773   7.337  0.4697 -2.1736  0.2431
   93SAPS   C37 9173   6.031   2.817   7.446 -0.4802 -0.4300  0.3487
   93SAPS   H7X 9174   5.989   2.903   7.503 -2.1792 -1.3575  0.5376
   93SAPS   H7Y 9175   6.137   2.836   7.419 -1.2893  1.5772 -1.6175
   93SAPS   C38 9176   6.020   2.694   7.534  0.3886 -0.3289  0.0980
   93SAPS   H8X 9177   6.013   2.599   7.477  0.5813 -0.8731  0.9718
   93SAPS   H8Y 9178   5.925   2.697   7.593  1.7652 -0.9114  2.4072
   93SAPS   C39 9179   6.127   2.699   7.642 -0.4356 -0.5103 -0.2861
   93SAPS   H9X 9180   6.125   2.800   7.688 -1.5910  0.3106 -2.1096
   93SAPS   H9Y 9181   6.227   2.699   7.594 -0.8511  2.7148 -1.2245
   93SAPS  C310 9182   6.115   2.589   7.748  0.1857  0.2776  0.2906
   93SAPS  H10X 9183   6.121   2.486   7.707 -0.2848 -0.1421  1.2465
   93SAPS  H10Y 9184   6.011   2.590   7.787 -0.8948  0.5256 -2.4796
   93SAPS  C311 9185   6.208   2.597   7.867  0.0465  0.2827  0.1251
   93SAPS  H11X 9186   6.257   2.696   7.880 -0.1481  1.1244 -4.5452
   93SAPS  H11Y 9187   6.288   2.520   7.858  0.7345  1.1795 -2.0283
   93SAPS  C312 9188   6.127   2.566   8.000 -0.2506  0.5615  0.3790
   93SAPS  H12X 9189   6.052   2.485   7.984 -1.6027  1.7371  0.6675
   93SAPS  H12Y 9190   6.074   2.660   8.028 -0.5063  0.7252 -0.6580
   93SAPS  C313 9191   6.227   2.538   8.120  0.4742 -0.1586 -0.7196
   93SAPS  H13X 9192   6.303   2.619   8.116  1.9212 -1.5360 -2.0293
   93SAPS  H13Y 9193   6.276   2.440   8.102  0.1261 -0.6949  1.1340
   93SAPS  C314 9194   6.152   2.512   8.252  0.0254  0.1057  0.1085
   93SAPS  H14X 9195   6.087   2.422   8.244 -1.2077  0.9070  0.9295
   93SAPS  H14Y 9196   6.084   2.598   8.273  0.2625  0.5925 -1.0639
   93SAPS  C315 9197   6.239   2.481   8.377  0.0800  0.0546 -0.4843
   93SAPS  H15X 9198   6.316   2.560   8.389  0.1393 -0.0422 -0.2299
   93SAPS  H15Y 9199   6.289   2.383   8.358  1.2174  0.5023  0.1450
   93SAPS  C316 9200   6.163   2.453   8.514  1.2653 -0.7173  0.0152
   93SAPS  H16X 9201   6.098   2.541   8.533 -1.1643 -3.0865  3.2008
   93SAPS  H16Y 9202   6.236   2.470   8.596  1.8779  0.2027 -0.7072
   93SAPS  C317 9203   6.092   2.317   8.524  0.7018  0.2314  0.9971
   93SAPS  H17X 9204   6.171   2.239   8.526 -0.2433 -0.7686  0.0484
   93SAPS  H17Y 9205   6.035   2.310   8.429  2.9895  1.3349 -0.4918
   93SAPS  C318 9206   6.003   2.301   8.646 -0.5578  0.1651  0.5537
   93SAPS  H18X 9207   6.057   2.247   8.728 -1.2538 -0.5741  0.5338
   93SAPS  H18Y 9208   5.908   2.252   8.616 -0.2324  2.2852 -4.3811
   93SAPS  H18Z 9209   5.969   2.402   8.676  1.9424  1.8763 -2.1728
   94SAPS     N 9210   4.771   5.290   6.177 -0.5254 -0.6535  0.7641
   94SAPS   HN1 9211   4.835   5.262   6.253  0.4857  1.1665  0.6295
   94SAPS   HN2 9212   4.795   5.391   6.162  0.0604 -0.9629 -0.4647
   94SAPS   HN3 9213   4.670   5.282   6.201 -1.1499  2.0647 -0.7378
   94SAPS   C12 9214   4.794   5.217   6.048  0.7702 -0.5612 -0.0636
   94SAPS  H12A 9215   4.857   5.133   6.073 -0.3822 -1.3385  0.2947
   94SAPS   C13 9216   4.658   5.152   6.000 -0.8835 -0.6800 -0.4429
   94SAPS  O13A 9217   4.559   5.150   6.083  0.0397  0.1979  1.1255
   94SAPS  O13B 9218   4.660   5.082   5.895  0.7865 -0.1342 -0.9556
   94SAPS   C11 9219   4.855   5.313   5.940  0.2026  0.5447  0.3365
   94SAPS  H11A 9220   4.780   5.394   5.936 -2.9226 -2.2263  0.2321
   94SAPS  H11B 9221   4.870   5.268   5.839  1.5467 -0.1181  0.8168
   94SAPS     P 9222   5.038   5.495   5.942 -0.1061  0.6870 -0.2998
   94SAPS   O13 9223   5.029   5.495   5.790 -0.2321  0.4097 -0.5341
   94SAPS   O14 9224   4.984   5.612   6.018 -0.0617 -0.3988  0.1850
   94SAPS   O12 9225   4.975   5.357   5.995  0.3416 -0.7033 -0.0976
   94SAPS   O11 9226   5.191   5.484   5.987  0.3304 -0.1102 -0.1148
   94SAPS    C1 9227   5.258   5.369   6.033  0.1431  0.0233  0.2316
   94SAPS    HA 9228   5.236   5.281   5.970  3.9061 -1.2207  0.5276
   94SAPS    HB 9229   5.367   5.394   6.034 -0.5802  3.5067 -0.2457
   94SAPS    C2 9230   5.225   5.341   6.183 -0.2486  0.0984  0.3528
   94SAPS    HS 9231   5.114   5.343   6.190 -0.2638 -1.2005  0.7737
   94SAPS   O21 9232   5.285   5.432   6.269  0.0679  0.0433  0.0375
   94SAPS   C21 9233   5.205   5.521   6.334 -0.2628  0.0200  0.0693
   94SAPS   O22 9234   5.085   5.524   6.337 -0.2403  0.0240  0.5336
   94SAPS   C22 9235   5.290   5.618   6.412 -0.1016  0.0018  0.3621
   94SAPS   H2R 9236   5.364   5.654   6.338 -0.1184  0.8045  0.7261
   94SAPS   H2S 9237   5.226   5.705   6.440 -1.4774 -0.7727 -0.3148
   94SAPS    C3 9238   5.264   5.196   6.238 -0.1609  0.6448  0.2554
   94SAPS    HX 9239   5.374   5.180   6.239 -0.4028 -1.1171  0.8192
   94SAPS    HY 9240   5.220   5.122   6.167  1.5328  0.2377 -0.3981
   94SAPS   O31 9241   5.227   5.170   6.373 -0.0387  0.5515 -0.4864
   94SAPS   C31 9242   5.090   5.182   6.404  0.5740  0.0700 -0.0964
   94SAPS   O32 9243   5.003   5.209   6.324 -0.4534  0.1841 -0.6268
   94SAPS   C32 9244   5.065   5.157   6.554  0.7432 -0.1283 -0.1215
   94SAPS   H2X 9245   5.141   5.079   6.581  0.2301  0.0897  2.0190
   94SAPS   H2Y 9246   4.966   5.111   6.573  1.4775 -2.0255 -0.7099
   94SAPS   C23 9247   5.355   5.545   6.529  0.2658 -0.7061  0.1548
   94SAPS   H3R 9248   5.389   5.444   6.499  4.6506  0.5250  0.6094
   94SAPS   H3S 9249   5.277   5.539   6.608 -1.4050 -2.9957 -1.6146
   94SAPS   C24 9250   5.477   5.621   6.584  0.0976 -0.4559  0.1547
   94SAPS   H4R 9251   5.445   5.701   6.654  1.2965 -0.6519  0.9347
   94SAPS   H4S 9252   5.536   5.658   6.497 -0.7253 -0.1220 -0.2693
   94SAPS   C25 9253   5.569   5.534   6.668 -0.5495 -0.2000  0.3640
   94SAPS   H5R 9254   5.616   5.451   6.614  0.7223 -0.3379  1.6427
   94SAPS   C26 9255   5.604   5.539   6.798  0.0573  0.7106 -0.0393
   94SAPS   H6R 9256   5.676   5.465   6.835  0.4175  0.7876 -0.5742
   94SAPS   C27 9257   5.554   5.636   6.904  0.7613 -0.0028 -0.1050
   94SAPS   H7R 9258   5.518   5.575   6.990  1.6304 -1.3517 -0.6808
   94SAPS   H7S 9259   5.474   5.705   6.872 -0.3095 -0.9891  0.3846
   94SAPS   C28 9260   5.678   5.713   6.941  0.8453 -0.4945 -0.7274
   94SAPS   H8R 9261   5.732   5.777   6.869 -0.3319  0.8912 -0.4081
   94SAPS   C29 9262   5.733   5.714   7.066  0.7439  0.1893  0.1996
   94SAPS   H9R 9263   5.828   5.770   7.073 -0.2993  2.3876 -2.1602
   94SAPS  C210 9264   5.675   5.655   7.193 -0.7262 -0.4803 -0.4046
   94SAPS  H10R 9265   5.757   5.636   7.265 -2.0742  1.1036  1.6107
   94SAPS  H10S 9266   5.627   5.558   7.166 -2.9818  0.2015  1.0094
   94SAPS  C211 9267   5.564   5.749   7.246  0.3757 -0.2137  0.6302
   94SAPS  H11R 9268   5.490   5.801   7.183  1.9258 -0.6924 -1.6669
   94SAPS  C212 9269   5.539   5.765   7.375  0.2626 -0.1962 -0.4050
   94SAPS  H12R 9270   5.477   5.846   7.416 -1.8018 -2.6000  1.3919
   94SAPS  C213 9271   5.609   5.696   7.485 -0.1907  0.2232 -0.0616
   94SAPS  H13R 9272   5.692   5.763   7.514 -1.0410  0.4270  2.0023
   94SAPS  H13S 9273   5.656   5.601   7.452  0.9435  0.5204  0.6862
   94SAPS  C214 9274   5.503   5.671   7.598 -0.5085  0.1862 -0.4613
   94SAPS  H14R 9275   5.415   5.617   7.562 -0.4416  0.6654 -1.3740
   94SAPS  C215 9276   5.497   5.724   7.725 -0.0066 -0.2826  0.3323
   94SAPS  H15R 9277   5.413   5.699   7.792 -1.4028  1.3576 -0.7578
   94SAPS  C216 9278   5.602   5.818   7.786 -0.3367  0.1545 -0.4898
   94SAPS  H16R 9279   5.542   5.882   7.853 -0.4824 -0.5598  0.0680
   94SAPS  H16S 9280   5.645   5.880   7.704  0.5540  2.3850  1.6049
   94SAPS  C217 9281   5.712   5.740   7.851 -0.5466 -0.3273 -0.0927
   94SAPS  H17R 9282   5.768   5.687   7.771 -1.2686  0.0307 -0.8487
   94SAPS  H17S 9283   5.670   5.665   7.922 -0.9384 -0.1370 -0.1215
   94SAPS  C218 9284   5.797   5.844   7.936  0.3841  0.7243  0.4506
   94SAPS  H18R 9285   5.720   5.898   7.995  0.1681 -1.5394  2.3191
   94SAPS  H18S 9286   5.849   5.910   7.863  0.2371  0.4771  0.1206
   94SAPS  C219 9287   5.889   5.781   8.039  0.4558 -0.3490  0.3124
   94SAPS  H19R 9288   5.963   5.716   7.987 -0.5917  1.1273 -3.1020
   94SAPS  H19S 9289   5.818   5.719   8.099  0.8994 -0.1398  1.0664
   94SAPS  C220 9290   5.943   5.875   8.143 -0.3673 -0.1784  0.4712
   94SAPS  H20R 9291   5.864   5.938   8.189 -0.6429  0.5903 -1.0145
   94SAPS  H20S 9292   6.014   5.949   8.100 -1.7668  0.0383 -1.5150
   94SAPS  H20T 9293   5.999   5.818   8.220  0.8532  0.5310  0.1359
   94SAPS   C33 9294   5.088   5.288   6.633 -0.2595  0.4615  0.6459
   94SAPS   H3X 9295   5.174   5.333   6.580  0.1655 -1.3905 -0.2936
   94SAPS   H3Y 9296   5.110   5.274   6.741  1.6745 -0.6735  0.1266
   94SAPS   C34 9297   4.967   5.377   6.635  0.0941 -0.5792 -0.0793
   94SAPS   H4X 9298   4.879   5.319   6.671  1.1905 -0.7419  2.4721
   94SAPS   H4Y 9299   4.942   5.399   6.529 -1.7330 -0.9679  0.2492
   94SAPS   C35 9300   4.982   5.509   6.713 -0.1010 -0.1106 -0.2702
   94SAPS   H5X 9301   4.880   5.536   6.746 -1.0697 -1.9959 -1.5900
   94SAPS   H5Y 9302   5.021   5.590   6.648  0.7817  0.2995  0.7575
   94SAPS   C36 9303   5.063   5.497   6.843 -0.3322  0.4764  0.3749
   94SAPS   H6X 9304   5.173   5.501   6.826 -0.3421 -0.7755 -0.0837
   94SAPS   H6Y 9305   5.041   5.402   6.898  0.4128 -0.3785 -0.7863
   94SAPS   C37 9306   5.042   5.614   6.940 -0.0523 -0.3773 -0.4807
   94SAPS   H7X 9307   4.934   5.627   6.962  0.3506 -1.3601  2.2450
   94SAPS   H7Y 9308   5.085   5.714   6.916 -2.1099  0.7193  0.2244
   94SAPS   C38 9309   5.106   5.575   7.081 -0.2906 -0.3464 -0.2007
   94SAPS   H8X 9310   5.208   5.618   7.083 -0.0673 -0.8217 -0.9890
   94SAPS   H8Y 9311   5.120   5.465   7.086  0.1804 -0.2323  0.9811
   94SAPS   C39 9312   5.020   5.616   7.202  0.2326 -0.4401  0.1569
   94SAPS   H9X 9313   4.919   5.573   7.188  0.0540 -0.2963  0.9639
   94SAPS   H9Y 9314   5.011   5.726   7.213 -2.0693 -0.7911  2.1114
   94SAPS  C310 9315   5.075   5.550   7.327  0.0070  0.4867  1.0291
   94SAPS  H10X 9316   5.183   5.578   7.337  0.2955 -0.6600  1.2224
   94SAPS  H10Y 9317   5.062   5.440   7.312 -0.0982  0.7598 -1.0828
   94SAPS  C311 9318   4.997   5.590   7.461  0.3881 -0.4807  0.2562
   94SAPS  H11X 9319   5.050   5.526   7.536  0.5611 -1.9336 -1.0748
   94SAPS  H11Y 9320   4.891   5.571   7.437 -0.2234  0.3119  2.1968
   94SAPS  C312 9321   5.008   5.740   7.499 -0.7294 -0.2336 -0.4061
   94SAPS  H12X 9322   4.954   5.801   7.425  0.5932 -1.2151 -2.2164
   94SAPS  H12Y 9323   5.116   5.765   7.493 -0.6510  0.3070  2.2887
   94SAPS  C313 9324   4.969   5.780   7.641  0.1048  0.1645  0.7060
   94SAPS  H13X 9325   4.865   5.742   7.643 -0.9217  2.7939 -0.8704
   94SAPS  H13Y 9326   4.977   5.891   7.639  0.9268  0.1191  1.2245
   94SAPS  C314 9327   5.051   5.715   7.752  0.7249 -0.1059  0.5316
   94SAPS  H14X 9328   5.153   5.757   7.757  0.4119  0.6775  0.4390
   94SAPS  H14Y 9329   5.061   5.607   7.732 -0.9695 -0.0029 -1.1230
   94SAPS  C315 9330   4.983   5.737   7.885  0.1730 -0.2944 -0.9384
   94SAPS  H15X 9331   4.885   5.684   7.888  0.4666 -0.8027  0.0408
   94SAPS  H15Y 9332   4.968   5.846   7.899 -2.0679 -0.7919  0.9084
   94SAPS  C316 9333   5.073   5.704   8.008  0.5839  1.1193 -0.3006
   94SAPS  H16X 9334   5.172   5.754   8.013  0.8005  0.9847 -2.4281
   94SAPS  H16Y 9335   5.102   5.596   8.003 -0.6596  0.6332  2.4194
   94SAPS  C317 9336   5.003   5.733   8.148 -0.9121 -0.4188  0.1275
   94SAPS  H17X 9337   5.046   5.665   8.225  2.4476  1.7040  0.2043
   94SAPS  H17Y 9338   4.892   5.729   8.139 -0.9113  1.0987 -0.7719
   94SAPS  C318 9339   5.023   5.881   8.195  0.5076  0.4478  0.5384
   94SAPS  H18X 9340   4.961   5.897   8.285 -1.5366  1.4990 -1.0138
   94SAPS  H18Y 9341   4.989   5.957   8.122  0.2371  0.1084  0.3084
   94SAPS  H18Z 9342   5.133   5.892   8.212  1.2160 -2.6393 -1.5499
   95SAPS     N 9343   1.747   2.942   5.914  0.4428  0.4790 -0.0869
   95SAPS   HN1 9344   1.664   2.976   5.966 -0.3306 -0.8465 -0.4286
   95SAPS   HN2 9345   1.772   3.026   5.858 -2.2500  1.7310  0.5354
   95SAPS   HN3 9346   1.715   2.875   5.842  1.7749  0.0720 -0.3249
   95SAPS   C12 9347   1.870   2.895   5.976  0.0172  0.4294 -0.2101
   95SAPS  H12A 9348   1.852   2.793   6.009  0.1107 -0.0003 -1.4782
   95SAPS   C13 9349   2.000   2.903   5.894 -0.2490  0.7174 -0.2572
   95SAPS  O13A 9350   1.993   2.955   5.780 -0.0345 -0.1564  0.1120
   95SAPS  O13B 9351   2.101   2.832   5.930 -0.5289  0.1114 -0.1074
   95SAPS   C11 9352   1.900   2.982   6.105 -0.4301  0.3125 -0.1373
   95SAPS  H11A 9353   1.992   2.937   6.148  0.7272 -0.2306 -3.0501
   95SAPS  H11B 9354   1.811   2.967   6.170  0.5502  0.5322  1.2973
   95SAPS     P 9355   1.971   3.215   6.189 -0.1153 -0.3858 -0.0489
   95SAPS   O13 9356   2.095   3.169   6.254 -1.2659 -0.2567 -0.1662
   95SAPS   O14 9357   1.978   3.354   6.143  0.2419 -0.5317 -0.1994
   95SAPS   O12 9358   1.928   3.116   6.071  0.3485  0.2302  0.3598
   95SAPS   O11 9359   1.854   3.199   6.286  0.6640  0.4878  0.0294
   95SAPS    C1 9360   1.760   3.308   6.312  0.1478 -0.5488 -0.4344
   95SAPS    HA 9361   1.756   3.377   6.225 -1.5697  0.0187  0.0570
   95SAPS    HB 9362   1.653   3.277   6.322  0.8889 -3.3264 -0.8674
   95SAPS    C2 9363   1.806   3.387   6.431 -0.9073  0.3151 -0.0607
   95SAPS    HS 9364   1.906   3.427   6.404 -1.2972  1.1755 -0.2613
   95SAPS   O21 9365   1.809   3.308   6.556  0.2880 -0.4645  0.4269
   95SAPS   C21 9366   1.903   3.354   6.639  0.0908 -0.1584  0.5123
   95SAPS   O22 9367   1.983   3.447   6.618 -0.1709 -0.4772 -0.8202
   95SAPS   C22 9368   1.893   3.268   6.760 -0.3344  0.6647  0.1403
   95SAPS   H2R 9369   1.789   3.266   6.799 -0.7476 -0.5267 -0.9923
   95SAPS   H2S 9370   1.924   3.169   6.721  1.7500  0.6903  1.6492
   95SAPS    C3 9371   1.725   3.521   6.461 -0.2333 -0.3204  0.4619
   95SAPS    HX 9372   1.735   3.590   6.374  0.4074  1.0571  1.5964
   95SAPS    HY 9373   1.779   3.575   6.542 -0.3576  0.6081 -0.0662
   95SAPS   O31 9374   1.583   3.488   6.481  0.2533 -0.3771 -0.0639
   95SAPS   C31 9375   1.553   3.447   6.606  0.9216  0.0965 -0.8132
   95SAPS   O32 9376   1.624   3.477   6.705  0.2359 -0.2488  0.1414
   95SAPS   C32 9377   1.431   3.353   6.602 -0.0169  0.5452  0.2103
   95SAPS   H2X 9378   1.450   3.292   6.511  1.6585  1.7607 -0.3064
   95SAPS   H2Y 9379   1.346   3.423   6.589 -0.8322 -0.1304  1.8314
   95SAPS   C23 9380   1.990   3.317   6.873  0.9375  0.3601  0.3386
   95SAPS   H3R 9381   1.978   3.426   6.887 -1.8069  0.3504 -1.6619
   95SAPS   H3S 9382   2.096   3.302   6.845  0.8601 -1.8344  1.1293
   95SAPS   C24 9383   1.982   3.234   7.002 -0.2798 -0.1260  0.1762
   95SAPS   H4R 9384   1.888   3.279   7.039 -0.9797  0.7943 -2.5437
   95SAPS   H4S 9385   2.064   3.263   7.072 -0.2446 -1.8811  0.8716
   95SAPS   C25 9386   1.989   3.084   6.989 -0.2338 -0.0423 -0.2526
   95SAPS   H5R 9387   1.897   3.043   6.945 -1.6536  2.6796  0.0717
   95SAPS   C26 9388   2.086   2.999   7.029 -0.2721  0.1639  0.4241
   95SAPS   H6R 9389   2.087   2.891   7.005 -1.3729  0.0763  0.7297
   95SAPS   C27 9390   2.214   3.022   7.114  0.2188 -0.5170 -0.2122
   95SAPS   H7R 9391   2.191   2.982   7.216  0.8538 -1.3111 -0.3803
   95SAPS   H7S 9392   2.236   3.130   7.120 -1.0320 -0.2249 -0.6693
   95SAPS   C28 9393   2.340   2.966   7.058 -0.4699 -0.6527 -0.1908
   95SAPS   H8R 9394   2.331   2.859   7.035  2.4393 -1.1629  0.8110
   95SAPS   C29 9395   2.454   3.031   7.023 -0.6489 -0.2722 -0.1798
   95SAPS   H9R 9396   2.533   2.968   6.981  0.8568  1.4343 -0.0021
   95SAPS  C210 9397   2.486   3.175   7.036 -0.4230 -0.1402  0.1406
   95SAPS  H10R 9398   2.490   3.208   7.142  0.1908  0.9018 -0.1891
   95SAPS  H10S 9399   2.406   3.241   6.997  1.4290  1.0041 -1.8499
   95SAPS  C211 9400   2.608   3.206   6.950  0.0356 -1.1073  0.4864
   95SAPS  H11R 9401   2.591   3.267   6.860  0.7137 -0.1232  1.0144
   95SAPS  C212 9402   2.741   3.193   6.979 -0.4963 -0.2171  0.1563
   95SAPS  H12R 9403   2.814   3.231   6.906 -1.5142 -2.6981 -2.2387
   95SAPS  C213 9404   2.787   3.130   7.110  1.0504 -0.1991  0.0696
   95SAPS  H13R 9405   2.847   3.039   7.087 -1.2835 -1.3446 -1.6164
   95SAPS  H13S 9406   2.698   3.104   7.171  1.6088  1.2288  1.5201
   95SAPS  C214 9407   2.874   3.221   7.192 -0.0393  0.0453 -0.2505
   95SAPS  H14R 9408   2.970   3.240   7.143 -0.4208  1.5435 -0.4420
   95SAPS  C215 9409   2.845   3.281   7.311  0.0300 -0.0113  0.0834
   95SAPS  H15R 9410   2.926   3.344   7.352 -0.4652 -0.5107  1.8818
   95SAPS  C216 9411   2.709   3.281   7.389 -0.0958  0.5507 -0.2348
   95SAPS  H16R 9412   2.732   3.212   7.474  1.2705  0.9761 -0.2444
   95SAPS  H16S 9413   2.625   3.253   7.323 -0.0904 -1.6419  0.6284
   95SAPS  C217 9414   2.683   3.410   7.468 -0.3586  0.1316 -0.2502
   95SAPS  H17R 9415   2.587   3.405   7.523 -0.7722 -1.0544 -1.0474
   95SAPS  H17S 9416   2.675   3.499   7.402  1.2113  0.9382  0.6206
   95SAPS  C218 9417   2.787   3.429   7.584 -0.6028  0.2846  0.2500
   95SAPS  H18R 9418   2.862   3.501   7.546 -0.0856 -1.1337 -1.5112
   95SAPS  H18S 9419   2.831   3.328   7.600 -2.1333 -0.3505  0.5484
   95SAPS  C219 9420   2.716   3.466   7.713 -0.6945 -0.1846 -0.3718
   95SAPS  H19R 9421   2.655   3.379   7.745  2.3817 -1.4365  2.4382
   95SAPS  H19S 9422   2.661   3.562   7.702 -0.8713  0.1124  2.4963
   95SAPS  C220 9423   2.810   3.499   7.832 -0.0213  0.2302 -0.9351
   95SAPS  H20R 9424   2.877   3.411   7.838 -2.3184 -1.5174  0.1059
   95SAPS  H20S 9425   2.769   3.505   7.936  3.8846 -0.2841  0.7317
   95SAPS  H20T 9426   2.868   3.592   7.813  1.2216 -0.0247  1.4354
   95SAPS   C33 9427   1.418   3.249   6.714  0.0370  0.3012  0.5044
   95SAPS   H3X 9428   1.515   3.202   6.739 -1.0306 -1.2587  1.7825
   95SAPS   H3Y 9429   1.340   3.173   6.692  1.5130 -1.7232  2.0857
   95SAPS   C34 9430   1.375   3.310   6.850  0.0149 -1.5584  0.7967
   95SAPS   H4X 9431   1.272   3.352   6.850  0.7680  0.3300  0.8518
   95SAPS   H4Y 9432   1.444   3.389   6.887 -1.0007 -0.4541  0.3655
   95SAPS   C35 9433   1.379   3.204   6.963 -0.3169 -0.2872 -0.1000
   95SAPS   H5X 9434   1.481   3.160   6.959 -0.5660 -0.8994  0.0978
   95SAPS   H5Y 9435   1.308   3.118   6.957  0.2069 -0.7348  0.0423
   95SAPS   C36 9436   1.356   3.271   7.101  0.2731 -0.6966  0.4013
   95SAPS   H6X 9437   1.254   3.262   7.144  1.3798 -0.3257  3.1961
   95SAPS   H6Y 9438   1.379   3.380   7.098 -1.2008 -0.3552  1.2008
   95SAPS   C37 9439   1.451   3.209   7.212 -0.2925  0.4809  0.2556
   95SAPS   H7X 9440   1.549   3.205   7.160 -1.0257  1.2807 -1.1952
   95SAPS   H7Y 9441   1.429   3.103   7.239 -0.2101  0.9193  2.1535
   95SAPS   C38 9442   1.451   3.295   7.342 -0.4722  0.3512  0.7225
   95SAPS   H8X 9443   1.347   3.325   7.364 -0.9406 -1.2709  0.7824
   95SAPS   H8Y 9444   1.505   3.389   7.316  0.4925 -0.6148 -0.8450
   95SAPS   C39 9445   1.528   3.229   7.458  0.0693 -0.3933  0.2095
   95SAPS   H9X 9446   1.522   3.294   7.548  0.2229 -0.8800  0.5763
   95SAPS   H9Y 9447   1.633   3.213   7.426 -0.0947  1.8780 -1.5227
   95SAPS  C310 9448   1.465   3.095   7.501 -0.3725  0.5158 -0.5179
   95SAPS  H10X 9449   1.461   3.022   7.418 -1.5002  0.5632 -0.5183
   95SAPS  H10Y 9450   1.360   3.104   7.537 -0.6656 -0.8195 -0.9985
   95SAPS  C311 9451   1.559   3.031   7.613 -0.7277  0.4906 -0.9678
   95SAPS  H11X 9452   1.660   3.074   7.597  0.2773 -1.2947  0.3918
   95SAPS  H11Y 9453   1.536   2.923   7.605  0.3241  0.0046  1.9419
   95SAPS  C312 9454   1.517   3.070   7.749  0.2077  0.2237  0.2959
   95SAPS  H12X 9455   1.406   3.065   7.756  0.2826 -0.9295  0.6801
   95SAPS  H12Y 9456   1.549   3.176   7.759  1.4960 -0.1410  0.0830
   95SAPS  C313 9457   1.584   2.992   7.860 -0.6786  1.0221  0.0676
   95SAPS  H13X 9458   1.693   2.989   7.836 -0.7343 -0.2435 -0.0296
   95SAPS  H13Y 9459   1.548   2.887   7.870  2.7200 -0.0769  1.6557
   95SAPS  C314 9460   1.561   3.067   7.997 -0.6382  1.0208 -0.3580
   95SAPS  H14X 9461   1.611   3.167   7.988  1.2211  0.2113  0.5831
   95SAPS  H14Y 9462   1.609   3.015   8.083 -0.5276  1.1846 -0.3180
   95SAPS  C315 9463   1.417   3.089   8.028 -0.4693 -0.1691 -0.0346
   95SAPS  H15X 9464   1.363   2.992   8.020 -1.3940  0.4170 -1.0648
   95SAPS  H15Y 9465   1.377   3.167   7.959 -1.0275  0.1236  0.6165
   95SAPS  C316 9466   1.391   3.139   8.174  0.0787 -0.7274 -0.0727
   95SAPS  H16X 9467   1.396   3.047   8.235  1.8266  0.4436  1.6514
   95SAPS  H16Y 9468   1.289   3.181   8.185  0.3349 -0.5950  1.9373
   95SAPS  C317 9469   1.501   3.220   8.245  0.9708 -0.0408  0.2463
   95SAPS  H17X 9470   1.530   3.313   8.193  1.8480 -0.2291  0.3925
   95SAPS  H17Y 9471   1.594   3.159   8.254  0.6401 -0.8843 -1.7355
   95SAPS  C318 9472   1.465   3.271   8.388 -0.0468 -0.1088  0.2147
   95SAPS  H18X 9473   1.501   3.195   8.460  3.6201  1.8443  0.5573
   95SAPS  H18Y 9474   1.359   3.299   8.407 -0.3553 -1.2358  0.2032
   95SAPS  H18Z 9475   1.515   3.368   8.408 -0.8661  0.8474 -2.2011
   96SAPS     N 9476   3.085   3.840   6.303  0.0132 -0.9337 -0.3404
   96SAPS   HN1 9477   3.011   3.861   6.373 -0.9297 -1.2053 -1.2266
   96SAPS   HN2 9478   3.095   3.738   6.286  0.6343 -0.9728  0.2742
   96SAPS   HN3 9479   3.176   3.876   6.338  0.5265 -0.5456 -2.0272
   96SAPS   C12 9480   3.046   3.896   6.167  0.2175 -0.2772 -0.2754
   96SAPS  H12A 9481   3.127   3.877   6.097  0.0342  0.6368 -0.7479
   96SAPS   C13 9482   2.921   3.830   6.107 -0.3207  0.3137 -0.6524
   96SAPS  O13A 9483   2.867   3.730   6.164  0.2256 -0.1845 -0.8076
   96SAPS  O13B 9484   2.883   3.854   5.988  0.3894 -0.4940 -0.0193
   96SAPS   C11 9485   3.033   4.048   6.191  0.6668 -0.1054 -0.0367
   96SAPS  H11A 9486   2.988   4.084   6.095 -2.0839 -1.0442  0.8411
   96SAPS  H11B 9487   3.139   4.080   6.199  1.6717 -3.3245  0.1853
   96SAPS     P 9488   2.940   4.240   6.333  0.3018  0.0170 -0.5846
   96SAPS   O13 9489   2.936   4.320   6.212  0.3224 -0.0201 -0.1280
   96SAPS   O14 9490   2.828   4.259   6.429  0.3015  0.1736  0.3069
   96SAPS   O12 9491   2.945   4.086   6.297 -0.3144 -0.2056 -0.0356
   96SAPS   O11 9492   3.074   4.279   6.401 -0.2598  0.5930  0.7037
   96SAPS    C1 9493   3.121   4.205   6.516  0.7012  0.8113 -0.5323
   96SAPS    HA 9494   3.060   4.117   6.546  3.4537 -1.3413 -1.0353
   96SAPS    HB 9495   3.218   4.163   6.484  1.4725  2.7318 -0.7525
   96SAPS    C2 9496   3.145   4.297   6.641  0.2794  0.3499  0.0578
   96SAPS    HS 9497   3.190   4.239   6.724  0.6935  2.2555  1.1860
   96SAPS   O21 9498   3.010   4.355   6.683 -0.1270 -0.1054 -0.2822
   96SAPS   C21 9499   2.945   4.278   6.764 -0.1079 -0.3166 -0.4643
   96SAPS   O22 9500   2.987   4.176   6.817  0.5393 -0.2635 -0.4818
   96SAPS   C22 9501   2.834   4.366   6.829 -0.1992  0.0146  0.4073
   96SAPS   H2R 9502   2.884   4.454   6.874  1.1817 -0.1826 -0.7297
   96SAPS   H2S 9503   2.765   4.390   6.745  1.6787 -1.4481 -1.6220
   96SAPS    C3 9504   3.223   4.423   6.589 -0.5333  0.2159 -0.1787
   96SAPS    HX 9505   3.144   4.466   6.524 -0.1486  0.1950 -0.6649
   96SAPS    HY 9506   3.309   4.385   6.531  0.6134 -0.4512  1.9045
   96SAPS   O31 9507   3.267   4.507   6.696 -0.3342 -0.1114 -0.4399
   96SAPS   C31 9508   3.197   4.610   6.722  0.1345 -0.3339  0.0149
   96SAPS   O32 9509   3.118   4.672   6.651 -0.0229 -0.1104  0.0660
   96SAPS   C32 9510   3.221   4.653   6.865  0.1900 -0.8738  0.3371
   96SAPS   H2X 9511   3.162   4.744   6.891  1.8202 -0.3677  2.4550
   96SAPS   H2Y 9512   3.331   4.667   6.879 -0.3225  1.8442  1.9828
   96SAPS   C23 9513   2.770   4.292   6.942 -0.4957  0.0278  0.4585
   96SAPS   H3R 9514   2.842   4.265   7.023 -1.0860 -1.3895  0.5134
   96SAPS   H3S 9515   2.702   4.213   6.903 -1.7961  0.5266  1.6758
   96SAPS   C24 9516   2.651   4.381   6.997  0.0707 -0.2966  0.3485
   96SAPS   H4R 9517   2.577   4.317   7.049 -1.2578  0.2416 -0.8193
   96SAPS   H4S 9518   2.600   4.413   6.903 -0.9653  1.6076  1.5257
   96SAPS   C25 9519   2.699   4.500   7.083 -0.3909  0.4901  0.5106
   96SAPS   H5R 9520   2.741   4.586   7.030  0.2340 -1.1940 -1.8565
   96SAPS   C26 9521   2.708   4.491   7.220 -0.2938 -0.4291  0.7792
   96SAPS   H6R 9522   2.762   4.577   7.262  1.3829 -0.5549 -1.0373
   96SAPS   C27 9523   2.673   4.382   7.313 -0.0219  0.2000 -0.3736
   96SAPS   H7R 9524   2.675   4.282   7.265  1.6409 -0.0124  0.0976
   96SAPS   H7S 9525   2.568   4.386   7.350  0.1551  0.6613  0.0737
   96SAPS   C28 9526   2.761   4.371   7.435  0.4863  1.0180  0.4179
   96SAPS   H8R 9527   2.846   4.306   7.406  1.1522  2.3111 -0.5626
   96SAPS   C29 9528   2.765   4.431   7.560  0.4825 -0.0108  0.3188
   96SAPS   H9R 9529   2.842   4.389   7.626 -0.2421 -3.3336 -0.8209
   96SAPS  C210 9530   2.667   4.533   7.617  0.2602  0.1219  0.1332
   96SAPS  H10R 9531   2.572   4.491   7.657 -0.1051 -1.1315 -1.9813
   96SAPS  H10S 9532   2.634   4.595   7.531  0.8304 -0.7713 -0.7278
   96SAPS  C211 9533   2.725   4.624   7.725  0.5985  0.2955  0.5052
   96SAPS  H11R 9534   2.752   4.726   7.695 -1.9745  0.5207 -1.2694
   96SAPS  C212 9535   2.739   4.587   7.849  0.2424  0.2141  0.0781
   96SAPS  H12R 9536   2.776   4.672   7.908  0.8945 -0.6967  0.9699
   96SAPS  C213 9537   2.707   4.452   7.913 -1.2826  0.0157 -0.6384
   96SAPS  H13R 9538   2.784   4.376   7.887 -1.6181 -1.6584  2.9980
   96SAPS  H13S 9539   2.605   4.417   7.887 -1.3512 -1.7757  1.9534
   96SAPS  C214 9540   2.708   4.482   8.065 -1.0675  0.2550 -0.4279
   96SAPS  H14R 9541   2.615   4.514   8.113 -0.8054 -0.5224  0.6406
   96SAPS  C215 9542   2.814   4.465   8.149 -0.3411 -0.4195 -0.2280
   96SAPS  H15R 9543   2.798   4.499   8.252 -0.2645 -2.6892  0.5772
   96SAPS  C216 9544   2.951   4.417   8.099 -0.5969 -0.2884 -0.1495
   96SAPS  H16R 9545   3.017   4.486   8.155 -0.9697 -0.5379  0.6117
   96SAPS  H16S 9546   2.963   4.439   7.991  1.2968  2.8865  0.6535
   96SAPS  C217 9547   2.982   4.272   8.137 -0.3285  0.2761  0.0376
   96SAPS  H17R 9548   3.089   4.254   8.114 -0.7736 -1.2656 -0.8921
   96SAPS  H17S 9549   2.928   4.205   8.067  1.0554 -2.4215  1.4944
   96SAPS  C218 9550   2.966   4.233   8.286  0.4492  0.2732 -0.7731
   96SAPS  H18R 9551   2.859   4.231   8.319  1.4611  2.0961  2.9408
   96SAPS  H18S 9552   3.020   4.312   8.343  0.4605 -0.9008  0.8651
   96SAPS  C219 9553   3.019   4.100   8.326  0.0734 -0.3631  0.5608
   96SAPS  H19R 9554   3.115   4.080   8.274 -0.7074  2.4339 -2.1185
   96SAPS  H19S 9555   2.954   4.026   8.275 -0.8805  0.8123  0.0567
   96SAPS  C220 9556   3.016   4.061   8.465 -0.2776  0.0006 -0.3922
   96SAPS  H20R 9557   2.924   4.065   8.527 -0.1218  1.2769 -0.2186
   96SAPS  H20S 9558   3.076   4.145   8.507 -0.4087  0.4311 -1.0647
   96SAPS  H20T 9559   3.068   3.965   8.487 -2.1788 -0.7120  1.1421
   96SAPS   C33 9560   3.187   4.534   6.957 -0.4119 -0.9306  0.3702
   96SAPS   H3X 9561   3.270   4.461   6.958  1.4462  1.0570 -2.5374
   96SAPS   H3Y 9562   3.086   4.496   6.929 -1.5804  0.9367  1.9041
   96SAPS   C34 9563   3.176   4.586   7.104  0.1140 -0.3218  0.3295
   96SAPS   H4X 9564   3.259   4.659   7.114  0.7614 -0.9632 -0.2697
   96SAPS   H4Y 9565   3.192   4.500   7.173 -2.5031 -2.3817 -1.5213
   96SAPS   C35 9566   3.039   4.639   7.135  0.0141 -0.6569 -0.1433
   96SAPS   H5X 9567   2.972   4.553   7.157 -0.4900 -0.3121 -0.3242
   96SAPS   H5Y 9568   3.011   4.693   7.042 -2.0466 -0.3970  0.5963
   96SAPS   C36 9569   3.042   4.718   7.264  0.4193  0.1323  0.1887
   96SAPS   H6X 9570   2.937   4.744   7.290  0.4510 -0.5988  1.0380
   96SAPS   H6Y 9571   3.098   4.812   7.242  2.8514 -1.4654 -0.6092
   96SAPS   C37 9572   3.092   4.638   7.380  0.0837 -0.2551 -0.5170
   96SAPS   H7X 9573   3.199   4.612   7.367 -0.5344 -3.1207 -0.1548
   96SAPS   H7Y 9574   3.036   4.543   7.382 -1.7328  0.8106  0.1971
   96SAPS   C38 9575   3.064   4.697   7.517 -0.0351  0.2142  0.3696
   96SAPS   H8X 9576   3.071   4.618   7.594  0.6019 -0.5853 -0.4892
   96SAPS   H8Y 9577   2.963   4.739   7.529 -0.8242 -1.8475  1.1658
   96SAPS   C39 9578   3.166   4.812   7.537 -0.1994  0.1055  0.6920
   96SAPS   H9X 9579   3.160   4.888   7.457  3.6910 -2.1376 -1.9095
   96SAPS   H9Y 9580   3.264   4.759   7.532 -2.0024 -3.1018 -2.6056
   96SAPS  C310 9581   3.160   4.880   7.676  0.6403 -0.0511 -0.1072
   96SAPS  H10X 9582   3.051   4.904   7.683  0.7960  1.2082 -1.7276
   96SAPS  H10Y 9583   3.224   4.970   7.674  0.0434  0.3580 -2.5019
   96SAPS  C311 9584   3.193   4.785   7.788  0.5296  0.1605 -0.3232
   96SAPS  H11X 9585   3.296   4.744   7.773  0.8145  0.7877 -0.0874
   96SAPS  H11Y 9586   3.127   4.696   7.785  1.0903 -0.3046  0.7258
   96SAPS  C312 9587   3.178   4.857   7.924 -0.2395 -0.0650 -0.5056
   96SAPS  H12X 9588   3.072   4.885   7.944  0.1853  1.9565 -0.9485
   96SAPS  H12Y 9589   3.222   4.959   7.924 -0.8029  0.2069  1.4972
   96SAPS  C313 9590   3.231   4.766   8.031 -0.7544  0.1255 -0.3606
   96SAPS  H13X 9591   3.336   4.739   8.006 -0.2563  2.1051 -0.4516
   96SAPS  H13Y 9592   3.182   4.666   8.025 -1.0053  0.3625 -2.7338
   96SAPS  C314 9593   3.205   4.830   8.170 -0.4532 -0.4578  0.5635
   96SAPS  H14X 9594   3.100   4.866   8.177 -0.7218 -1.1970  0.4432
   96SAPS  H14Y 9595   3.260   4.924   8.192 -1.9805  0.7826 -0.7527
   96SAPS  C315 9596   3.236   4.733   8.283  0.0075  0.2758  0.0722
   96SAPS  H15X 9597   3.298   4.779   8.362 -0.2959  0.3959  0.2415
   96SAPS  H15Y 9598   3.292   4.651   8.234 -0.1203  0.1319  0.1676
   96SAPS  C316 9599   3.113   4.677   8.356 -0.1299 -0.9492  0.0112
   96SAPS  H16X 9600   3.028   4.645   8.292  0.1855  0.2760 -1.0281
   96SAPS  H16Y 9601   3.072   4.757   8.421  0.5475  0.3068 -1.0956
   96SAPS  C317 9602   3.144   4.558   8.447  0.1564 -0.2739  0.1691
   96SAPS  H17X 9603   3.238   4.585   8.501 -0.8216  1.1387  1.2015
   96SAPS  H17Y 9604   3.158   4.473   8.377  1.3686  1.0859 -1.2899
   96SAPS  C318 9605   3.035   4.518   8.538 -0.2143  0.4396  0.1070
   96SAPS  H18X 9606   3.065   4.420   8.581 -1.6406  1.2435  2.9780
   96SAPS  H18Y 9607   2.933   4.505   8.497 -0.4524 -1.4720  1.2517
   96SAPS  H18Z 9608   3.036   4.578   8.631 -0.2372  0.5178  0.0557
   97SAPS     N 9609   4.036   2.861   6.169 -0.1705  0.0537  0.3012
   97SAPS   HN1 9610   3.987   2.940   6.216  0.7806  1.0210 -0.3066
   97SAPS   HN2 9611   4.103   2.816   6.235 -0.2646 -1.6391 -0.7279
   97SAPS   HN3 9612   4.085   2.906   6.089  0.3271  1.3653  1.3214
   97SAPS   C12 9613   3.923   2.769   6.129  0.5861 -0.4666  0.0503
   97SAPS  H12A 9614   3.839   2.823   6.089  1.9627  0.0574 -2.2086
   97SAPS   C13 9615   3.941   2.656   6.026  0.6883  0.4868  0.4504
   97SAPS  O13A 9616   4.052   2.635   5.968 -0.1595 -0.2129 -0.5213
   97SAPS  O13B 9617   3.837   2.599   5.986  0.4192  0.3654  1.0179
   97SAPS   C11 9618   3.870   2.682   6.246 -0.3887 -0.3687  0.5221
   97SAPS  H11A 9619   3.953   2.615   6.278 -1.2549 -0.8463  1.8149
   97SAPS  H11B 9620   3.781   2.621   6.218 -0.1361  0.5012 -2.2844
   97SAPS     P 9621   3.903   2.796   6.489 -0.1701  0.3003  0.1857
   97SAPS   O13 9622   4.020   2.881   6.463 -0.4459  0.0961  0.0341
   97SAPS   O14 9623   3.801   2.855   6.583  0.7844  0.1027  0.1370
   97SAPS   O12 9624   3.828   2.769   6.347  0.1723 -0.2218 -0.1729
   97SAPS   O11 9625   3.966   2.661   6.546 -0.5627  0.2892  0.0781
   97SAPS    C1 9626   3.878   2.565   6.606  0.5995 -0.2684  0.3722
   97SAPS    HA 9627   3.774   2.566   6.568  0.1258 -1.9241  1.6043
   97SAPS    HB 9628   3.915   2.464   6.581 -1.3313 -0.8831 -0.0476
   97SAPS    C2 9629   3.860   2.576   6.761 -1.1242  0.2077 -0.0754
   97SAPS    HS 9630   3.836   2.682   6.783 -1.7861  0.1362 -0.4448
   97SAPS   O21 9631   3.984   2.540   6.818  0.4666 -0.5351  0.3165
   97SAPS   C21 9632   4.056   2.632   6.869 -0.1801 -0.5651 -0.9848
   97SAPS   O22 9633   4.034   2.749   6.852 -0.2347  0.1907  0.1547
   97SAPS   C22 9634   4.157   2.578   6.972  0.0374 -0.4223 -0.4653
   97SAPS   H2R 9635   4.183   2.476   6.938  0.1098 -0.5109 -0.1479
   97SAPS   H2S 9636   4.247   2.644   6.972 -0.0248 -0.2630  2.0990
   97SAPS    C3 9637   3.746   2.486   6.808 -0.1773  0.5749 -0.1350
   97SAPS    HX 9638   3.652   2.511   6.755 -1.0426  1.0692  1.6312
   97SAPS    HY 9639   3.733   2.511   6.915 -0.7661  1.5618 -0.4344
   97SAPS   O31 9640   3.773   2.341   6.796 -0.5639 -0.5977  0.5658
   97SAPS   C31 9641   3.848   2.291   6.896 -0.9356 -0.2854  0.9579
   97SAPS   O32 9642   3.895   2.354   6.987 -0.5557 -0.2068 -0.0422
   97SAPS   C32 9643   3.856   2.138   6.888 -0.2058  0.4799 -0.1992
   97SAPS   H2X 9644   3.914   2.101   6.801  1.0028 -0.1999  0.8605
   97SAPS   H2Y 9645   3.751   2.104   6.881 -0.0944  0.4355 -1.8424
   97SAPS   C23 9646   4.089   2.595   7.116 -0.2483  0.0833  0.7163
   97SAPS   H3R 9647   4.004   2.524   7.121 -0.6554  0.5165  0.1273
   97SAPS   H3S 9648   4.040   2.693   7.136  0.5402  0.9081 -1.2375
   97SAPS   C24 9649   4.185   2.564   7.225  0.2085  0.0567  0.8013
   97SAPS   H4R 9650   4.136   2.577   7.324 -0.2169 -0.3191  0.6456
   97SAPS   H4S 9651   4.274   2.629   7.219  0.6436 -0.5394  0.6626
   97SAPS   C25 9652   4.225   2.412   7.209 -0.0668 -0.4193 -0.4556
   97SAPS   H5R 9653   4.299   2.384   7.132 -0.1229 -1.0389 -0.2845
   97SAPS   C26 9654   4.159   2.312   7.270  0.8548  0.1326 -0.6450
   97SAPS   H6R 9655   4.176   2.206   7.245  0.1385 -0.0256 -0.4822
   97SAPS   C27 9656   4.040   2.315   7.359 -0.4765 -0.2556 -1.3999
   97SAPS   H7R 9657   3.978   2.396   7.315  2.1555  2.1741 -0.7698
   97SAPS   H7S 9658   4.073   2.366   7.452 -1.9104 -1.8385  0.0058
   97SAPS   C28 9659   3.958   2.196   7.373  0.8317  0.1469 -0.0997
   97SAPS   H8R 9660   3.868   2.185   7.311  1.4184  1.2356 -1.1667
   97SAPS   C29 9661   3.961   2.114   7.480  0.2394  0.4623 -0.2230
   97SAPS   H9R 9662   3.895   2.027   7.477  2.4341 -1.4279  2.7440
   97SAPS  C210 9663   4.055   2.119   7.602 -0.1295 -1.0749 -0.0717
   97SAPS  H10R 9664   4.015   2.203   7.663 -4.2751 -2.5623 -0.5514
   97SAPS  H10S 9665   4.156   2.142   7.563 -1.2052 -0.1712 -2.4009
   97SAPS  C211 9666   4.058   1.990   7.680 -0.2960  0.6138  0.0709
   97SAPS  H11R 9667   4.102   1.906   7.624  0.5548  1.9947 -1.3619
   97SAPS  C212 9668   4.033   1.971   7.810  0.0512 -0.1205  0.5632
   97SAPS  H12R 9669   4.028   1.868   7.848  0.3272  0.2182  1.5422
   97SAPS  C213 9670   3.988   2.077   7.908 -0.7345  0.1167 -0.8322
   97SAPS  H13R 9671   3.919   2.156   7.872 -1.8370 -0.3231  0.2708
   97SAPS  H13S 9672   4.079   2.134   7.934  1.7123 -3.5371 -1.0578
   97SAPS  C214 9673   3.926   2.013   8.034 -0.4493  0.1113  0.0882
   97SAPS  H14R 9674   3.944   1.908   8.062  4.0677  1.4172  2.5847
   97SAPS  C215 9675   3.864   2.085   8.128  0.0013  0.0540 -0.2685
   97SAPS  H15R 9676   3.831   2.034   8.220 -1.3409 -0.9985 -1.3173
   97SAPS  C216 9677   3.843   2.237   8.126  0.2483 -0.1716  0.3325
   97SAPS  H16R 9678   3.739   2.271   8.147 -0.9516 -1.1089 -3.6234
   97SAPS  H16S 9679   3.864   2.284   8.027  0.3910 -0.2438  0.3282
   97SAPS  C217 9680   3.935   2.310   8.228 -0.1029  0.1090  0.1835
   97SAPS  H17R 9681   4.039   2.287   8.197  0.6166  1.5750  1.4427
   97SAPS  H17S 9682   3.924   2.257   8.326 -2.4623 -2.8330 -1.5749
   97SAPS  C218 9683   3.931   2.458   8.224 -0.6488 -0.0047  0.0527
   97SAPS  H18R 9684   3.829   2.501   8.227 -0.7285 -0.1160 -0.7326
   97SAPS  H18S 9685   3.985   2.488   8.131  0.8381 -0.9773  0.5704
   97SAPS  C219 9686   3.994   2.524   8.346 -1.0104 -0.0910  0.0261
   97SAPS  H19R 9687   3.993   2.634   8.329  1.1506  0.1183  1.0942
   97SAPS  H19S 9688   4.100   2.491   8.357 -1.2286 -1.1866 -1.0671
   97SAPS  C220 9689   3.935   2.482   8.483 -0.0494 -0.6765  0.5395
   97SAPS  H20R 9690   3.960   2.376   8.505  1.3551 -0.2713  0.9840
   97SAPS  H20S 9691   3.826   2.499   8.469  0.4056  0.5040 -1.9359
   97SAPS  H20T 9692   3.984   2.527   8.573  0.2427  1.0413 -0.4615
   97SAPS   C33 9693   3.912   2.068   7.017  0.0182 -0.4740  0.9531
   97SAPS   H3X 9694   3.834   2.077   7.096  1.0295 -1.4215  2.0859
   97SAPS   H3Y 9695   3.995   2.126   7.064  0.0230  0.9832 -0.7876
   97SAPS   C34 9696   3.946   1.920   6.990 -0.3140 -0.2138 -0.0195
   97SAPS   H4X 9697   4.041   1.916   6.933 -1.0950 -0.4755 -1.3282
   97SAPS   H4Y 9698   3.869   1.865   6.932  1.8606 -0.2848 -2.9869
   97SAPS   C35 9699   3.963   1.844   7.120 -0.2307 -0.0690 -0.2869
   97SAPS   H5X 9700   4.032   1.901   7.186  0.3206  0.0660 -0.9632
   97SAPS   H5Y 9701   4.007   1.743   7.102 -1.2683 -1.3246  3.7105
   97SAPS   C36 9702   3.830   1.828   7.197 -0.4101 -0.3846 -0.2190
   97SAPS   H6X 9703   3.757   1.787   7.125 -1.1588 -0.8782  0.8118
   97SAPS   H6Y 9704   3.791   1.926   7.232 -0.9153 -0.4926 -0.4769
   97SAPS   C37 9705   3.852   1.725   7.313 -0.8241 -0.2078 -0.6534
   97SAPS   H7X 9706   3.939   1.764   7.370 -1.5629  1.5902 -0.7271
   97SAPS   H7Y 9707   3.856   1.627   7.261  0.3267  1.2043 -3.3252
   97SAPS   C38 9708   3.726   1.729   7.402  0.2599 -0.1238 -0.2107
   97SAPS   H8X 9709   3.638   1.687   7.350  0.7937 -2.6656  0.8339
   97SAPS   H8Y 9710   3.690   1.828   7.435  1.6699  0.4867 -0.4366
   97SAPS   C39 9711   3.765   1.633   7.521 -0.0953 -0.2915 -0.0892
   97SAPS   H9X 9712   3.855   1.683   7.562  1.0036 -0.9117 -1.6831
   97SAPS   H9Y 9713   3.793   1.538   7.470 -2.4393 -1.4329  0.6764
   97SAPS  C310 9714   3.645   1.607   7.617  0.2821  0.6856  0.5279
   97SAPS  H10X 9715   3.601   1.509   7.588 -1.0173  1.1230  0.9747
   97SAPS  H10Y 9716   3.572   1.690   7.620 -2.0173 -1.2342 -0.4248
   97SAPS  C311 9717   3.698   1.577   7.761  0.1949  0.1415  1.0503
   97SAPS  H11X 9718   3.763   1.487   7.759  0.2543  0.1833  1.0700
   97SAPS  H11Y 9719   3.618   1.535   7.825 -0.6930 -0.3213 -0.3533
   97SAPS  C312 9720   3.763   1.690   7.833  0.1782 -0.0701  0.1327
   97SAPS  H12X 9721   3.739   1.790   7.790 -1.6777  0.2214  1.7915
   97SAPS  H12Y 9722   3.870   1.694   7.804  0.3070 -1.5088  0.3668
   97SAPS  C313 9723   3.731   1.693   7.987 -0.0022  0.6157  0.0253
   97SAPS  H13X 9724   3.621   1.681   7.993  0.0507 -2.1308 -3.0867
   97SAPS  H13Y 9725   3.765   1.787   8.035  1.7481 -0.7364  1.5116
   97SAPS  C314 9726   3.790   1.561   8.052  0.5556  0.4754 -0.2415
   97SAPS  H14X 9727   3.899   1.554   8.033  0.2538 -1.0118 -1.5149
   97SAPS  H14Y 9728   3.757   1.472   7.994 -0.3693  0.3265  0.5059
   97SAPS  C315 9729   3.759   1.535   8.199 -0.5985 -0.0946  0.3011
   97SAPS  H15X 9730   3.781   1.430   8.228 -0.6712 -0.7520 -1.9317
   97SAPS  H15Y 9731   3.649   1.522   8.210 -0.4292 -1.9838 -0.0496
   97SAPS  C316 9732   3.820   1.637   8.291 -0.1817 -1.0830  0.2439
   97SAPS  H16X 9733   3.771   1.735   8.272 -1.7319 -1.8722  0.0826
   97SAPS  H16Y 9734   3.923   1.655   8.254 -0.8786 -0.2899 -1.3671
   97SAPS  C317 9735   3.816   1.596   8.443 -0.3440 -0.0702  0.2230
   97SAPS  H17X 9736   3.900   1.524   8.454  0.6928  0.7835 -1.8831
   97SAPS  H17Y 9737   3.718   1.544   8.448  0.6119 -2.3179 -3.1935
   97SAPS  C318 9738   3.831   1.718   8.548 -0.1898  0.2893 -0.1721
   97SAPS  H18X 9739   3.838   1.688   8.655 -1.1493 -0.9091 -0.4332
   97SAPS  H18Y 9740   3.746   1.789   8.540 -0.9392 -0.5471  0.1388
   97SAPS  H18Z 9741   3.930   1.764   8.531  1.1133 -1.7149  1.6858
   98SAPS     N 9742   1.115   3.273   6.340 -0.6564 -0.0217 -0.2884
   98SAPS   HN1 9743   1.019   3.241   6.362 -1.1332  1.8883  0.5338
   98SAPS   HN2 9744   1.177   3.202   6.382  1.3735  0.5609 -2.1442
   98SAPS   HN3 9745   1.138   3.373   6.359  1.4360  0.2713 -3.6952
   98SAPS   C12 9746   1.133   3.247   6.194 -0.2135  0.4493  0.2157
   98SAPS  H12A 9747   1.103   3.144   6.179  0.3974  0.3702 -0.5407
   98SAPS   C13 9748   1.057   3.338   6.096  0.2042  0.2711 -0.7075
   98SAPS  O13A 9749   0.971   3.426   6.145 -0.1336 -0.1897 -0.3343
   98SAPS  O13B 9750   1.052   3.313   5.972 -0.0309 -0.2592 -0.4366
   98SAPS   C11 9751   1.276   3.272   6.156  0.2264  0.2106 -0.2620
   98SAPS  H11A 9752   1.300   3.370   6.203  1.2155  0.5983 -1.5485
   98SAPS  H11B 9753   1.298   3.290   6.048  0.7710 -1.3653 -0.4157
   98SAPS     P 9754   1.406   3.050   6.128  0.2188 -0.1625 -0.2096
   98SAPS   O13 9755   1.286   2.998   6.053  0.1962 -0.3003  1.3000
   98SAPS   O14 9756   1.531   3.070   6.053  0.0013 -0.1866 -0.9578
   98SAPS   O12 9757   1.365   3.177   6.213 -0.0441  0.4271 -0.0415
   98SAPS   O11 9758   1.447   2.952   6.243  0.1445  0.2526  0.0343
   98SAPS    C1 9759   1.551   3.015   6.328 -0.3403  0.3612  0.3091
   98SAPS    HA 9760   1.638   3.038   6.262 -0.1380 -2.0765 -0.3265
   98SAPS    HB 9761   1.513   3.107   6.378  0.5439  1.1107 -0.3829
   98SAPS    C2 9762   1.600   2.927   6.444 -0.3415  0.0697  0.5007
   98SAPS    HS 9763   1.657   2.839   6.406  0.9700  1.2446 -0.2943
   98SAPS   O21 9764   1.474   2.896   6.520 -0.3128 -0.0648  0.3085
   98SAPS   C21 9765   1.481   2.786   6.585 -0.6894 -0.2205  0.2684
   98SAPS   O22 9766   1.558   2.692   6.580 -0.0255 -0.4573 -0.2818
   98SAPS   C22 9767   1.366   2.792   6.687 -0.2139 -0.1966 -0.6929
   98SAPS   H2R 9768   1.320   2.894   6.691  0.8496  0.2488  0.4744
   98SAPS   H2S 9769   1.283   2.730   6.645 -1.8321  1.3144  0.1754
   98SAPS    C3 9770   1.708   3.005   6.526 -0.4471 -0.2139  0.2269
   98SAPS    HX 9771   1.666   3.105   6.552  1.3711  0.5753  0.1591
   98SAPS    HY 9772   1.786   3.028   6.452 -1.0537 -0.1839 -0.4060
   98SAPS   O31 9773   1.752   2.936   6.641  0.6448 -0.4411 -0.6022
   98SAPS   C31 9774   1.871   2.869   6.618 -0.2321  0.5510 -0.4226
   98SAPS   O32 9775   1.927   2.865   6.511  0.0507 -0.1026  0.6028
   98SAPS   C32 9776   1.920   2.797   6.741 -0.8095  0.2621 -0.6086
   98SAPS   H2X 9777   2.013   2.839   6.785 -1.1144  0.0700  0.2317
   98SAPS   H2Y 9778   1.943   2.694   6.707  0.9914  0.9580 -1.5627
   98SAPS   C23 9779   1.403   2.754   6.817 -0.1565 -0.1714 -1.1072
   98SAPS   H3R 9780   1.497   2.809   6.841 -0.4827 -0.6401  1.3027
   98SAPS   H3S 9781   1.427   2.645   6.824 -0.2232 -0.0246  1.8329
   98SAPS   C24 9782   1.290   2.766   6.929  0.2619 -0.2115  1.0646
   98SAPS   H4R 9783   1.264   2.874   6.929 -0.4461 -0.3766 -0.0447
   98SAPS   H4S 9784   1.335   2.745   7.029  3.2321  1.7906  0.2186
   98SAPS   C25 9785   1.162   2.690   6.894  0.0442  0.2798 -0.9601
   98SAPS   H5R 9786   1.132   2.698   6.788  2.5844 -3.1150 -2.0294
   98SAPS   C26 9787   1.086   2.613   6.976  0.0873 -0.2603  0.0177
   98SAPS   H6R 9788   0.991   2.577   6.935 -1.3020  1.6643  1.4766
   98SAPS   C27 9789   1.112   2.577   7.125 -0.0405 -0.2656  1.0370
   98SAPS   H7R 9790   1.213   2.532   7.129 -1.4206 -3.8719 -1.6076
   98SAPS   H7S 9791   1.054   2.495   7.171 -1.5992 -0.5349 -1.2871
   98SAPS   C28 9792   1.092   2.697   7.217  0.1783  0.5682  0.6328
   98SAPS   H8R 9793   1.028   2.779   7.183  1.1304  2.0366  2.2716
   98SAPS   C29 9794   1.149   2.727   7.335 -0.1549 -0.5205 -0.6530
   98SAPS   H9R 9795   1.113   2.816   7.389  0.4179 -0.2662 -0.6876
   98SAPS  C210 9796   1.246   2.638   7.412  0.5574 -0.5481  0.4496
   98SAPS  H10R 9797   1.313   2.582   7.343 -0.0419 -1.5214  0.6423
   98SAPS  H10S 9798   1.192   2.551   7.455  0.4273 -0.4594  0.4659
   98SAPS  C211 9799   1.328   2.707   7.522  0.0690 -0.3536  0.1150
   98SAPS  H11R 9800   1.375   2.802   7.493  1.6806 -1.5349 -1.1968
   98SAPS  C212 9801   1.341   2.671   7.654 -0.3791  0.4333 -0.3706
   98SAPS  H12R 9802   1.391   2.744   7.719  1.0305 -1.8485  1.1993
   98SAPS  C213 9803   1.276   2.549   7.722 -0.5647 -0.7059 -0.3096
   98SAPS  H13R 9804   1.360   2.477   7.734  0.0159 -0.5922 -3.2665
   98SAPS  H13S 9805   1.195   2.501   7.663  0.7846 -0.6986 -2.1885
   98SAPS  C214 9806   1.217   2.579   7.856  0.2617  0.0599 -0.3996
   98SAPS  H14R 9807   1.107   2.571   7.857  0.1250  1.8868  0.7919
   98SAPS  C215 9808   1.280   2.610   7.971  0.5037 -0.0753 -0.2997
   98SAPS  H15R 9809   1.215   2.632   8.057  1.1404 -0.6206  0.3337
   98SAPS  C216 9810   1.428   2.611   7.989 -0.9700 -0.3157 -0.3296
   98SAPS  H16R 9811   1.457   2.712   8.027 -0.2772 -0.8914  0.6882
   98SAPS  H16S 9812   1.473   2.616   7.887 -0.7144 -2.0238 -0.3010
   98SAPS  C217 9813   1.496   2.495   8.065  0.1334 -0.4987  0.8580
   98SAPS  H17R 9814   1.599   2.506   8.024 -0.8713  0.3660 -1.4907
   98SAPS  H17S 9815   1.467   2.394   8.029 -1.9142 -0.3274  1.9696
   98SAPS  C218 9816   1.506   2.516   8.213 -0.0077  0.7427 -0.8297
   98SAPS  H18R 9817   1.407   2.504   8.261 -0.0079  0.7252 -0.8351
   98SAPS  H18S 9818   1.544   2.617   8.238  0.3861  0.4775 -0.3392
   98SAPS  C219 9819   1.607   2.416   8.270 -0.3263  0.1287  0.2173
   98SAPS  H19R 9820   1.693   2.431   8.201 -0.7312  0.7837 -0.1516
   98SAPS  H19S 9821   1.571   2.311   8.261 -1.2279  0.4295  0.3098
   98SAPS  C220 9822   1.650   2.444   8.417 -0.3808 -0.5926  0.1995
   98SAPS  H20R 9823   1.691   2.547   8.421 -1.0433 -0.3281  0.2344
   98SAPS  H20S 9824   1.734   2.372   8.431  0.6042  0.5868  0.4783
   98SAPS  H20T 9825   1.574   2.420   8.493 -0.6098  1.3772  0.6136
   98SAPS   C33 9826   1.815   2.786   6.853  0.1946  0.4822  0.3761
   98SAPS   H3X 9827   1.711   2.774   6.815  0.7442  1.4077 -1.4918
   98SAPS   H3Y 9828   1.814   2.877   6.917 -0.6798  0.7608 -0.0229
   98SAPS   C34 9829   1.846   2.670   6.949 -0.3594 -0.3536  0.1458
   98SAPS   H4X 9830   1.925   2.705   7.018  1.1723 -2.0800 -0.7015
   98SAPS   H4Y 9831   1.889   2.591   6.884 -1.5648 -0.0659 -1.0192
   98SAPS   C35 9832   1.729   2.618   7.039  0.1271 -0.0431 -0.0921
   98SAPS   H5X 9833   1.757   2.526   7.095 -1.8277 -0.3071  0.5017
   98SAPS   H5Y 9834   1.646   2.590   6.971 -0.0396  1.8394 -0.6878
   98SAPS   C36 9835   1.671   2.718   7.145 -0.3715 -0.4489  0.2108
   98SAPS   H6X 9836   1.604   2.668   7.217 -1.0973  0.3136  0.0797
   98SAPS   H6Y 9837   1.606   2.793   7.094  0.6081  0.5438  0.3811
   98SAPS   C37 9838   1.785   2.792   7.223  0.5090  0.0344 -0.2385
   98SAPS   H7X 9839   1.858   2.845   7.158  2.2884 -2.6085 -0.4988
   98SAPS   H7Y 9840   1.836   2.713   7.283  2.3765  2.2226  1.1219
   98SAPS   C38 9841   1.740   2.911   7.310 -0.2672 -0.2015  0.4649
   98SAPS   H8X 9842   1.645   2.894   7.365  1.5187 -3.0156  2.8672
   98SAPS   H8Y 9843   1.722   2.999   7.246 -0.6145  0.3437  1.3028
   98SAPS   C39 9844   1.855   2.956   7.404  0.3931  0.2036 -0.3981
   98SAPS   H9X 9845   1.831   3.062   7.428 -3.7433 -0.7946  0.2303
   98SAPS   H9Y 9846   1.955   2.960   7.354  1.5574 -4.1230  1.3340
   98SAPS  C310 9847   1.862   2.870   7.531  0.5877 -0.4530  0.6961
   98SAPS  H10X 9848   1.909   2.774   7.501 -0.4268 -0.0958 -2.1418
   98SAPS  H10Y 9849   1.757   2.848   7.559  0.0857  0.2813 -0.5499
   98SAPS  C311 9850   1.939   2.937   7.644  0.2050 -0.4402  1.0271
   98SAPS  H11X 9851   1.939   2.879   7.739 -0.6845  0.1082  1.3698
   98SAPS  H11Y 9852   1.894   3.035   7.672 -0.5057 -0.3007 -0.5543
   98SAPS  C312 9853   2.083   2.958   7.591 -0.3918  0.4205  0.0679
   98SAPS  H12X 9854   2.091   3.044   7.522  1.5140 -1.2568 -1.8809
   98SAPS  H12Y 9855   2.114   2.871   7.530  0.3926  0.4630  0.4029
   98SAPS  C313 9856   2.170   2.975   7.714  1.0721  0.2510 -0.0751
   98SAPS  H13X 9857   2.177   2.880   7.771  1.0236  0.4620  0.2839
   98SAPS  H13Y 9858   2.132   3.051   7.786  1.4164 -3.3645  4.1068
   98SAPS  C314 9859   2.317   3.016   7.669  0.7044  0.5632 -0.0191
   98SAPS  H14X 9860   2.296   3.118   7.628 -0.6946  0.9335  1.5629
   98SAPS  H14Y 9861   2.348   2.942   7.592  0.2950  0.4368 -0.0631
   98SAPS  C315 9862   2.423   2.996   7.776 -0.3570 -0.3814 -0.4823
   98SAPS  H15X 9863   2.510   2.942   7.733 -0.5012 -2.1094  1.3226
   98SAPS  H15Y 9864   2.385   2.936   7.862  0.8219 -2.1597 -1.1775
   98SAPS  C316 9865   2.461   3.141   7.828  0.4503 -0.9193  0.0411
   98SAPS  H16X 9866   2.379   3.207   7.794  1.8260 -0.2391 -2.0957
   98SAPS  H16Y 9867   2.543   3.177   7.762 -1.2976  1.5196 -0.8611
   98SAPS  C317 9868   2.488   3.156   7.976  0.0400 -0.5695  0.4792
   98SAPS  H17X 9869   2.525   3.258   7.996  0.2891 -0.3837 -0.9026
   98SAPS  H17Y 9870   2.574   3.089   7.997 -1.7343 -2.7941  0.9051
   98SAPS  C318 9871   2.370   3.123   8.065 -0.1415 -0.5186 -0.4443
   98SAPS  H18X 9872   2.299   3.051   8.019 -0.0575 -0.6737 -0.3302
   98SAPS  H18Y 9873   2.307   3.212   8.083 -1.9057 -1.6568 -0.8695
   98SAPS  H18Z 9874   2.406   3.090   8.165 -0.5529 -0.5779 -0.3131
   99SAPS     N 9875   0.451   0.211   6.040  0.2581 -0.1096  0.4676
   99SAPS   HN1 9876   0.544   0.218   6.086  0.2900  0.1841  0.3626
   99SAPS   HN2 9877   0.381   0.233   6.113  1.0646 -0.8320  1.4633
   99SAPS   HN3 9878   0.422   0.122   5.994  0.0266  0.4507 -0.4996
   99SAPS   C12 9879   0.438   0.321   5.929  0.0619 -0.0087 -0.3334
   99SAPS  H12A 9880   0.523   0.303   5.865  1.3305 -0.9012  1.5608
   99SAPS   C13 9881   0.311   0.319   5.841 -0.0207 -0.1587 -0.9383
   99SAPS  O13A 9882   0.213   0.241   5.858 -0.5215  0.1703 -0.0140
   99SAPS  O13B 9883   0.312   0.398   5.742  0.3226  0.5676 -0.0332
   99SAPS   C11 9884   0.452   0.459   5.995 -0.2936 -0.4465  0.5972
   99SAPS  H11A 9885   0.361   0.483   6.055 -0.4705 -1.4728  0.7382
   99SAPS  H11B 9886   0.467   0.540   5.919  0.5353 -0.9962  0.1665
   99SAPS     P 9887   0.631   0.590   6.121 -0.0789 -0.0074  0.1295
   99SAPS   O13 9888   0.729   0.602   6.010 -0.7087  0.0351  0.7579
   99SAPS   O14 9889   0.523   0.692   6.129 -0.2478 -0.4516 -0.5259
   99SAPS   O12 9890   0.559   0.455   6.086 -0.1621 -0.8689 -0.5358
   99SAPS   O11 9891   0.704   0.572   6.264  0.2603  0.1026  0.1607
   99SAPS    C1 9892   0.616   0.536   6.367  0.0388  0.4116  0.4933
   99SAPS    HA 9893   0.562   0.621   6.413  0.1202  1.1134 -0.6970
   99SAPS    HB 9894   0.544   0.455   6.343  0.4527 -0.3755  1.8441
   99SAPS    C2 9895   0.680   0.475   6.494  0.3389  0.4629 -0.3478
   99SAPS    HS 9896   0.603   0.457   6.571  2.1356  0.6762  1.5487
   99SAPS   O21 9897   0.772   0.566   6.554  0.1648  0.1532 -0.1325
   99SAPS   C21 9898   0.732   0.643   6.648  0.5894 -0.3880 -0.4376
   99SAPS   O22 9899   0.612   0.662   6.673 -0.1437  0.4135  0.1905
   99SAPS   C22 9900   0.859   0.706   6.710 -1.0174  0.4546  0.1947
   99SAPS   H2R 9901   0.943   0.634   6.699 -1.2508  0.1831  0.1730
   99SAPS   H2S 9902   0.882   0.793   6.645 -1.0735 -1.7746 -2.8911
   99SAPS    C3 9903   0.745   0.339   6.456  1.0449 -0.0251  0.1981
   99SAPS    HX 9904   0.814   0.357   6.371  3.3019 -0.0870  1.9786
   99SAPS    HY 9905   0.664   0.273   6.415  2.0003  1.2630 -3.9963
   99SAPS   O31 9906   0.824   0.275   6.564 -0.1760 -0.1338 -0.8036
   99SAPS   C31 9907   0.951   0.301   6.577 -1.0558 -0.0190 -0.2744
   99SAPS   O32 9908   1.017   0.378   6.505 -0.1889 -0.2268  0.4522
   99SAPS   C32 9909   1.015   0.209   6.679 -0.4387  0.1927 -0.7809
   99SAPS   H2X 9910   1.025   0.102   6.651 -1.1454 -0.9060  2.9253
   99SAPS   H2Y 9911   0.934   0.201   6.754  1.0904 -0.4569  0.8203
   99SAPS   C23 9912   0.840   0.734   6.855 -0.4030 -0.6617  0.0683
   99SAPS   H3R 9913   0.751   0.793   6.883  1.2917  3.1790 -2.1775
   99SAPS   H3S 9914   0.927   0.796   6.888 -0.1219 -0.5178 -0.9190
   99SAPS   C24 9915   0.861   0.608   6.942 -0.1492 -0.0437 -0.0341
   99SAPS   H4R 9916   0.904   0.637   7.040 -3.0869  0.3455  1.1646
   99SAPS   H4S 9917   0.949   0.562   6.891 -0.3982 -1.7784  1.0793
   99SAPS   C25 9918   0.743   0.522   6.971 -0.1869 -0.1097 -0.1395
   99SAPS   H5R 9919   0.693   0.481   6.882 -0.0758 -1.0116  0.2023
   99SAPS   C26 9920   0.683   0.505   7.093  0.1719  0.2703 -0.1635
   99SAPS   H6R 9921   0.579   0.471   7.098  0.4974 -0.5528  1.4828
   99SAPS   C27 9922   0.735   0.565   7.226  0.1244  0.0159  0.3778
   99SAPS   H7R 9923   0.679   0.660   7.238 -0.9146 -0.4005 -1.0413
   99SAPS   H7S 9924   0.840   0.600   7.222  0.1409 -0.0915 -0.2229
   99SAPS   C28 9925   0.717   0.480   7.353 -0.1898  1.4935  0.1071
   99SAPS   H8R 9926   0.613   0.444   7.368 -0.2633  1.5331 -0.2999
   99SAPS   C29 9927   0.809   0.422   7.429 -0.4283 -0.3052 -0.0977
   99SAPS   H9R 9928   0.773   0.378   7.523 -0.9096  0.9462  0.3103
   99SAPS  C210 9929   0.960   0.433   7.407 -0.2228 -0.2556  0.3914
   99SAPS  H10R 9930   1.007   0.430   7.508 -1.7962  1.2284  1.2027
   99SAPS  H10S 9931   0.986   0.536   7.374 -0.4318 -0.3579 -0.0819
   99SAPS  C211 9932   1.038   0.346   7.323 -0.2345  0.5525  0.7716
   99SAPS  H11R 9933   0.995   0.344   7.222  1.1786 -1.8037  0.1990
   99SAPS  C212 9934   1.145   0.275   7.342 -0.8683  0.3285 -0.6515
   99SAPS  H12R 9935   1.180   0.212   7.259 -0.1376 -0.1801  0.0271
   99SAPS  C213 9936   1.223   0.263   7.473  0.2869 -0.3782 -0.8686
   99SAPS  H13R 9937   1.154   0.301   7.552 -0.4101 -1.7967 -0.7740
   99SAPS  H13S 9938   1.317   0.320   7.486  0.7121 -1.3002  0.1141
   99SAPS  C214 9939   1.250   0.112   7.495  0.2160  0.1264  0.7017
   99SAPS  H14R 9940   1.167   0.045   7.467  1.1494 -0.2768 -1.2493
   99SAPS  C215 9941   1.370   0.072   7.539  0.1661  0.5322 -0.4563
   99SAPS  H15R 9942   1.388  -0.036   7.537 -2.8599 -0.0661  1.6607
   99SAPS  C216 9943   1.488   0.158   7.583  0.2850  0.6084 -0.7258
   99SAPS  H16R 9944   1.521   0.222   7.499  1.1199  0.1701 -0.7389
   99SAPS  H16S 9945   1.581   0.101   7.607 -0.4444 -0.8785 -1.4087
   99SAPS  C217 9946   1.455   0.245   7.708 -0.1031  0.2246  0.7055
   99SAPS  H17R 9947   1.372   0.311   7.676  0.9937 -0.1261 -3.0860
   99SAPS  H17S 9948   1.540   0.312   7.733  0.0251  0.7043 -0.9704
   99SAPS  C218 9949   1.414   0.160   7.823  0.5368  0.3312 -0.5495
   99SAPS  H18R 9950   1.497   0.091   7.848 -1.0658 -1.1303  0.8613
   99SAPS  H18S 9951   1.332   0.094   7.787 -1.5565  2.1546  0.7225
   99SAPS  C219 9952   1.368   0.234   7.946 -1.0341  0.1372 -0.0683
   99SAPS  H19R 9953   1.263   0.260   7.923 -0.5987  0.2457 -2.0352
   99SAPS  H19S 9954   1.436   0.321   7.954 -1.6971  0.7775 -1.2914
   99SAPS  C220 9955   1.378   0.146   8.074 -0.1937 -0.1952 -0.9813
   99SAPS  H20R 9956   1.483   0.135   8.111 -0.2006 -0.7357 -1.1141
   99SAPS  H20S 9957   1.345   0.043   8.048  0.7068 -0.3263 -1.6527
   99SAPS  H20T 9958   1.327   0.186   8.164  4.0819 -1.0915  1.9742
   99SAPS   C33 9959   1.140   0.264   6.745 -0.3894 -0.1292 -0.4061
   99SAPS   H3X 9960   1.133   0.373   6.765  1.5147  0.2541 -1.6355
   99SAPS   H3Y 9961   1.217   0.249   6.666  0.7007  2.0992  0.1790
   99SAPS   C34 9962   1.164   0.190   6.877 -0.5937 -0.4570  1.0374
   99SAPS   H4X 9963   1.158   0.080   6.860 -1.5578 -0.1116 -1.0460
   99SAPS   H4Y 9964   1.084   0.211   6.951 -0.7496  3.9798 -0.2763
   99SAPS   C35 9965   1.304   0.221   6.923 -0.5551  1.0495  0.4276
   99SAPS   H5X 9966   1.306   0.324   6.963  1.0060 -0.1433  3.5458
   99SAPS   H5Y 9967   1.371   0.224   6.834 -0.0853  2.1832  0.8180
   99SAPS   C36 9968   1.361   0.119   7.029  0.7349 -0.9705 -0.2781
   99SAPS   H6X 9969   1.325   0.019   6.995 -1.1670 -0.1155 -0.8881
   99SAPS   H6Y 9970   1.328   0.149   7.131 -0.8152  3.1722 -1.8740
   99SAPS   C37 9971   1.515   0.124   7.021 -0.2693  0.3660  0.4520
   99SAPS   H7X 9972   1.552   0.098   6.919  1.0740 -1.2363  1.3284
   99SAPS   H7Y 9973   1.552   0.038   7.080  1.7597  0.6183 -0.3916
   99SAPS   C38 9974   1.583   0.256   7.054 -0.0498  0.2012 -0.0122
   99SAPS   H8X 9975   1.550   0.329   6.976 -2.9137 -0.6124  0.3913
   99SAPS   H8Y 9976   1.691   0.242   7.028  0.3054  0.3560  1.3721
   99SAPS   C39 9977   1.556   0.319   7.184  0.1086  0.5357 -0.0830
   99SAPS   H9X 9978   1.584   0.256   7.271  0.7082  1.2165  0.2105
   99SAPS   H9Y 9979   1.446   0.329   7.201  0.4462  0.3165  2.4670
   99SAPS  C310 9980   1.616   0.454   7.221 -0.6464 -0.1598  0.6488
   99SAPS  H10X 9981   1.582   0.520   7.138 -0.1373 -1.4864 -0.6361
   99SAPS  H10Y 9982   1.727   0.449   7.218 -0.6919 -1.0291  0.4574
   99SAPS  C311 9983   1.573   0.492   7.360 -0.0301  0.1454 -0.3159
   99SAPS  H11X 9984   1.576   0.398   7.420  0.5844 -0.5628 -1.4284
   99SAPS  H11Y 9985   1.468   0.528   7.363 -0.0205  0.1581 -0.1197
   99SAPS  C312 9986   1.656   0.598   7.429 -0.3680 -0.1784 -0.4071
   99SAPS  H12X 9987   1.628   0.690   7.374 -0.8027 -1.5891 -2.6178
   99SAPS  H12Y 9988   1.763   0.573   7.411  0.0321  0.2312  1.2353
   99SAPS  C313 9989   1.640   0.603   7.582 -0.1165  0.2914 -0.3803
   99SAPS  H13X 9990   1.655   0.503   7.628 -1.6001 -0.1336 -0.7928
   99SAPS  H13Y 9991   1.537   0.638   7.603  0.8778  2.4459  1.0910
   99SAPS  C314 9992   1.746   0.700   7.640  1.0396  0.4548 -0.0081
   99SAPS  H14X 9993   1.727   0.800   7.594  0.8372 -0.4774 -1.9559
   99SAPS  H14Y 9994   1.847   0.663   7.612  1.5518  2.2475 -0.6204
   99SAPS  C315 9995   1.738   0.701   7.791  0.1649  0.7271 -0.1497
   99SAPS  H15X 9996   1.717   0.598   7.827  0.2656 -0.3909 -3.1534
   99SAPS  H15Y 9997   1.654   0.762   7.830  1.4398  2.0202  0.6314
   99SAPS  C316 9998   1.866   0.767   7.852 -0.1220  0.3060  0.4624
   99SAPS  H16X 9999   1.955   0.706   7.826  0.9747  2.0681  0.0576
   99SAPS  H16Y10000   1.875   0.765   7.962 -1.4071 -0.3243  0.5657
   99SAPS  C31710001   1.895   0.908   7.799  0.2946 -0.0596 -0.0130
   99SAPS  H17X10002   1.934   0.916   7.695 -1.1710  2.7409 -0.3871
   99SAPS  H17Y10003   1.975   0.960   7.856  0.7598 -2.0659  1.2210
   99SAPS  C31810004   1.780   1.007   7.794 -0.5179  0.6120  0.3580
   99SAPS  H18X10005   1.706   0.980   7.716  1.4785 -1.0399 -1.0337
   99SAPS  H18Y10006   1.820   1.101   7.751  0.3795  0.0032 -0.1369
   99SAPS  H18Z10007   1.725   1.022   7.890 -0.2430 -0.0260  0.6155
  100SAPS     N10008   4.276   2.505   6.067  0.3241  0.0673  0.0414
  100SAPS   HN110009   4.340   2.501   5.985  1.1204 -0.8217  0.6997
  100SAPS   HN210010   4.191   2.544   6.023  3.0689  1.7317 -4.1786
  100SAPS   HN310011   4.313   2.570   6.140  1.1501 -0.0363 -0.2712
  100SAPS   C1210012   4.261   2.369   6.103 -0.6147  0.3450 -0.2703
  100SAPS  H12A10013   4.196   2.364   6.188  3.4527  1.2496  3.0707
  100SAPS   C1310014   4.190   2.273   5.990 -0.0663 -0.9374 -0.1601
  100SAPS  O13A10015   4.174   2.324   5.875  0.4328  0.3848 -0.8084
  100SAPS  O13B10016   4.197   2.148   6.015  0.0431  0.1442 -0.2041
  100SAPS   C1110017   4.402   2.312   6.135 -0.1289 -0.0587 -1.0657
  100SAPS  H11A10018   4.472   2.311   6.048 -0.7399  1.6532 -1.6046
  100SAPS  H11B10019   4.388   2.206   6.163 -0.2247  0.3452  0.4711
  100SAPS     P10020   4.476   2.353   6.392  0.1020  0.3571 -0.3938
  100SAPS   O1310021   4.573   2.440   6.455 -0.0372  0.2336  0.1771
  100SAPS   O1410022   4.339   2.351   6.439  0.4045 -0.3277 -0.3646
  100SAPS   O1210023   4.465   2.392   6.235  0.2985  0.1155  0.7038
  100SAPS   O1110024   4.537   2.212   6.381 -0.3945  0.7262 -0.4113
  100SAPS    C110025   4.462   2.091   6.413 -0.1440  0.8107 -0.0057
  100SAPS    HA10026   4.352   2.105   6.407 -0.1047  0.5536 -1.4983
  100SAPS    HB10027   4.475   2.009   6.339 -1.5681  0.7971 -0.2399
  100SAPS    C210028   4.505   2.041   6.554 -0.0774  0.2616  0.2409
  100SAPS    HS10029   4.460   1.948   6.595  0.7452 -0.2060  0.0827
  100SAPS   O2110030   4.484   2.137   6.660 -0.1035  0.0097  0.0346
  100SAPS   C2110031   4.357   2.152   6.702  0.8291 -0.4451  0.8204
  100SAPS   O2210032   4.259   2.100   6.652 -0.0627 -0.0206 -0.4942
  100SAPS   C2210033   4.353   2.239   6.832 -0.0929  0.9475 -0.0270
  100SAPS   H2R10034   4.439   2.304   6.861 -0.2834  0.4941  1.5875
  100SAPS   H2S10035   4.271   2.307   6.799 -0.5343  0.7674  0.6747
  100SAPS    C310036   4.658   1.990   6.544  0.8107 -0.7070  0.5738
  100SAPS    HX10037   4.721   2.075   6.513  0.0914 -0.2823  0.2758
  100SAPS    HY10038   4.674   1.919   6.460 -0.0528  3.0941 -2.9073
  100SAPS   O3110039   4.690   1.925   6.667 -0.2617 -0.4466  0.0124
  100SAPS   C3110040   4.759   1.994   6.760 -0.0821  0.2515 -0.0892
  100SAPS   O3210041   4.786   2.115   6.755 -0.1524  0.5440 -0.3408
  100SAPS   C3210042   4.768   1.906   6.881  0.5313 -0.2414  0.1021
  100SAPS   H2X10043   4.664   1.871   6.893  0.8419 -1.0664  0.4606
  100SAPS   H2Y10044   4.791   1.974   6.966  0.7090  1.0256 -0.9434
  100SAPS   C2310045   4.316   2.145   6.954 -0.6721 -0.7488  0.2220
  100SAPS   H3R10046   4.239   2.068   6.930  0.1307 -1.1062 -1.2289
  100SAPS   H3S10047   4.272   2.201   7.040 -0.8170 -1.0029  0.3168
  100SAPS   C2410048   4.430   2.069   7.029 -0.4942  0.0810 -0.5537
  100SAPS   H4R10049   4.489   2.147   7.082 -1.0427  1.0285 -1.3051
  100SAPS   H4S10050   4.478   2.011   6.947 -0.8297  1.8122 -2.0116
  100SAPS   C2510051   4.371   1.965   7.121  0.0228  0.3180  0.6027
  100SAPS   H5R10052   4.262   1.963   7.127 -0.0874 -1.1018 -1.3227
  100SAPS   C2610053   4.442   1.885   7.202 -0.1433  0.8864 -0.1376
  100SAPS   H6R10054   4.389   1.826   7.278 -0.3730  0.9660 -0.2372
  100SAPS   C2710055   4.596   1.878   7.212  0.0403  0.3829  1.0403
  100SAPS   H7R10056   4.638   1.899   7.111 -1.1286 -2.8125 -0.1807
  100SAPS   H7S10057   4.621   1.770   7.226  1.6898  0.7419  1.0424
  100SAPS   C2810058   4.678   1.958   7.311 -0.2250 -0.2193  0.1009
  100SAPS   H8R10059   4.734   2.043   7.270  1.0373 -0.5007  1.2043
  100SAPS   C2910060   4.683   1.936   7.446  0.6304  0.3284 -0.5253
  100SAPS   H9R10061   4.751   2.005   7.498  1.9509 -1.4118  0.0887
  100SAPS  C21010062   4.620   1.835   7.539  0.4177  0.6924 -0.3519
  100SAPS  H10R10063   4.687   1.772   7.603 -1.8158  0.8919  2.2936
  100SAPS  H10S10064   4.579   1.751   7.479 -1.1112 -0.0736  1.6870
  100SAPS  C21110065   4.508   1.896   7.628  0.0470  0.4862  1.4249
  100SAPS  H11R10066   4.407   1.866   7.599  0.1178 -0.6502  2.3115
  100SAPS  C21210067   4.536   1.975   7.737 -0.2445 -0.4869 -0.4698
  100SAPS  H12R10068   4.447   2.005   7.793  0.0425 -1.1030  0.3202
  100SAPS  C21310069   4.670   2.020   7.794 -0.2064  0.3739 -0.0648
  100SAPS  H13R10070   4.738   2.052   7.712  0.0479  1.3120  0.5112
  100SAPS  H13S10071   4.718   1.941   7.856  3.0977  0.9310 -1.7533
  100SAPS  C21410072   4.661   2.141   7.890 -0.2551  0.2163  0.4707
  100SAPS  H14R10073   4.676   2.243   7.853 -0.6502 -0.2861 -1.0796
  100SAPS  C21510074   4.623   2.140   8.018  0.3753 -0.4882  0.4524
  100SAPS  H15R10075   4.622   2.237   8.071 -2.4762  0.4984 -1.3427
  100SAPS  C21610076   4.573   2.025   8.097 -0.2114  0.4461  0.6019
  100SAPS  H16R10077   4.633   2.021   8.191 -2.3859  3.2672  2.1695
  100SAPS  H16S10078   4.601   1.933   8.040  1.1619 -0.5060  2.7352
  100SAPS  C21710079   4.422   2.019   8.124 -0.7436 -0.0787 -0.2163
  100SAPS  H17R10080   4.384   1.919   8.094 -3.1099  1.2969 -1.9285
  100SAPS  H17S10081   4.374   2.094   8.059 -2.2158  0.5118  1.5287
  100SAPS  C21810082   4.394   2.041   8.275 -0.2240 -0.0019 -0.3656
  100SAPS  H18R10083   4.423   2.146   8.298 -0.2996 -0.2498  0.8822
  100SAPS  H18S10084   4.448   1.970   8.340 -1.1613 -1.3560 -1.0480
  100SAPS  C21910085   4.243   2.026   8.320 -0.4496 -0.3543  0.2941
  100SAPS  H19R10086   4.200   1.933   8.278 -2.3167 -0.1763  1.7441
  100SAPS  H19S10087   4.192   2.109   8.266  0.8871 -0.7298 -1.5948
  100SAPS  C22010088   4.233   2.043   8.471 -0.2792 -0.0052 -0.2149
  100SAPS  H20R10089   4.262   1.946   8.517  3.2463 -0.0845 -2.3944
  100SAPS  H20S10090   4.129   2.069   8.501  0.4016  1.7910  0.6396
  100SAPS  H20T10091   4.306   2.112   8.519  0.7534 -0.0620 -1.6895
  100SAPS   C3310092   4.877   1.803   6.873  0.7626 -0.2144  0.4834
  100SAPS   H3X10093   4.974   1.859   6.877  0.6473  0.1392 -1.1621
  100SAPS   H3Y10094   4.862   1.741   6.782  3.3284 -1.5788  0.9393
  100SAPS   C3410095   4.890   1.720   6.997  1.1544  0.0371 -0.3685
  100SAPS   H4X10096   4.963   1.640   6.971  0.6581 -0.8564  0.9157
  100SAPS   H4Y10097   4.789   1.677   7.017  1.6043 -0.3257  1.2372
  100SAPS   C3510098   4.961   1.786   7.116  0.1984  0.5963  0.2816
  100SAPS   H5X10099   4.881   1.842   7.170 -0.2916 -0.6530  0.8772
  100SAPS   H5Y10100   5.047   1.848   7.084  0.1618 -0.1809 -1.3534
  100SAPS   C3610101   5.006   1.676   7.220  0.0203 -0.0291 -0.4549
  100SAPS   H6X10102   5.076   1.606   7.168 -0.8057 -1.7500  0.7021
  100SAPS   H6Y10103   4.914   1.615   7.233 -0.4498  1.0526  1.4574
  100SAPS   C3710104   5.041   1.729   7.360 -0.0763 -0.0603 -0.2166
  100SAPS   H7X10105   4.957   1.788   7.403 -1.0353 -2.1024  0.7972
  100SAPS   H7Y10106   5.126   1.799   7.377 -0.0957 -0.7641  3.2646
  100SAPS   C3810107   5.062   1.610   7.463  0.1665 -0.5644  0.6986
  100SAPS   H8X10108   5.155   1.555   7.437  0.0880  0.3964 -1.7315
  100SAPS   H8Y10109   4.969   1.550   7.457  0.7028 -1.5988  2.4295
  100SAPS   C3910110   5.087   1.645   7.607  0.1363  0.2408  0.1980
  100SAPS   H9X10111   5.195   1.667   7.621  0.3295 -0.0408 -0.7945
  100SAPS   H9Y10112   5.067   1.551   7.662 -1.6738 -0.6376 -1.9048
  100SAPS  C31010113   5.001   1.753   7.670 -0.1254  0.2325 -0.1484
  100SAPS  H10X10114   4.894   1.723   7.664  0.7843 -2.9577 -1.4611
  100SAPS  H10Y10115   5.017   1.851   7.621 -1.6462  0.5867  0.0262
  100SAPS  C31110116   5.040   1.756   7.816  0.6851 -0.4439 -0.5019
  100SAPS  H11X10117   5.145   1.790   7.814  0.9265 -0.9619  1.6751
  100SAPS  H11Y10118   5.037   1.663   7.877  2.0203 -0.7730 -0.9406
  100SAPS  C31210119   4.966   1.860   7.899 -0.0527 -0.4811  0.0299
  100SAPS  H12X10120   4.864   1.819   7.915 -0.1510  0.4667  1.9124
  100SAPS  H12Y10121   4.951   1.958   7.849  1.6685  0.0184  0.4587
  100SAPS  C31310122   5.050   1.886   8.029  0.0871  0.3135 -0.4461
  100SAPS  H13X10123   5.147   1.933   8.002  0.5223 -1.6405 -2.4789
  100SAPS  H13Y10124   5.065   1.786   8.075  1.7897  1.3639  1.3884
  100SAPS  C31410125   4.974   1.974   8.120 -0.3198 -0.4458  0.0045
  100SAPS  H14X10126   4.873   1.931   8.137  0.0777 -1.5149 -0.2996
  100SAPS  H14Y10127   4.951   2.068   8.066  0.4744 -1.6189 -2.4270
  100SAPS  C31510128   5.057   1.995   8.248 -0.1625 -0.5968 -0.0886
  100SAPS  H15X10129   5.040   2.103   8.266 -1.3750 -0.6728 -0.7600
  100SAPS  H15Y10130   5.165   1.973   8.231 -0.1856 -0.3451 -0.5635
  100SAPS  C31610131   5.003   1.918   8.359 -0.1775  0.9334  0.1248
  100SAPS  H16X10132   4.894   1.923   8.378  0.2027  4.5846  1.6086
  100SAPS  H16Y10133   5.054   1.956   8.450 -1.9803  0.6608  1.2781
  100SAPS  C31710134   5.059   1.779   8.370 -0.0402 -0.5969  0.2853
  100SAPS  H17X10135   5.170   1.785   8.371 -0.0951  0.2544  1.0928
  100SAPS  H17Y10136   5.033   1.721   8.279 -1.5232  0.7326 -0.1718
  100SAPS  C31810137   5.029   1.698   8.497 -0.2351 -0.3044 -0.3460
  100SAPS  H18X10138   5.096   1.610   8.489 -0.9453 -1.2921  3.4928
  100SAPS  H18Y10139   4.921   1.673   8.500  0.2734 -2.5614 -0.2696
  100SAPS  H18Z10140   5.059   1.758   8.587 -1.8655 -0.4467  0.3098
  101OSM      N10141   2.398   1.902  10.458 -0.7641 -0.0984 -0.3174
  101OSM    C1510142   2.441   1.996  10.351 -0.2432 -0.1739 -0.2818
  101OSM   H15A10143   2.473   2.088  10.397 -1.3130  0.3773 -0.6286
  101OSM   H15B10144   2.355   2.021  10.290 -0.2890 -0.6232 -0.4044
  101OSM   H15C10145   2.514   1.961  10.279  0.3909 -2.7815  1.5628
  101OSM    C1410146   2.278   1.955  10.524  0.5001  0.2004  0.1302
  101OSM   H14A10147   2.205   2.009  10.464 -2.5459 -1.0949  2.5427
  101OSM   H14B10148   2.310   2.035  10.589  1.3369  0.6900 -0.8726
  101OSM   H14C10149   2.229   1.881  10.585 -0.3689  1.0389  0.4738
  101OSM    C1310150   2.360   1.772  10.386 -0.2169 -0.2572 -0.2496
  101OSM   H13A10151   2.304   1.785  10.295  0.5970  1.0438 -0.5847
  101OSM   H13B10152   2.296   1.705  10.441 -0.8421  2.0637  1.9047
  101OSM   H13C10153   2.452   1.718  10.367  1.4240  1.5526  2.2033
  101OSM    C1210154   2.504   1.886  10.568 -0.2374  0.1060 -0.0569
  101OSM   H12A10155   2.590   1.839  10.522 -0.3275  1.5680 -1.7864
  101OSM   H12B10156   2.473   1.824  10.650 -0.3689  1.9442  1.3100
  101OSM    C1110157   2.543   2.022  10.636 -0.0328 -0.0527 -0.4537
  101OSM   H11A10158   2.576   2.081  10.548 -2.2205  1.6557 -0.1542
  101OSM   H11B10159   2.631   2.010  10.703  1.0693  1.6885 -1.5401
  101OSM      P10160   2.468   2.239  10.762  0.4494  0.2105 -0.0010
  101OSM    O1310161   2.345   2.270  10.842 -0.5333 -0.2528 -0.1972
  101OSM    O1410162   2.598   2.227  10.840 -0.1030  0.4214  0.0734
  101OSM    O1110163   2.479   2.334  10.639 -0.1492  0.8701 -0.1980
  101OSM    O1210164   2.440   2.094  10.695  0.3400 -0.3062 -0.7201
  101OSM    C1S10165   2.381   2.332  10.531 -0.4059 -0.0745 -0.2073
  101OSM    H1S10166   2.291   2.386  10.567  0.2189  0.3528  0.7556
  101OSM    H1T10167   2.364   2.226  10.501  2.0854 -0.4706 -0.3190
  101OSM     NF10168   2.337   2.426  10.309  0.2917 -0.1110  0.4945
  101OSM    HNF10169   2.352   2.385  10.219  1.5402 -1.5160  1.3253
  101OSM    C2S10170   2.436   2.408  10.411 -0.7575 -0.9835  0.6345
  101OSM    H2S10171   2.454   2.509  10.452 -0.5140 -1.1821  1.0240
  101OSM    C3S10172   2.567   2.335  10.362 -0.4677 -0.0995  0.0704
  101OSM    H3S10173   2.550   2.230  10.332  0.4292 -0.4770  0.8754
  101OSM     O310174   2.677   2.315  10.457 -0.1138 -0.1343  0.0300
  101OSM    HO310175   2.639   2.349  10.539  1.8957 -0.7844  1.2832
  101OSM    C4S10176   2.625   2.416  10.250  0.4123 -0.7012  1.7579
  101OSM    H4S10177   2.695   2.494  10.285  2.0912 -1.9466  1.2563
  101OSM    C5S10178   2.601   2.401  10.118 -0.1846 -0.8491  0.1935
  101OSM    H5S10179   2.539   2.316  10.085 -0.6337  0.4670 -2.4955
  101OSM    C6S10180   2.668   2.490  10.015  1.0483  0.2616  0.4569
  101OSM    H6S10181   2.754   2.550  10.049  1.3735  0.9117 -1.4768
  101OSM    H6T10182   2.593   2.565   9.983  0.8832 -0.7714 -1.7034
  101OSM    C7S10183   2.721   2.415   9.885  0.3567  0.0275  0.6550
  101OSM    H7S10184   2.652   2.343   9.835  0.9334  0.4450 -0.7492
  101OSM    H7T10185   2.802   2.344   9.910  0.4267 -1.3388 -3.1324
  101OSM    C8S10186   2.773   2.513   9.773 -0.4214  0.0268 -0.5016
  101OSM    H8S10187   2.840   2.580   9.830 -0.7782  0.5036 -0.6379
  101OSM    H8T10188   2.692   2.569   9.721  0.9066  1.6826 -0.8307
  101OSM    C9S10189   2.847   2.443   9.657 -0.2612  0.2798  0.8611
  101OSM    H9S10190   2.924   2.377   9.702 -0.1087  0.5960  1.0685
  101OSM    H9T10191   2.896   2.516   9.589 -1.3341 -0.7619 -1.0576
  101OSM   C10S10192   2.745   2.366   9.574  0.0879 -0.2299 -0.4554
  101OSM   H10S10193   2.668   2.435   9.533 -0.3814 -0.1699  0.5171
  101OSM   H10T10194   2.690   2.296   9.641  1.2661 -0.0658  0.6899
  101OSM   C11S10195   2.800   2.284   9.454  1.0113  0.7961  0.4133
  101OSM   H11S10196   2.723   2.214   9.414  1.9682 -2.5271  3.9477
  101OSM   H11T10197   2.879   2.217   9.495  0.1928 -0.2140  0.3498
  101OSM   C12S10198   2.867   2.377   9.349  0.1566  0.0488 -0.5569
  101OSM   H12S10199   2.956   2.422   9.397 -0.5240 -0.1310  0.9159
  101OSM   H12T10200   2.810   2.467   9.317 -0.2693  0.1212  0.3704
  101OSM   C13S10201   2.910   2.295   9.231  0.7676 -0.4587  0.4412
  101OSM   H13S10202   2.822   2.268   9.170  1.7259  0.8888 -1.5916
  101OSM   H13T10203   2.963   2.207   9.272  3.0932  1.3455  1.4478
  101OSM   C14S10204   3.003   2.390   9.153 -0.2975  0.3721 -0.5857
  101OSM   H14S10205   3.080   2.420   9.227 -0.5181  1.4945 -0.7951
  101OSM   H14T10206   2.941   2.472   9.110  0.8467  0.3553 -2.2933
  101OSM   C15S10207   3.063   2.333   9.024 -0.7775 -0.5121 -0.5260
  101OSM   H15S10208   3.092   2.228   9.045  0.3468 -0.0837  0.0583
  101OSM   H15T10209   3.158   2.385   9.001  0.2232 -1.4191  1.4337
  101OSM   C16S10210   2.958   2.332   8.917  0.3889 -0.0111  0.3167
  101OSM   H16S10211   2.953   2.434   8.874  2.9856 -1.3880 -3.4443
  101OSM   H16T10212   2.861   2.293   8.956  0.4638 -3.1521 -2.4598
  101OSM   C17S10213   2.993   2.248   8.806  0.1040  0.0084  0.2374
  101OSM   H17S10214   3.036   2.150   8.837 -1.3415 -0.8501 -0.4106
  101OSM   H17T10215   3.077   2.293   8.748 -1.2359  1.0993 -0.8745
  101OSM   C18S10216   2.872   2.235   8.710  0.5446  0.0356 -0.5407
  101OSM   H18S10217   2.826   2.329   8.672 -0.4064  0.1595  0.8323
  101OSM   H18T10218   2.788   2.179   8.758  1.0750 -1.1607 -1.0053
  101OSM   H18U10219   2.904   2.162   8.634 -1.0986 -2.7095  1.3082
  101OSM    C1F10220   2.233   2.502  10.326  0.3809  0.1485  0.0029
  101OSM     OF10221   2.218   2.569  10.431  0.0552  0.1361  0.3118
  101OSM    C2F10222   2.134   2.503  10.204 -0.1823  0.2316 -0.4585
  101OSM    H2F10223   2.102   2.399  10.179  1.4968 -0.4849  0.3247
  101OSM    H2G10224   2.178   2.563  10.122 -0.3757  0.1508 -0.6191
  101OSM    C3F10225   2.011   2.593  10.239 -0.3138 -0.2301 -0.3415
  101OSM    H3F10226   2.040   2.695  10.273 -2.2962  0.8427 -1.7627
  101OSM    H3G10227   1.949   2.537  10.313 -1.4097 -0.2391 -1.2480
  101OSM    C4F10228   1.923   2.607  10.116 -0.1679  0.4901 -0.0149
  101OSM    H4F10229   1.975   2.651  10.029 -1.3474 -1.1270 -1.5688
  101OSM    H4G10230   1.841   2.675  10.148 -1.1042 -0.4482 -0.3801
  101OSM    C5F10231   1.864   2.474  10.056 -0.1116  0.1337 -0.4071
  101OSM    H5F10232   1.811   2.409  10.129 -0.2152  0.1789 -0.4415
  101OSM    H5G10233   1.953   2.428  10.008  0.3477 -1.3874  1.8223
  101OSM    C6F10234   1.765   2.487   9.940 -0.1349 -0.6262 -0.0484
  101OSM    H6F10235   1.689   2.566   9.962  0.9785  1.0186 -1.9650
  101OSM    H6G10236   1.710   2.391   9.932  1.5736 -1.7008  0.9596
  101OSM    C7F10237   1.826   2.518   9.799 -0.4929  0.8883  0.5319
  101OSM    H7F10238   1.924   2.466   9.801 -0.5192  0.7280 -1.6632
  101OSM    H7G10239   1.846   2.626   9.783  0.3140  0.5540 -0.7819
  101OSM    C8F10240   1.741   2.465   9.684  0.1645  0.1455  0.5041
  101OSM    H8F10241   1.717   2.357   9.691 -1.2337  0.4376  0.4272
  101OSM    H8G10242   1.808   2.472   9.596  1.2144 -0.8749  1.2126
  101OSM    C9F10243   1.611   2.540   9.673 -0.2264 -0.2034 -0.2511
  101OSM    H9F10244   1.577   2.601   9.758 -0.9211  0.9149 -1.3145
  101OSM   C10F10245   1.528   2.513   9.573  0.4716  0.4785  0.3211
  101OSM   H10F10246   1.433   2.568   9.572  2.0113  3.2019 -0.5552
  101OSM   C11F10247   1.556   2.421   9.453  0.2128 -0.3399  0.1077
  101OSM   H11F10248   1.516   2.319   9.472 -1.3325  0.2168 -0.0917
  101OSM   H11G10249   1.666   2.407   9.442  0.4602  2.2223 -0.8745
  101OSM   C12F10250   1.517   2.466   9.307  0.6047 -0.3597  0.1102
  101OSM   H12F10251   1.419   2.517   9.310  1.0221  0.3712  1.4803
  101OSM   H12G10252   1.502   2.368   9.256 -2.1506  0.4527 -0.7064
  101OSM   C13F10253   1.613   2.559   9.219 -0.2486 -0.2872  0.8734
  101OSM   H13F10254   1.569   2.541   9.118 -0.2977 -0.5815  0.9449
  101OSM   H13G10255   1.717   2.519   9.224  0.3748  1.4362  1.7281
  101OSM   C14F10256   1.609   2.706   9.253 -0.4738  0.1525 -0.0780
  101OSM   H14F10257   1.689   2.715   9.329 -1.9939 -1.8142  1.8321
  101OSM   H14G10258   1.511   2.733   9.298 -0.8546  1.7371 -1.7737
  101OSM   C15F10259   1.644   2.809   9.140  0.8336  0.5642 -0.4050
  101OSM   H15F10260   1.557   2.841   9.078  0.3792 -1.5878 -0.9335
  101OSM   H15G10261   1.703   2.758   9.061  0.0822 -0.3001 -0.4119
  101OSM   C16F10262   1.727   2.925   9.194  0.2274  0.1158  0.7536
  101OSM   H16F10263   1.740   3.000   9.113  1.8116  0.8375  1.6679
  101OSM   H16G10264   1.823   2.879   9.226  0.6285  1.4510  1.5152
  101OSM   C17F10265   1.671   2.991   9.319 -0.3153  0.2025  0.5835
  101OSM   H17F10266   1.696   2.936   9.412  0.5920 -0.4488 -0.0484
  101OSM   H17G10267   1.561   3.005   9.310  0.0842  1.8461 -2.5817
  101OSM   C18F10268   1.731   3.135   9.320  0.2833  0.2741  0.0536
  101OSM   H18F10269   1.719   3.196   9.229  3.8614  1.7863  0.5117
  101OSM   H18G10270   1.840   3.124   9.343  0.2465  0.6041  0.3970
  101OSM   H18H10271   1.689   3.187   9.409 -0.3177  0.5990 -0.4256
  102OSM      N10272   1.719   1.529  10.921 -0.8746 -0.0252  0.1208
  102OSM    C1510273   1.610   1.617  10.872  0.1188  0.1504  0.3501
  102OSM   H15A10274   1.553   1.654  10.955 -0.9939  1.1740 -0.8498
  102OSM   H15B10275   1.559   1.551  10.804  0.8526 -0.2206  0.1554
  102OSM   H15C10276   1.647   1.704  10.820 -2.5882  2.6279  2.4454
  102OSM    C1410277   1.821   1.611  10.987  0.0943  0.1450 -0.2006
  102OSM   H14A10278   1.778   1.658  11.075 -1.5290  0.1770 -1.0064
  102OSM   H14B10279   1.853   1.691  10.921 -1.3390  1.2462  0.4081
  102OSM   H14C10280   1.905   1.552  11.022  0.1071  0.4391  0.2729
  102OSM    C1310281   1.654   1.434  11.013 -0.2265 -0.0739 -0.1710
  102OSM   H13A10282   1.723   1.354  11.036 -1.1258 -0.3919  1.5139
  102OSM   H13B10283   1.556   1.408  10.974 -0.4526  2.1212 -1.1986
  102OSM   H13C10284   1.644   1.478  11.111 -0.9020 -2.1083  0.7058
  102OSM    C1210285   1.783   1.451  10.802 -0.2430 -0.7060  0.8254
  102OSM   H12A10286   1.700   1.396  10.761 -1.5152  1.3946  0.5142
  102OSM   H12B10287   1.866   1.386  10.825 -0.2282 -0.4192  1.5888
  102OSM    C1110288   1.822   1.533  10.676  0.0570  0.0137  0.3240
  102OSM   H11A10289   1.730   1.587  10.645  0.7698  0.7731 -0.5113
  102OSM   H11B10290   1.838   1.454  10.599  2.0653 -0.6636  1.4300
  102OSM      P10291   2.069   1.612  10.641  0.0110  0.1605  0.0534
  102OSM    O1310292   2.157   1.724  10.685 -0.3024 -0.8665  0.5821
  102OSM    O1410293   2.108   1.476  10.679 -0.1588  0.2130  0.1742
  102OSM    O1110294   2.046   1.623  10.483 -0.1078 -0.7876  0.0751
  102OSM    O1210295   1.919   1.629  10.704 -0.8487 -0.1262  0.3021
  102OSM    C1S10296   1.958   1.713  10.416 -0.2998 -0.0238  0.0635
  102OSM    H1S10297   1.997   1.817  10.418 -1.0591  0.2795 -0.8727
  102OSM    H1T10298   1.859   1.721  10.466 -0.0025  2.4174  0.3623
  102OSM     NF10299   1.840   1.762  10.209 -0.4427  0.6809  0.5167
  102OSM    HNF10300   1.754   1.727  10.173  0.2315 -0.9498  0.4589
  102OSM    C2S10301   1.932   1.675  10.272  0.1529  0.2132 -0.2367
  102OSM    H2S10302   2.030   1.695  10.222 -0.5158 -0.0735 -1.6631
  102OSM    C3S10303   1.885   1.526  10.253  0.6624  0.2994 -0.2318
  102OSM    H3S10304   1.799   1.500  10.319  1.1289  0.3301  0.3983
  102OSM     O310305   1.983   1.426  10.296 -0.7959 -0.1126 -0.3644
  102OSM    HO310306   2.056   1.479  10.329  0.9990 -1.0027 -2.7219
  102OSM    C4S10307   1.840   1.508  10.104  0.2080 -0.0308  0.1675
  102OSM    H4S10308   1.734   1.536  10.090  1.3091  3.7489 -1.3698
  102OSM    C5S10309   1.923   1.467  10.006 -0.4451 -0.4785  0.8676
  102OSM    H5S10310   2.027   1.448  10.035 -0.2363  1.5452  1.5060
  102OSM    C6S10311   1.896   1.452   9.861 -0.0904 -0.3363  0.0756
  102OSM    H6S10312   1.878   1.344   9.844 -3.3541  0.0611  0.6528
  102OSM    H6T10313   1.985   1.486   9.804  0.4423 -0.1441  1.0079
  102OSM    C7S10314   1.764   1.520   9.811 -1.2665 -0.2698 -0.3011
  102OSM    H7S10315   1.772   1.624   9.849  1.0180 -0.2385 -0.8104
  102OSM    H7T10316   1.672   1.489   9.864 -1.6365  1.5459  0.1641
  102OSM    C8S10317   1.746   1.516   9.656  0.0351  0.0220 -0.6464
  102OSM    H8S10318   1.766   1.413   9.620 -0.2463  0.2218 -1.3849
  102OSM    H8T10319   1.821   1.576   9.601 -0.1413  1.7620  0.9412
  102OSM    C9S10320   1.599   1.562   9.621  0.9291  0.6423  0.0621
  102OSM    H9S10321   1.594   1.664   9.666 -1.4894  0.0564  1.1535
  102OSM    H9T10322   1.526   1.489   9.661 -1.3523  3.5818  1.4548
  102OSM   C10S10323   1.583   1.577   9.471 -0.2174 -0.1478  0.5998
  102OSM   H10S10324   1.596   1.477   9.423  1.8697  1.6374 -2.7648
  102OSM   H10T10325   1.659   1.641   9.421  0.0499 -1.4218 -0.6794
  102OSM   C11S10326   1.437   1.615   9.431 -0.1264  0.1549  0.0327
  102OSM   H11S10327   1.394   1.707   9.475 -1.1057 -0.6100  0.6943
  102OSM   H11T10328   1.371   1.538   9.477 -1.8244  2.1401  0.9843
  102OSM   C12S10329   1.404   1.605   9.282  0.4480 -0.2646  0.1153
  102OSM   H12S10330   1.443   1.508   9.245 -0.3556 -1.3999  2.1849
  102OSM   H12T10331   1.451   1.688   9.225 -0.1245 -0.1973 -0.2555
  102OSM   C13S10332   1.252   1.586   9.254  0.0840  0.8122  0.0975
  102OSM   H13S10333   1.200   1.680   9.283 -0.3597  0.8731 -0.8647
  102OSM   H13T10334   1.201   1.505   9.311  1.8966 -0.7335 -0.4220
  102OSM   C14S10335   1.233   1.553   9.101 -0.3185  0.0160  0.3662
  102OSM   H14S10336   1.298   1.469   9.069 -1.7954 -0.2016 -2.2003
  102OSM   H14T10337   1.253   1.637   9.031  0.7924 -0.9406 -0.5099
  102OSM   C15S10338   1.087   1.518   9.076 -0.8770  0.2150  0.4272
  102OSM   H15S10339   1.023   1.597   9.120 -1.7856  1.3892 -2.8416
  102OSM   H15T10340   1.059   1.428   9.135 -0.2605 -2.5662 -3.2849
  102OSM   C16S10341   1.036   1.489   8.932 -0.2679 -0.2716  0.1060
  102OSM   H16S10342   1.105   1.413   8.889 -1.0485 -0.1236 -1.4413
  102OSM   H16T10343   1.032   1.585   8.875  0.9031  0.2311  0.8443
  102OSM   C17S10344   0.897   1.430   8.946  0.0521  0.3910 -0.3723
  102OSM   H17S10345   0.837   1.436   8.853  1.0839  3.3111 -0.8789
  102OSM   H17T10346   0.844   1.493   9.020 -0.4252  0.3120 -0.6461
  102OSM   C18S10347   0.899   1.285   8.984  0.3609 -0.1863 -0.0892
  102OSM   H18S10348   0.793   1.253   8.992 -0.1225  1.0306 -1.3172
  102OSM   H18T10349   0.949   1.259   9.079  0.9931  0.1100 -0.3417
  102OSM   H18U10350   0.954   1.234   8.903  0.4140  1.0290 -0.8275
  102OSM    C1F10351   1.868   1.883  10.183  0.2001  0.1815  0.4236
  102OSM     OF10352   1.974   1.936  10.218 -0.0833  0.4216  0.5755
  102OSM    C2F10353   1.763   1.953  10.107  0.1777 -0.7076 -0.2688
  102OSM    H2F10354   1.806   2.053  10.083  0.1897 -0.0621  2.3754
  102OSM    H2G10355   1.667   1.964  10.162 -0.1219  2.2547 -1.2808
  102OSM    C3F10356   1.737   1.891   9.971  0.2730 -0.4539  0.5368
  102OSM    H3F10357   1.685   1.793   9.977  0.7411 -0.8498 -1.5637
  102OSM    H3G10358   1.828   1.874   9.909 -0.7967  2.0326 -1.8394
  102OSM    C4F10359   1.641   1.984   9.893 -0.8837 -0.0833  0.3226
  102OSM    H4F10360   1.695   2.075   9.858 -4.1085  1.6104 -0.3990
  102OSM    H4G10361   1.558   2.019   9.957  0.4918  0.5599  1.7842
  102OSM    C5F10362   1.591   1.937   9.756  0.0466  0.3794  0.5935
  102OSM    H5F10363   1.504   1.868   9.768  0.9271 -0.3764  2.8662
  102OSM    H5G10364   1.669   1.876   9.705  1.7345  2.7572  0.2468
  102OSM    C6F10365   1.558   2.039   9.656  0.3406 -0.0462  0.5120
  102OSM    H6F10366   1.648   2.103   9.641  0.6639 -0.1350  1.9884
  102OSM    H6G10367   1.483   2.117   9.682  0.2068 -0.5337  1.6323
  102OSM    C7F10368   1.503   1.960   9.528 -1.1435 -0.1025 -0.3016
  102OSM    H7F10369   1.422   1.896   9.569 -0.2041 -0.8288  0.4496
  102OSM    H7G10370   1.590   1.896   9.500 -0.5042  1.1172 -1.1384
  102OSM    C8F10371   1.471   2.044   9.403 -0.0806 -0.3787  0.4301
  102OSM    H8F10372   1.562   2.086   9.356 -2.2185  1.1464 -2.5871
  102OSM    H8G10373   1.413   2.133   9.438 -0.6963 -0.7855  0.4632
  102OSM    C9F10374   1.385   1.971   9.307 -0.1018  0.1457 -0.0904
  102OSM    H9F10375   1.326   1.887   9.347 -0.0474 -0.6021 -1.5334
  102OSM   C10F10376   1.395   1.984   9.175  0.1144 -0.1642 -0.7650
  102OSM   H10F10377   1.330   1.918   9.116 -0.0205 -2.8160  2.2239
  102OSM   C11F10378   1.483   2.088   9.107 -0.0507  0.4128  0.2506
  102OSM   H11F10379   1.550   2.037   9.035 -0.9988 -0.5630  0.0418
  102OSM   H11G10380   1.557   2.139   9.173  0.1682 -0.5109  0.7296
  102OSM   C12F10381   1.410   2.201   9.031 -0.1952  0.3012  0.1256
  102OSM   H12F10382   1.359   2.267   9.105 -3.0622 -0.1487 -1.3817
  102OSM   H12G10383   1.336   2.154   8.963  0.2477  1.3412 -1.1038
  102OSM   C13F10384   1.495   2.286   8.932  1.1451  0.1807 -0.2487
  102OSM   H13F10385   1.533   2.240   8.839  0.5300  0.2583 -0.5381
  102OSM   H13G10386   1.584   2.314   8.993  0.9486 -0.4108  0.3128
  102OSM   C14F10387   1.425   2.422   8.895  0.0647  0.1081 -0.0953
  102OSM   H14F10388   1.393   2.473   8.988 -0.6922 -1.5739  0.5832
  102OSM   H14G10389   1.329   2.407   8.840  0.5946 -1.1248 -0.6844
  102OSM   C15F10390   1.515   2.523   8.818 -0.6104  0.3212  0.1821
  102OSM   H15F10391   1.585   2.459   8.760 -1.1982 -1.3925  1.3104
  102OSM   H15G10392   1.580   2.577   8.890  0.0262  1.5031 -1.2629
  102OSM   C16F10393   1.437   2.617   8.727  0.2074  0.3949  0.6841
  102OSM   H16F10394   1.336   2.637   8.768 -0.5683 -2.0574  0.0824
  102OSM   H16G10395   1.416   2.572   8.628 -1.4696  2.8198 -0.0944
  102OSM   C17F10396   1.490   2.762   8.706 -0.3099  0.5595  0.1670
  102OSM   H17F10397   1.596   2.751   8.676 -0.8989 -3.4089 -0.7988
  102OSM   H17G10398   1.485   2.826   8.796 -1.6189  0.3109  0.2814
  102OSM   C18F10399   1.404   2.836   8.600 -0.8917  0.2492  0.1842
  102OSM   H18F10400   1.444   2.812   8.499 -2.4008  0.6864 -0.5396
  102OSM   H18G10401   1.416   2.945   8.616  0.3079  0.2874 -0.9031
  102OSM   H18H10402   1.299   2.800   8.610 -0.7067 -0.7852 -1.4234
  103OSM      N10403   3.646   4.229  11.226  0.0450  0.2272 -0.5847
  103OSM    C1510404   3.571   4.135  11.321  0.0712  0.0844  0.0934
  103OSM   H15A10405   3.466   4.143  11.297  0.2487 -0.9585 -1.0242
  103OSM   H15B10406   3.588   4.163  11.425  0.6221 -1.3684  0.4007
  103OSM   H15C10407   3.606   4.034  11.306 -0.1064  0.1854 -0.9890
  103OSM    C1410408   3.573   4.365  11.229 -0.6256 -0.6631  0.3668
  103OSM   H14A10409   3.635   4.433  11.173 -0.3891 -1.5692 -0.4762
  103OSM   H14B10410   3.550   4.394  11.331 -2.4506  1.3549 -0.5697
  103OSM   H14C10411   3.476   4.357  11.181  0.8457 -1.2512 -2.6240
  103OSM    C1310412   3.774   4.245  11.295  0.0476 -0.3109  0.4152
  103OSM   H13A10413   3.835   4.157  11.291 -2.3825 -1.9695 -2.2496
  103OSM   H13B10414   3.756   4.273  11.398  0.6885  0.6261  0.2802
  103OSM   H13C10415   3.832   4.327  11.253 -2.1453 -0.3556 -2.8925
  103OSM    C1210416   3.657   4.174  11.083 -0.2296  0.8922  0.3590
  103OSM   H12A10417   3.720   4.086  11.074 -1.6836  0.1441 -3.5568
  103OSM   H12B10418   3.706   4.251  11.025 -0.2043  0.5467 -0.0798
  103OSM    C1110419   3.526   4.132  11.014 -0.5302  0.2282 -0.4835
  103OSM   H11A10420   3.483   4.046  11.069 -1.5921 -0.7180 -2.7146
  103OSM   H11B10421   3.551   4.088  10.915 -0.3181 -0.9402  0.0816
  103OSM      P10422   3.447   4.347  10.889 -0.0066 -0.2556 -0.1541
  103OSM    O1310423   3.345   4.452  10.918  0.3280 -0.2440 -0.6312
  103OSM    O1410424   3.587   4.394  10.885  0.0828 -0.4686  0.0705
  103OSM    O1110425   3.420   4.261  10.764  0.6665  0.3465  0.7448
  103OSM    O1210426   3.437   4.237  11.001  0.5512 -0.5107  0.3375
  103OSM    C1S10427   3.288   4.205  10.753 -0.3822  0.8020 -0.1170
  103OSM    H1S10428   3.216   4.290  10.762 -2.0213 -0.7567  1.8335
  103OSM    H1T10429   3.268   4.129  10.831 -1.3959  0.2983 -0.8530
  103OSM     NF10430   3.124   4.103  10.593 -0.2041 -0.0987  0.3758
  103OSM    HNF10431   3.108   4.004  10.592  0.5441 -0.2195 -0.9559
  103OSM    C2S10432   3.267   4.148  10.607  0.1662  0.2183  0.1208
  103OSM    H2S10433   3.281   4.230  10.533  3.0828  0.3905  0.8081
  103OSM    C3S10434   3.370   4.033  10.575  0.4789  0.3415  0.0461
  103OSM    H3S10435   3.355   3.953  10.650  2.7120 -3.7759 -3.6458
  103OSM     O310436   3.502   4.079  10.597 -0.2776  0.0174  0.3859
  103OSM    HO310437   3.504   4.162  10.645 -0.6879 -0.2672  0.8914
  103OSM    C4S10438   3.358   3.966  10.443  0.0128 -0.1905 -0.0648
  103OSM    H4S10439   3.287   3.883  10.437 -0.2698  0.0353  0.1490
  103OSM    C5S10440   3.409   4.004  10.323  0.3765  0.7990 -0.2296
  103OSM    H5S10441   3.487   4.082  10.333 -0.4900  2.3763 -4.6238
  103OSM    C6S10442   3.410   3.939  10.189  0.5937 -0.2702 -0.1754
  103OSM    H6S10443   3.369   3.836  10.194  1.1731 -0.6968 -3.2336
  103OSM    H6T10444   3.513   3.932  10.148  0.3122  3.7655 -1.8017
  103OSM    C7S10445   3.333   4.020  10.082 -0.1010 -0.1291 -0.2077
  103OSM    H7S10446   3.367   4.125  10.069 -0.0599  0.0069  0.9147
  103OSM    H7T10447   3.223   4.018  10.096 -0.2495 -2.6696 -1.4544
  103OSM    C8S10448   3.360   3.955   9.948  0.2276 -0.4072  0.1983
  103OSM    H8S10449   3.317   3.853   9.949 -0.6800 -0.0283  0.1188
  103OSM    H8T10450   3.471   3.945   9.940  0.3710  1.1243  0.2001
  103OSM    C9S10451   3.304   4.025   9.828  0.2062 -0.0596 -0.6696
  103OSM    H9S10452   3.330   4.133   9.836  1.0784 -0.2010 -1.5110
  103OSM    H9T10453   3.194   4.011   9.837  0.4968 -4.2818 -2.3301
  103OSM   C10S10454   3.357   3.964   9.691  1.0280  1.1546 -0.1114
  103OSM   H10S10455   3.314   3.861   9.692  0.1500  1.4574  4.3099
  103OSM   H10T10456   3.467   3.951   9.677  0.7888 -0.3341 -0.7976
  103OSM   C11S10457   3.303   4.051   9.574 -0.0235  0.1773  0.2143
  103OSM   H11S10458   3.353   4.150   9.577  2.0645 -0.8168 -0.9200
  103OSM   H11T10459   3.193   4.066   9.584  0.3755  2.4769  1.6530
  103OSM   C12S10460   3.336   3.977   9.438  0.4133 -0.6218 -0.4973
  103OSM   H12S10461   3.296   3.874   9.429 -0.7784 -0.2889  0.8091
  103OSM   H12T10462   3.447   3.974   9.430  0.4291  1.4434 -1.4826
  103OSM   C13S10463   3.275   4.052   9.321 -0.2144 -0.6543 -0.4157
  103OSM   H13S10464   3.286   4.159   9.349  1.4558 -1.2748  1.4013
  103OSM   H13T10465   3.165   4.033   9.327 -0.7997  3.0722  2.2599
  103OSM   C14S10466   3.339   4.036   9.182  0.9356  0.0292 -0.2977
  103OSM   H14S10467   3.365   3.930   9.160  0.8790 -0.2786  1.0913
  103OSM   H14T10468   3.430   4.099   9.171  0.6550  0.7365  1.3888
  103OSM   C15S10469   3.247   4.073   9.061  0.2157  0.7130  0.4683
  103OSM   H15S10470   3.204   4.174   9.080 -0.1939  0.7196 -0.4638
  103OSM   H15T10471   3.157   4.007   9.060 -0.3071  1.4252 -0.8313
  103OSM   C16S10472   3.305   4.077   8.920  0.6459  0.0083 -0.1161
  103OSM   H16S10473   3.293   3.972   8.886 -1.6313  0.1203  0.2133
  103OSM   H16T10474   3.412   4.105   8.927  0.5489  0.0686  1.4036
  103OSM   C17S10475   3.228   4.172   8.825  0.5355 -0.5555 -0.6036
  103OSM   H17S10476   3.272   4.174   8.723 -3.0667 -1.2734 -2.2603
  103OSM   H17T10477   3.244   4.278   8.855  0.5899 -0.9672  0.8565
  103OSM   C18S10478   3.082   4.137   8.826  0.3564  0.0575 -0.0025
  103OSM   H18S10479   3.066   4.028   8.843  1.1308  0.0971  1.0392
  103OSM   H18T10480   3.032   4.162   8.730  1.0802  0.2611 -0.3287
  103OSM   H18U10481   3.029   4.188   8.909  0.9497 -0.7593  0.8824
  103OSM    C1F10482   3.027   4.190  10.575 -0.6713 -0.1321 -0.0727
  103OSM     OF10483   3.056   4.307  10.566 -0.3184  0.1770 -0.4340
  103OSM    C2F10484   2.890   4.141  10.561 -0.1371  1.0229  0.5894
  103OSM    H2F10485   2.834   4.182  10.647  1.2316  1.4256  1.3129
  103OSM    H2G10486   2.892   4.032  10.583 -1.8979  1.5330  3.4162
  103OSM    C3F10487   2.810   4.187  10.434  0.2636  0.3892 -0.1278
  103OSM    H3F10488   2.818   4.298  10.428 -0.6057  0.3703 -2.0661
  103OSM    H3G10489   2.703   4.155  10.438 -0.4224  2.8222  4.7794
  103OSM    C4F10490   2.864   4.126  10.306 -0.1075 -0.5479  0.3289
  103OSM    H4F10491   2.850   4.019  10.281 -1.5802 -0.3039  0.0581
  103OSM    H4G10492   2.971   4.155  10.299 -0.4244  0.5477 -0.1293
  103OSM    C5F10493   2.801   4.211  10.187 -0.6391 -0.3527 -0.4708
  103OSM    H5F10494   2.819   4.321  10.196 -0.3346 -0.5384  1.4564
  103OSM    H5G10495   2.692   4.192  10.178 -0.8830  0.9905 -0.5670
  103OSM    C6F10496   2.870   4.178  10.047  0.1540  1.0224 -1.0350
  103OSM    H6F10497   2.902   4.072  10.037  1.4437  1.2614  0.2891
  103OSM    H6G10498   2.960   4.243  10.049  0.0550  1.1900 -1.9622
  103OSM    C7F10499   2.789   4.224   9.920  0.0542  0.3208 -0.1436
  103OSM    H7F10500   2.772   4.333   9.915  1.3286  0.5975  1.2427
  103OSM    H7G10501   2.690   4.173   9.919 -0.4524  1.1277  3.2383
  103OSM    C8F10502   2.872   4.177   9.791  0.3337 -0.3120  0.0202
  103OSM    H8F10503   2.806   4.186   9.703 -1.8141 -0.1642  1.5907
  103OSM    H8G10504   2.890   4.067   9.787  0.6878 -0.2747  0.4184
  103OSM    C9F10505   2.998   4.251   9.751 -0.5677  0.4730  0.0085
  103OSM    H9F10506   3.097   4.219   9.787 -0.5927  1.7278  1.1922
  103OSM   C10F10507   3.012   4.357   9.673  0.3100  0.0268  0.1976
  103OSM   H10F10508   3.117   4.382   9.655  0.9376 -1.5530  1.5493
  103OSM   C11F10509   2.917   4.445   9.606  0.2811 -0.0546  0.7957
  103OSM   H11F10510   2.860   4.505   9.680 -1.1830 -2.1133  1.3726
  103OSM   H11G10511   2.842   4.382   9.553 -0.7236 -0.2516  2.4360
  103OSM   C12F10512   3.013   4.526   9.517  0.5619 -0.0559 -0.4029
  103OSM   H12F10513   3.095   4.578   9.571 -0.1037  0.6560 -0.0856
  103OSM   H12G10514   2.962   4.611   9.468 -1.0299 -0.2999  0.8051
  103OSM   C13F10515   3.058   4.454   9.390 -0.0649  0.5299  0.3122
  103OSM   H13F10516   3.117   4.364   9.416 -2.5994 -0.5187  2.5876
  103OSM   H13G10517   2.969   4.408   9.341  0.6223  0.9674 -1.3925
  103OSM   C14F10518   3.147   4.542   9.300  0.9990 -0.1463  0.0876
  103OSM   H14F10519   3.239   4.567   9.358  1.9749 -0.9387 -1.0774
  103OSM   H14G10520   3.091   4.637   9.291 -2.1072 -1.5700  3.4743
  103OSM   C15F10521   3.176   4.480   9.166  0.3999  0.4390  0.2006
  103OSM   H15F10522   3.088   4.442   9.110  0.5635 -2.2704  1.6902
  103OSM   H15G10523   3.240   4.392   9.186 -0.3135 -0.3380 -0.8820
  103OSM   C16F10524   3.257   4.581   9.077 -0.2883  0.3832  0.3491
  103OSM   H16F10525   3.355   4.597   9.127  0.4945  0.5783 -1.2230
  103OSM   H16G10526   3.210   4.681   9.074  1.3660  1.2060  1.1977
  103OSM   C17F10527   3.268   4.534   8.932 -0.5637  0.0303  1.2323
  103OSM   H17F10528   3.165   4.502   8.904 -0.4966  0.6456  0.2767
  103OSM   H17G10529   3.346   4.454   8.937  1.5504  1.9348 -0.5842
  103OSM   C18F10530   3.312   4.642   8.825  0.7105 -0.2930 -0.4471
  103OSM   H18F10531   3.310   4.590   8.727  2.5502  0.1217 -0.7176
  103OSM   H18G10532   3.418   4.674   8.826  0.5309  0.4649 -2.1580
  103OSM   H18H10533   3.245   4.731   8.821 -0.1632 -0.8736  1.0522
  104OSM      N10534   0.803   4.180  10.838 -0.1093  0.0957 -0.5469
  104OSM    C1510535   0.913   4.225  10.748  0.3452  0.4073 -0.2255
  104OSM   H15A10536   1.013   4.191  10.768  1.3026  2.1163 -2.0357
  104OSM   H15B10537   0.923   4.331  10.761  0.9225  0.3013  0.2359
  104OSM   H15C10538   0.887   4.202  10.646  0.4609  2.7012 -0.7828
  104OSM    C1410539   0.838   4.216  10.980 -0.3272 -0.3722 -0.0386
  104OSM   H14A10540   0.747   4.225  11.038  1.1181  1.3520  2.0785
  104OSM   H14B10541   0.892   4.310  10.986 -1.9620  0.5692  0.1437
  104OSM   H14C10542   0.917   4.151  11.014  0.3903 -0.5332 -1.9430
  104OSM    C1310543   0.679   4.251  10.804 -0.0037 -0.1236  0.1599
  104OSM   H13A10544   0.604   4.220  10.874  0.2699  0.0588  0.5356
  104OSM   H13B10545   0.647   4.212  10.708  0.7412  0.4684 -0.3396
  104OSM   H13C10546   0.687   4.358  10.803  0.6663 -0.1517  1.8950
  104OSM    C1210547   0.799   4.031  10.828 -0.1055 -0.5794 -0.0620
  104OSM   H12A10548   0.714   4.001  10.887 -0.3261  1.6319  0.7825
  104OSM   H12B10549   0.896   4.006  10.868  0.8607  3.0245 -0.0089
  104OSM    C1110550   0.767   3.976  10.686 -0.2047 -0.3413 -0.4304
  104OSM   H11A10551   0.791   3.868  10.671 -1.7509 -1.0152  1.6156
  104OSM   H11B10552   0.843   4.017  10.617  0.5370  0.7285  1.0069
  104OSM      P10553   0.528   3.901  10.618 -0.0616  0.0357 -0.2922
  104OSM    O1310554   0.544   3.831  10.488  0.1356 -0.2624  0.3600
  104OSM    O1410555   0.521   3.814  10.738 -0.3551  0.1619  0.1732
  104OSM    O1110556   0.394   3.988  10.612  0.1115  0.1421 -0.4676
  104OSM    O1210557   0.635   4.011  10.637 -0.0417 -0.4289 -0.2352
  104OSM    C1S10558   0.389   4.118  10.560 -0.2885 -0.6004 -0.4427
  104OSM    H1S10559   0.466   4.181  10.608 -0.1446 -0.6863 -0.5589
  104OSM    H1T10560   0.295   4.171  10.584  0.5698 -0.0953  1.8980
  104OSM     NF10561   0.415   4.258  10.362  0.6408  0.0541 -0.6245
  104OSM    HNF10562   0.336   4.310  10.331 -2.1456 -1.4617  3.5156
  104OSM    C2S10563   0.399   4.120  10.406 -0.2681  0.6371 -0.6310
  104OSM    H2S10564   0.487   4.061  10.374  1.7744  3.3063 -0.1131
  104OSM    C3S10565   0.280   4.062  10.341 -0.1764 -0.0221  0.4341
  104OSM    H3S10566   0.195   4.128  10.370  0.4117  0.8750  0.1724
  104OSM     O310567   0.246   3.930  10.381 -0.0468  0.0879  0.0538
  104OSM    HO310568   0.296   3.934  10.463 -0.1701 -0.1596  0.1425
  104OSM    C4S10569   0.288   4.067  10.192 -0.2936 -0.1220 -0.7792
  104OSM    H4S10570   0.236   4.153  10.147 -1.3793 -0.8750 -0.9913
  104OSM    C5S10571   0.339   3.976  10.107 -0.4311 -0.0951 -0.6636
  104OSM    H5S10572   0.388   3.885  10.146  1.3273  1.3505  0.5909
  104OSM    C6S10573   0.348   3.973   9.960  0.3933 -0.0600  0.3842
  104OSM    H6S10574   0.240   3.967   9.933  0.5728  3.2697 -1.4097
  104OSM    H6T10575   0.403   3.887   9.914  0.5646 -0.0623  0.5943
  104OSM    C7S10576   0.413   4.100   9.893  0.1111  0.3807  0.3525
  104OSM    H7S10577   0.504   4.140   9.941  1.0782 -0.1827 -0.9777
  104OSM    H7T10578   0.334   4.177   9.909  0.8312  1.0442  0.7240
  104OSM    C8S10579   0.444   4.093   9.749  0.3457 -0.1501 -0.3425
  104OSM    H8S10580   0.536   4.033   9.733  0.0236 -1.4562  2.4006
  104OSM    H8T10581   0.468   4.193   9.707  3.1136 -0.7082 -0.1773
  104OSM    C9S10582   0.332   4.039   9.665  0.0040  0.8167 -0.3974
  104OSM    H9S10583   0.255   4.119   9.662 -1.2042 -0.2953  0.3064
  104OSM    H9T10584   0.281   3.954   9.713  2.1240 -0.8709 -1.0417
  104OSM   C10S10585   0.354   4.004   9.520 -0.5665  0.3105 -0.6135
  104OSM   H10S10586   0.256   4.000   9.470 -0.9525  1.9672 -0.0213
  104OSM   H10T10587   0.399   3.902   9.522  0.0504  0.5889  0.4051
  104OSM   C11S10588   0.446   4.097   9.448  0.5690  0.1140  0.2278
  104OSM   H11S10589   0.537   4.128   9.503  1.0659  0.3057 -0.6880
  104OSM   H11T10590   0.379   4.180   9.418 -2.8972 -2.6533 -0.0554
  104OSM   C12S10591   0.495   4.044   9.306 -0.9374 -0.4912 -0.0613
  104OSM   H12S10592   0.411   4.024   9.236 -2.7886  0.1543  1.9084
  104OSM   H12T10593   0.536   3.941   9.315  2.0450  0.7272  0.7320
  104OSM   C13S10594   0.597   4.128   9.241 -0.0113 -0.1345 -0.1550
  104OSM   H13S10595   0.684   4.127   9.309 -0.7561  0.3830  0.8107
  104OSM   H13T10596   0.567   4.235   9.240 -2.3288 -0.7122 -3.1539
  104OSM   C14S10597   0.634   4.087   9.097  0.0761  0.5652  0.0279
  104OSM   H14S10598   0.551   4.098   9.024 -0.1161  1.0006  0.3060
  104OSM   H14T10599   0.674   3.984   9.100  1.1648  1.0110  2.0172
  104OSM   C15S10600   0.735   4.182   9.025  0.1867  0.0103  0.5233
  104OSM   H15S10601   0.812   4.220   9.095 -1.2714 -0.2810  2.3208
  104OSM   H15T10602   0.677   4.272   8.998 -0.9024  0.1579  3.1811
  104OSM   C16S10603   0.797   4.108   8.903  0.9080  0.9653  0.2354
  104OSM   H16S10604   0.711   4.077   8.841  2.2944  0.1666 -1.3216
  104OSM   H16T10605   0.854   4.023   8.946  0.6524  0.2750 -0.7786
  104OSM   C17S10606   0.887   4.199   8.818  0.0708 -0.4074  0.1094
  104OSM   H17S10607   0.974   4.226   8.882 -0.5281  0.0471  0.7392
  104OSM   H17T10608   0.832   4.293   8.797  3.0270  0.6278 -3.7246
  104OSM   C18S10609   0.921   4.131   8.686 -0.5324  0.1689  0.5148
  104OSM   H18S10610   0.963   4.200   8.610  1.5989 -2.5729 -0.9244
  104OSM   H18T10611   0.824   4.098   8.642  0.8423  0.1582 -2.6770
  104OSM   H18U10612   0.985   4.041   8.699 -2.4229 -0.9769  2.3900
  104OSM    C1F10613   0.529   4.325  10.375 -0.2926  0.0541  0.3255
  104OSM     OF10614   0.618   4.264  10.430 -0.0563 -0.1931  0.3522
  104OSM    C2F10615   0.534   4.465  10.319  0.3431 -0.0911  0.0656
  104OSM    H2F10616   0.607   4.517  10.384  1.1175 -0.8676 -0.1796
  104OSM    H2G10617   0.441   4.526  10.315  1.1277  1.0489 -1.7365
  104OSM    C3F10618   0.580   4.471  10.172 -0.1877 -0.1126  0.6252
  104OSM    H3F10619   0.659   4.397  10.151  0.0628 -0.4676  2.7147
  104OSM    H3G10620   0.620   4.574  10.155 -0.5995 -0.4264 -2.4558
  104OSM    C4F10621   0.467   4.454  10.069 -0.8491 -0.1135 -0.0072
  104OSM    H4F10622   0.385   4.528  10.083 -0.0876  0.5261  1.0928
  104OSM    H4G10623   0.402   4.364  10.075  0.7599 -1.5262 -2.8708
  104OSM    C5F10624   0.527   4.457   9.936 -0.3422 -1.1313  0.4223
  104OSM    H5F10625   0.586   4.365   9.915  2.8230  0.6413  1.1312
  104OSM    H5G10626   0.587   4.551   9.937  0.3237 -1.5483 -0.3429
  104OSM    C6F10627   0.422   4.472   9.824  0.1287  0.4751 -0.5183
  104OSM    H6F10628   0.351   4.557   9.832 -1.9044 -1.3384  1.1281
  104OSM    H6G10629   0.367   4.376   9.814 -1.9542  1.4131  1.4298
  104OSM    C7F10630   0.482   4.497   9.688 -0.3311 -0.2107 -0.0403
  104OSM    H7F10631   0.560   4.422   9.661  0.7392  0.8518  0.0777
  104OSM    H7G10632   0.529   4.597   9.692 -0.2783 -0.1925 -1.0582
  104OSM    C8F10633   0.380   4.503   9.573 -0.1087  0.2820  0.5302
  104OSM    H8F10634   0.302   4.579   9.595 -1.7299 -1.3018  0.4058
  104OSM    H8G10635   0.337   4.401   9.581  0.8542 -0.2121 -0.4711
  104OSM    C9F10636   0.432   4.539   9.439 -0.0723 -0.5806 -0.8848
  104OSM    H9F10637   0.518   4.473   9.418  0.1712 -0.1773 -1.1535
  104OSM   C10F10638   0.391   4.629   9.351 -0.2245 -0.5744  0.3913
  104OSM   H10F10639   0.453   4.628   9.260  0.1238 -0.5781  0.6271
  104OSM   C11F10640   0.282   4.731   9.354 -0.1881 -0.1778 -0.1069
  104OSM   H11F10641   0.309   4.830   9.311  1.9983 -1.0893 -0.8986
  104OSM   H11G10642   0.254   4.760   9.458 -4.6813  1.1954 -1.5427
  104OSM   C12F10643   0.145   4.680   9.305 -0.3775 -0.4096 -0.4493
  104OSM   H12F10644   0.077   4.758   9.345  0.9506  1.4673 -1.7709
  104OSM   H12G10645   0.105   4.582   9.338  1.1197  0.3257  3.8380
  104OSM   C13F10646   0.141   4.664   9.151 -0.1918  0.2625 -0.4191
  104OSM   H13F10647   0.214   4.586   9.119 -0.6619 -0.8643  1.1460
  104OSM   H13G10648   0.162   4.765   9.109  0.6161  1.2123  2.1708
  104OSM   C14F10649   0.008   4.615   9.082  0.2369 -0.0161 -0.2757
  104OSM   H14F10650  -0.068   4.696   9.089  0.9680  0.8400 -1.9249
  104OSM   H14G10651  -0.016   4.520   9.134  2.1738 -1.0447 -1.2150
  104OSM   C15F10652   0.028   4.591   8.935 -0.1703 -0.2377 -0.6825
  104OSM   H15F10653   0.124   4.535   8.925  0.6042  0.9409 -0.0125
  104OSM   H15G10654   0.033   4.682   8.872 -0.9460 -0.1628 -0.6376
  104OSM   C16F10655  -0.083   4.504   8.870  0.0790 -0.3794 -0.6199
  104OSM   H16F10656  -0.182   4.553   8.880 -0.7290 -2.0677 -0.1837
  104OSM   H16G10657  -0.087   4.405   8.921  0.9004  0.2524  0.7143
  104OSM   C17F10658  -0.053   4.496   8.715  0.8287 -0.5851  0.1658
  104OSM   H17F10659   0.014   4.407   8.716  1.0754 -0.4047 -0.2416
  104OSM   H17G10660   0.004   4.584   8.679 -0.4256  0.0333 -0.3197
  104OSM   C18F10661  -0.170   4.468   8.617  0.6314  0.0643  1.0853
  104OSM   H18F10662  -0.237   4.557   8.617 -0.3002 -0.6229  1.2593
  104OSM   H18G10663  -0.244   4.394   8.654 -0.9368  0.9386 -0.2207
  104OSM   H18H10664  -0.123   4.445   8.519  1.6627  1.6996  1.1691
  105OSM      N10665   6.671   3.394  11.017  0.0599 -0.2054 -0.4472
  105OSM    C1510666   6.563   3.355  11.117  0.4542  0.7414  0.6904
  105OSM   H15A10667   6.584   3.396  11.214  1.8476  1.1963  0.2095
  105OSM   H15B10668   6.571   3.249  11.136 -2.1116  1.0534  3.9624
  105OSM   H15C10669   6.464   3.371  11.075  1.5511 -1.0598 -2.7821
  105OSM    C1410670   6.669   3.545  11.004  0.1736  0.4349 -0.5902
  105OSM   H14A10671   6.733   3.576  10.923 -2.2729 -1.7928 -3.5410
  105OSM   H14B10672   6.700   3.589  11.097 -2.1532  1.7715 -0.4282
  105OSM   H14C10673   6.566   3.572  10.984  0.7276  1.5256 -2.1123
  105OSM    C1310674   6.800   3.341  11.069 -0.1444  1.2287 -0.7040
  105OSM   H13A10675   6.792   3.236  11.091  2.2914  1.4986  1.8589
  105OSM   H13B10676   6.831   3.383  11.164  0.4419  0.1973 -0.4305
  105OSM   H13C10677   6.882   3.353  10.999  0.1708 -0.2429 -0.5982
  105OSM    C1210678   6.649   3.318  10.882 -0.0655 -0.1898 -0.3033
  105OSM   H12A10679   6.548   3.343  10.852  0.1121  0.1454 -0.6210
  105OSM   H12B10680   6.648   3.212  10.902  0.9693 -0.0239  0.6405
  105OSM    C1110681   6.751   3.348  10.771  0.7602  0.0650  0.9781
  105OSM   H11A10682   6.735   3.457  10.752 -0.8940 -0.3220 -0.0037
  105OSM   H11B10683   6.721   3.284  10.685  0.4456  1.7463 -0.2007
  105OSM      P10684   6.958   3.186  10.768 -0.1250 -0.3197 -0.1138
  105OSM    O1310685   7.097   3.191  10.828 -0.3572  0.4017 -0.1232
  105OSM    O1410686   6.873   3.073  10.808 -0.0295 -0.0250 -0.9061
  105OSM    O1110687   6.964   3.195  10.611 -0.2911  0.5672 -0.9176
  105OSM    O1210688   6.887   3.322  10.803  0.3113 -0.2386 -0.5009
  105OSM    C1S10689   7.072   3.264  10.553  0.2441 -0.0907  0.0357
  105OSM    H1S10690   7.169   3.212  10.571  0.4864  0.3418 -0.0050
  105OSM    H1T10691   7.088   3.367  10.592 -2.6990  1.1118 -1.8101
  105OSM     NF10692   7.146   3.371  10.336 -0.2296  0.2030  0.4260
  105OSM    HNF10693   7.133   3.466  10.307 -1.6420  0.0060  0.3831
  105OSM    C2S10694   7.036   3.300  10.401  0.0601 -0.2684  0.2440
  105OSM    H2S10695   7.014   3.207  10.344  2.2117  0.1264 -1.3089
  105OSM    C3S10696   6.907   3.392  10.398  0.1127  0.7075 -0.1549
  105OSM    H3S10697   6.948   3.484  10.445 -0.3308  0.2025  1.2517
  105OSM     O310698   6.785   3.359  10.465  0.0650  0.1437 -0.1918
  105OSM    HO310699   6.815   3.282  10.515  0.9774  0.6358  0.0396
  105OSM    C4S10700   6.866   3.420  10.254 -0.1682 -0.1989 -0.3175
  105OSM    H4S10701   6.815   3.337  10.203  0.1554 -1.4287  1.3285
  105OSM    C5S10702   6.874   3.539  10.194 -0.1034  0.5611  0.4653
  105OSM    H5S10703   6.907   3.624  10.256  1.5371  0.6393 -0.4857
  105OSM    C6S10704   6.834   3.576  10.045 -0.4287  0.2453 -0.4383
  105OSM    H6S10705   6.761   3.659  10.055  0.0137  0.4456  1.3405
  105OSM    H6T10706   6.784   3.495   9.989  0.8259 -0.0491 -1.1402
  105OSM    C7S10707   6.962   3.622   9.967  0.6435  0.5038  0.4543
  105OSM    H7S10708   7.025   3.531   9.963 -0.9006 -0.6529  1.6921
  105OSM    H7T10709   7.009   3.705  10.025 -0.3534  0.6692  1.0384
  105OSM    C8S10710   6.940   3.673   9.824  0.1718  0.6196  0.2081
  105OSM    H8S10711   7.021   3.733   9.779 -2.0270  1.3396 -2.9812
  105OSM    H8T10712   6.851   3.740   9.821 -0.1219  0.2987  1.4273
  105OSM    C9S10713   6.917   3.559   9.728 -0.4563  0.3037 -0.6470
  105OSM    H9S10714   6.829   3.498   9.760 -2.1998  2.3473 -1.4412
  105OSM    H9T10715   7.009   3.497   9.719  0.2057  1.3145 -0.9111
  105OSM   C10S10716   6.899   3.622   9.590 -0.7956  0.2852  0.2063
  105OSM   H10S10717   6.977   3.697   9.566  0.3720 -0.3248  1.9814
  105OSM   H10T10718   6.798   3.667   9.600 -1.2165 -0.8761  1.3684
  105OSM   C11S10719   6.898   3.524   9.474  0.4505  0.4936 -0.4445
  105OSM   H11S10720   6.828   3.443   9.502  0.4561 -0.4600 -3.0250
  105OSM   H11T10721   6.994   3.469   9.465  1.3195  2.2636 -2.3826
  105OSM   C12S10722   6.856   3.588   9.342 -0.7727 -0.4944  0.1337
  105OSM   H12S10723   6.943   3.654   9.326 -1.4667 -0.1983 -2.5440
  105OSM   H12T10724   6.762   3.645   9.359 -1.1226 -1.2587  0.8679
  105OSM   C13S10725   6.831   3.479   9.235  0.6627  0.5427  0.1240
  105OSM   H13S10726   6.751   3.406   9.261  0.2960  0.5920 -0.8151
  105OSM   H13T10727   6.924   3.424   9.209 -0.1360 -1.7184  1.8626
  105OSM   C14S10728   6.787   3.538   9.103  0.4651 -0.1725  0.8834
  105OSM   H14S10729   6.862   3.613   9.070  0.3603 -0.0147  1.0062
  105OSM   H14T10730   6.689   3.589   9.107  1.0051  0.7901  2.4753
  105OSM   C15S10731   6.784   3.440   8.988  0.6376  0.9511 -0.6122
  105OSM   H15S10732   6.710   3.362   9.016  1.0560  0.6187 -0.4186
  105OSM   H15T10733   6.883   3.390   8.977 -0.2451 -0.8145 -0.6797
  105OSM   C16S10734   6.733   3.510   8.854  0.4050 -0.1832  0.2071
  105OSM   H16S10735   6.656   3.579   8.895 -1.1277 -0.9865 -1.2729
  105OSM   H16T10736   6.691   3.427   8.792 -2.6097  0.9609  0.6278
  105OSM   C17S10737   6.849   3.589   8.791 -0.0493 -0.2458  0.1434
  105OSM   H17S10738   6.934   3.517   8.796 -1.1283 -1.5541  0.0246
  105OSM   H17T10739   6.880   3.674   8.856  0.0935  1.9495 -2.7219
  105OSM   C18S10740   6.823   3.632   8.645  0.0853  0.6437 -0.4376
  105OSM   H18S10741   6.804   3.538   8.589 -0.4527 -0.5250  1.6197
  105OSM   H18T10742   6.913   3.675   8.597 -0.0288 -1.1763 -2.3609
  105OSM   H18U10743   6.726   3.685   8.644 -0.8365 -0.9953 -0.4381
  105OSM    C1F10744   7.267   3.316  10.332 -0.4810 -0.1820  0.0134
  105OSM     OF10745   7.282   3.194  10.342 -0.4533  0.0061 -0.3874
  105OSM    C2F10746   7.383   3.405  10.303 -0.5734  0.4371  0.9965
  105OSM    H2F10747   7.393   3.472  10.391 -4.3322  1.1438  0.9546
  105OSM    H2G10748   7.344   3.472  10.224  2.8742  0.2822 -0.9367
  105OSM    C3F10749   7.515   3.352  10.250 -0.7813  0.3010 -0.1332
  105OSM    H3F10750   7.489   3.288  10.162  1.5594  0.4393 -0.9545
  105OSM    H3G10751   7.563   3.290  10.329  0.3176  0.1896 -0.8713
  105OSM    C4F10752   7.622   3.449  10.190  0.1944  0.7045  0.7441
  105OSM    H4F10753   7.693   3.383  10.136 -0.6702 -0.3882  0.9164
  105OSM    H4G10754   7.678   3.495  10.273  2.0619 -2.6887  1.4804
  105OSM    C5F10755   7.564   3.559  10.098  0.0136  0.2853 -0.5233
  105OSM    H5F10756   7.651   3.627  10.085  0.5942 -0.4475 -0.5707
  105OSM    H5G10757   7.487   3.616  10.153 -0.0056 -1.3002  1.1317
  105OSM    C6F10758   7.507   3.509   9.970 -0.4369  0.4373 -0.3237
  105OSM    H6F10759   7.407   3.464   9.987  1.3182 -2.3324  3.3616
  105OSM    H6G10760   7.572   3.442   9.909 -1.4171  1.7906 -2.9628
  105OSM    C7F10761   7.474   3.624   9.879 -0.5660 -0.1186  0.2975
  105OSM    H7F10762   7.564   3.682   9.849 -1.2035  1.0582  0.5950
  105OSM    H7G10763   7.405   3.689   9.938 -1.9284 -1.6713  0.4412
  105OSM    C8F10764   7.398   3.583   9.751 -0.4343 -0.5792  0.1090
  105OSM    H8F10765   7.297   3.549   9.779 -0.9089 -0.3024 -1.2361
  105OSM    H8G10766   7.445   3.495   9.703 -0.1549 -0.9700  1.0988
  105OSM    C9F10767   7.389   3.705   9.662  0.1053  0.0302 -0.3484
  105OSM    H9F10768   7.361   3.799   9.712  1.9860  0.5985 -0.3314
  105OSM   C10F10769   7.429   3.711   9.531 -0.3127  0.4450  0.2790
  105OSM   H10F10770   7.404   3.802   9.474 -1.0177 -1.3844 -2.3822
  105OSM   C11F10771   7.481   3.602   9.445  0.2038  0.1602 -0.2067
  105OSM   H11F10772   7.555   3.537   9.496 -0.4277  0.6821  1.4141
  105OSM   H11G10773   7.533   3.643   9.356  1.7233 -1.0083  0.1254
  105OSM   C12F10774   7.377   3.494   9.389 -0.4248 -0.1180  0.2940
  105OSM   H12F10775   7.280   3.496   9.443  0.3146 -1.4877  1.7058
  105OSM   H12G10776   7.423   3.394   9.402  0.2853  0.1042 -0.5260
  105OSM   C13F10777   7.354   3.501   9.232 -0.0116 -0.0656 -0.0930
  105OSM   H13F10778   7.272   3.431   9.208 -0.7373 -0.0550  2.1933
  105OSM   H13G10779   7.443   3.461   9.180 -0.5744  3.1616 -3.7260
  105OSM   C14F10780   7.325   3.648   9.184  0.0896  0.0723 -0.3706
  105OSM   H14F10781   7.415   3.712   9.197  2.6588 -3.1898 -1.2839
  105OSM   H14G10782   7.238   3.687   9.241  0.1038 -0.2139 -0.1506
  105OSM   C15F10783   7.282   3.641   9.037 -0.7928 -0.0799  0.2964
  105OSM   H15F10784   7.192   3.576   9.046  0.1270 -1.1900  1.6681
  105OSM   H15G10785   7.357   3.576   8.989 -2.0341 -1.7531  0.5863
  105OSM   C16F10786   7.270   3.778   8.971 -0.9783  0.2524  0.6075
  105OSM   H16F10787   7.370   3.824   8.960 -0.4665 -0.9271  0.2816
  105OSM   H16G10788   7.204   3.847   9.028 -0.3176  2.4812 -1.2309
  105OSM   C17F10789   7.218   3.778   8.827  0.2650  0.0177  0.1532
  105OSM   H17F10790   7.196   3.884   8.805 -0.9497 -0.1292  0.6537
  105OSM   H17G10791   7.117   3.735   8.813  0.1214  0.5404 -0.4417
  105OSM   C18F10792   7.312   3.714   8.727  0.1471  0.3525  0.5810
  105OSM   H18F10793   7.406   3.771   8.714  1.5983 -1.9686  0.4640
  105OSM   H18G10794   7.261   3.705   8.628  0.4681 -1.9888  0.5870
  105OSM   H18H10795   7.353   3.614   8.755 -0.8471 -0.9789 -2.4687
  106OSM      N10796   1.513   2.260  10.599  0.2294 -0.4208  0.2054
  106OSM    C1510797   1.440   2.329  10.480  0.6880  1.2606 -0.5018
  106OSM   H15A10798   1.505   2.376  10.408 -0.9520  0.6126 -2.4537
  106OSM   H15B10799   1.373   2.402  10.525 -0.1937 -0.3002  0.7477
  106OSM   H15C10800   1.381   2.258  10.425  1.3297 -2.4365  3.3633
  106OSM    C1410801   1.591   2.370  10.663 -0.2152  0.7378  0.4534
  106OSM   H14A10802   1.679   2.388  10.604  0.8921  2.9125  2.6537
  106OSM   H14B10803   1.626   2.338  10.760 -3.3031  1.0426  1.7283
  106OSM   H14C10804   1.531   2.460  10.661 -0.1073  0.7965 -3.0861
  106OSM    C1310805   1.400   2.211  10.685 -0.8915  0.3342 -0.1171
  106OSM   H13A10806   1.345   2.299  10.716  2.0461  2.7620 -1.5860
  106OSM   H13B10807   1.437   2.159  10.772 -3.5986 -1.8992 -0.2426
  106OSM   H13C10808   1.346   2.140  10.624 -0.2808 -0.7311  0.5796
  106OSM    C1210809   1.600   2.149  10.549  0.1699 -0.4603  0.0364
  106OSM   H12A10810   1.641   2.095  10.633 -1.5106 -0.6582  0.7364
  106OSM   H12B10811   1.692   2.177  10.499  0.0647 -1.9493 -0.9997
  106OSM    C1110812   1.526   2.046  10.461 -0.3208  0.7752 -0.4411
  106OSM   H11A10813   1.609   1.987  10.417 -0.6933 -1.1829  1.3857
  106OSM   H11B10814   1.476   2.097  10.376 -3.0464 -0.2501  0.4731
  106OSM      P10815   1.478   1.863  10.646 -0.3353 -0.2136  0.6226
  106OSM    O1310816   1.606   1.903  10.705 -0.1760  0.2577  0.0105
  106OSM    O1410817   1.365   1.828  10.732  0.0438 -0.1102  0.0483
  106OSM    O1110818   1.509   1.731  10.565 -0.0494 -0.1031 -0.8083
  106OSM    O1210819   1.430   1.967  10.533  0.5784  0.0927 -0.1139
  106OSM    C1S10820   1.439   1.692  10.446 -0.3835 -0.2136  0.0990
  106OSM    H1S10821   1.485   1.752  10.364 -2.1627 -0.5537 -1.1901
  106OSM    H1T10822   1.331   1.718  10.446  0.3473  3.1815 -1.5984
  106OSM     NF10823   1.416   1.530  10.263 -0.0388 -0.1538  0.1803
  106OSM    HNF10824   1.325   1.492  10.252  0.1099 -0.0622 -1.5769
  106OSM    C2S10825   1.472   1.546  10.398 -0.4147 -0.4348 -0.5419
  106OSM    H2S10826   1.582   1.530  10.391 -0.6425 -2.4129  0.2379
  106OSM    C3S10827   1.431   1.440  10.497  0.1796 -0.0994  0.4118
  106OSM    H3S10828   1.323   1.445  10.523 -0.0802 -1.6628 -0.3048
  106OSM     O310829   1.498   1.455  10.616 -0.3209  0.0942 -0.5266
  106OSM    HO310830   1.520   1.548  10.623  0.0659  0.0570 -1.2357
  106OSM    C4S10831   1.452   1.307  10.421  0.2804 -0.2739 -0.2052
  106OSM    H4S10832   1.362   1.265  10.373 -0.6838 -1.5629  2.6101
  106OSM    C5S10833   1.567   1.235  10.406  0.4840  0.1439  0.0345
  106OSM    H5S10834   1.670   1.259  10.438  0.3589  0.9886 -0.2058
  106OSM    C6S10835   1.559   1.105  10.328 -1.0190  1.0208  0.3712
  106OSM    H6S10836   1.462   1.100  10.275 -0.0677  1.8854 -1.4654
  106OSM    H6T10837   1.547   1.026  10.406 -1.8848  2.1425  1.3961
  106OSM    C7S10838   1.675   1.087  10.236 -0.8531 -0.4023  0.2295
  106OSM    H7S10839   1.680   0.979  10.208  0.0553 -0.2507 -0.2184
  106OSM    H7T10840   1.770   1.123  10.279 -1.0119  0.2151  0.0599
  106OSM    C8S10841   1.652   1.173  10.102 -0.5624 -0.6828 -0.7052
  106OSM    H8S10842   1.737   1.151  10.035  0.2754 -0.9363  0.4266
  106OSM    H8T10843   1.665   1.279  10.133  2.5191 -1.1512 -0.2204
  106OSM    C9S10844   1.520   1.133  10.037 -1.0004  0.0041  0.6431
  106OSM    H9S10845   1.444   1.199  10.083 -2.0159  0.9907 -2.3005
  106OSM    H9T10846   1.484   1.028  10.044 -1.0946 -0.0554 -0.5820
  106OSM   C10S10847   1.520   1.166   9.888  0.5555  0.2268 -0.8388
  106OSM   H10S10848   1.528   1.275   9.870 -1.6366  0.5273 -0.1207
  106OSM   H10T10849   1.416   1.146   9.854 -0.3109  1.9418  0.7467
  106OSM   C11S10850   1.615   1.093   9.794 -0.3131  0.2199  1.1072
  106OSM   H11S10851   1.610   0.985   9.819 -0.4157 -0.1186 -0.3772
  106OSM   H11T10852   1.722   1.121   9.805  0.1368 -0.2914 -1.6842
  106OSM   C12S10853   1.578   1.108   9.646 -0.5010 -0.2374  0.3123
  106OSM   H12S10854   1.567   1.213   9.613 -1.3133 -0.7647 -1.1766
  106OSM   H12T10855   1.471   1.078   9.637 -0.5574  0.4768 -1.5722
  106OSM   C13S10856   1.653   1.023   9.549  0.1159  0.5735  0.5070
  106OSM   H13S10857   1.639   0.915   9.567  1.8741  0.1001 -0.8252
  106OSM   H13T10858   1.763   1.036   9.561  0.8293 -1.9523 -2.5025
  106OSM   C14S10859   1.606   1.061   9.403 -0.7373  0.4625  0.3886
  106OSM   H14S10860   1.637   1.167   9.393 -1.1100  0.5322 -0.0084
  106OSM   H14T10861   1.496   1.048   9.401 -0.7325  0.6112 -2.1698
  106OSM   C15S10862   1.675   0.972   9.296  0.2868 -0.1077 -0.2205
  106OSM   H15S10863   1.670   0.867   9.331  0.0969 -0.1513 -0.3784
  106OSM   H15T10864   1.780   1.007   9.287  0.6538 -1.2977 -0.6685
  106OSM   C16S10865   1.609   0.970   9.156 -0.3563  0.1152 -0.4671
  106OSM   H16S10866   1.593   1.080   9.145 -0.4986  0.2730  1.1777
  106OSM   H16T10867   1.509   0.926   9.174 -0.1402  0.2188  1.0521
  106OSM   C17S10868   1.689   0.904   9.041  0.1234  0.0584 -0.4613
  106OSM   H17S10869   1.620   0.858   8.967  1.1260 -1.8940 -0.2423
  106OSM   H17T10870   1.724   0.807   9.084  1.8984  0.8180 -0.1782
  106OSM   C18S10871   1.797   0.979   8.967 -0.4538 -0.4000 -0.5894
  106OSM   H18S10872   1.839   0.919   8.883 -1.0946 -1.3762 -0.2253
  106OSM   H18T10873   1.879   1.005   9.037  1.2355 -1.1894 -2.2254
  106OSM   H18U10874   1.761   1.074   8.922  0.4098 -0.8024 -2.1690
  106OSM    C1F10875   1.470   1.604  10.160  0.9510  0.7916 -0.3081
  106OSM     OF10876   1.582   1.653  10.178  0.0598  0.5185  0.4416
  106OSM    C2F10877   1.392   1.609  10.029  0.1457 -0.3046  0.1199
  106OSM    H2F10878   1.315   1.532  10.051  1.0630 -1.3198 -0.1644
  106OSM    H2G10879   1.444   1.570   9.939  2.9158  0.3934  1.3656
  106OSM    C3F10880   1.332   1.748  10.000  0.2729  0.7363  0.7729
  106OSM    H3F10881   1.407   1.827   9.979  0.9093 -0.9118 -3.5630
  106OSM    H3G10882   1.269   1.778  10.087 -0.8400  1.3402 -0.2335
  106OSM    C4F10883   1.241   1.761   9.870 -0.1370  0.6817  0.8604
  106OSM    H4F10884   1.305   1.763   9.779 -1.2329  0.5850  0.0742
  106OSM    H4G10885   1.190   1.860   9.874  1.5960  1.6429 -0.3521
  106OSM    C5F10886   1.131   1.659   9.866 -0.7020 -0.5292 -0.4342
  106OSM    H5F10887   1.078   1.650   9.963 -1.2723  0.9690 -0.6037
  106OSM    H5G10888   1.179   1.559   9.854  0.4879 -0.1048  0.6651
  106OSM    C6F10889   1.023   1.683   9.760  0.3958  0.4420  0.1481
  106OSM    H6F10890   0.989   1.785   9.788 -1.9233 -0.1468 -0.4423
  106OSM    H6G10891   0.938   1.613   9.776 -1.0920  2.3144  0.5903
  106OSM    C7F10892   1.072   1.677   9.617 -0.5179 -0.6084 -0.1814
  106OSM    H7F10893   1.126   1.580   9.603 -0.3040 -0.6750  1.0523
  106OSM    H7G10894   1.155   1.750   9.611  1.0629 -2.3100  0.4077
  106OSM    C8F10895   0.960   1.697   9.510  0.1067  0.1373 -0.5326
  106OSM    H8F10896   0.888   1.613   9.518 -0.5932  0.6823 -1.0143
  106OSM    H8G10897   1.006   1.696   9.408 -0.3324  2.4514 -0.7810
  106OSM    C9F10898   0.884   1.827   9.516 -0.3895 -0.5598 -0.0906
  106OSM    H9F10899   0.805   1.814   9.592  1.8403  0.2444  2.4465
  106OSM   C10F10900   0.887   1.920   9.418 -0.0129 -0.2207 -0.2006
  106OSM   H10F10901   0.818   2.005   9.419  0.6839  0.4089 -2.3247
  106OSM   C11F10902   0.979   1.922   9.296  0.7366  0.2604 -0.6209
  106OSM   H11F10903   1.005   1.818   9.267  0.5428  0.3579 -1.1377
  106OSM   H11G10904   1.070   1.981   9.317  1.1753  0.0317 -1.8447
  106OSM   C12F10905   0.906   1.990   9.175 -0.3764  0.4910  0.3403
  106OSM   H12F10906   0.918   2.100   9.186  2.0906  0.1383  1.7335
  106OSM   H12G10907   0.800   1.956   9.171 -0.3751  0.5035  0.1958
  106OSM   C13F10908   0.972   1.937   9.048  0.1794  0.8269 -0.0973
  106OSM   H13F10909   0.974   1.826   9.047 -0.6709  0.7873  1.6509
  106OSM   H13G10910   1.077   1.973   9.037  0.6542 -0.4803  0.0694
  106OSM   C14F10911   0.895   1.971   8.920  0.9260  0.4146 -1.5048
  106OSM   H14F10912   0.787   1.955   8.943  1.2015 -1.6723 -1.4871
  106OSM   H14G10913   0.923   1.902   8.837  0.7082 -0.0890 -1.1621
  106OSM   C15F10914   0.899   2.118   8.883  0.5513  0.2330  0.7111
  106OSM   H15F10915   0.877   2.181   8.973 -0.4308 -1.5658  1.7647
  106OSM   H15G10916   0.823   2.140   8.805 -1.4149 -1.0629  2.2090
  106OSM   C16F10917   1.036   2.149   8.826  0.3285 -0.2570 -0.0643
  106OSM   H16F10918   1.063   2.073   8.749  0.6431 -0.7895  0.5616
  106OSM   H16G10919   1.113   2.146   8.907 -1.0229  0.6369  1.2705
  106OSM   C17F10920   1.046   2.288   8.774  0.2724 -0.6881 -0.8827
  106OSM   H17F10921   0.968   2.304   8.697  1.6846  0.7558 -2.0344
  106OSM   H17G10922   1.147   2.304   8.730  0.2596  1.4931 -0.1731
  106OSM   C18F10923   1.019   2.402   8.877 -0.4351  0.6020 -0.7562
  106OSM   H18F10924   1.013   2.502   8.829 -2.2763  0.5759 -0.6158
  106OSM   H18G10925   1.090   2.415   8.961 -0.3026 -0.1163 -0.7497
  106OSM   H18H10926   0.916   2.394   8.916 -0.4294  0.8042 -0.6997
  107OSM      N10927   2.122   6.376  11.327 -0.1038 -0.1368  0.1111
  107OSM    C1510928   2.132   6.342  11.474  0.1734  0.2720  0.0253
  107OSM   H15A10929   2.061   6.268  11.507  1.7241 -0.9330  0.7395
  107OSM   H15B10930   2.111   6.429  11.533 -0.0731  0.0655  0.2409
  107OSM   H15C10931   2.232   6.302  11.487 -0.1401 -1.3971 -2.2267
  107OSM    C1410932   1.996   6.460  11.316 -0.4395 -0.1855 -0.0515
  107OSM   H14A10933   2.008   6.541  11.386 -0.6750 -0.5749  0.4400
  107OSM   H14B10934   1.913   6.409  11.362  1.0035 -0.2724  2.5613
  107OSM   H14C10935   1.987   6.502  11.217 -1.2922 -0.8299 -0.2530
  107OSM    C1310936   2.240   6.461  11.289  0.2673 -0.4964  0.0189
  107OSM   H13A10937   2.226   6.497  11.188 -3.8583  0.1612  0.7348
  107OSM   H13B10938   2.331   6.404  11.297  1.1095  1.1555  2.9562
  107OSM   H13C10939   2.245   6.551  11.348 -0.3207 -0.4093 -0.0590
  107OSM    C1210940   2.109   6.245  11.247 -0.1173 -0.5515  0.2945
  107OSM   H12A10941   2.209   6.208  11.229  0.3042  1.5007 -1.8845
  107OSM   H12B10942   2.088   6.279  11.146  0.7279 -0.9190 -0.0033
  107OSM    C1110943   2.011   6.136  11.302  0.7067 -0.2164  0.1053
  107OSM   H11A10944   1.916   6.189  11.323  2.5687  2.7224  1.4840
  107OSM   H11B10945   2.050   6.105  11.401  0.7591  1.1085  0.5127
  107OSM      P10946   1.913   6.037  11.079  0.4038 -0.4989  0.2594
  107OSM    O1310947   1.862   5.903  11.035  0.5688 -0.1469 -0.5601
  107OSM    O1410948   1.812   6.139  11.099  0.3332  0.0151  0.1056
  107OSM    O1110949   2.028   6.071  10.977 -0.2198 -0.3420  0.4055
  107OSM    O1210950   2.000   6.024  11.215  0.2112 -0.8131  0.5962
  107OSM    C1S10951   2.020   6.007  10.849 -0.1504  0.1257 -0.6078
  107OSM    H1S10952   1.920   6.024  10.802  0.2514  0.6862 -1.2696
  107OSM    H1T10953   2.035   5.897  10.851  0.7766  0.2379 -1.1489
  107OSM     NF10954   2.120   6.007  10.628 -0.1724  0.1751  0.0633
  107OSM    HNF10955   2.176   5.938  10.582 -0.8739 -1.5568  1.7112
  107OSM    C2S10956   2.145   6.047  10.765 -0.3811 -0.1415 -0.1169
  107OSM    H2S10957   2.158   6.157  10.769 -0.4912 -0.1750  1.9905
  107OSM    C3S10958   2.272   5.988  10.827  0.1681 -0.2124  0.4026
  107OSM    H3S10959   2.271   5.877  10.821 -1.4306 -0.1595 -0.5352
  107OSM     O310960   2.286   6.023  10.965  0.0876 -0.2865 -0.0512
  107OSM    HO310961   2.196   6.029  11.000  0.0642  1.1357 -0.3505
  107OSM    C4S10962   2.391   6.030  10.736 -0.2209 -0.5378 -0.1603
  107OSM    H4S10963   2.399   5.979  10.639  1.4981  0.4077 -0.5343
  107OSM    C5S10964   2.467   6.139  10.759 -0.5441  0.2060 -0.5086
  107OSM    H5S10965   2.463   6.190  10.857 -0.7868 -0.8069  0.0107
  107OSM    C6S10966   2.577   6.186  10.670  0.3559  0.1544  0.1470
  107OSM    H6S10967   2.676   6.167  10.715 -0.4882 -0.4360  1.8004
  107OSM    H6T10968   2.576   6.296  10.655  1.3407  0.1159 -0.2034
  107OSM    C7S10969   2.584   6.129  10.530  0.2351  0.6054 -0.1430
  107OSM    H7S10970   2.491   6.155  10.476  1.0712  1.7239 -1.0650
  107OSM    H7T10971   2.587   6.018  10.537  2.0395  0.7631  2.4261
  107OSM    C8S10972   2.699   6.184  10.439 -0.2416  0.6370  0.5916
  107OSM    H8S10973   2.797   6.171  10.488  0.6138 -1.7899 -1.6226
  107OSM    H8T10974   2.676   6.292  10.436  1.3970  0.9697 -0.4279
  107OSM    C9S10975   2.687   6.126  10.298 -1.2396  0.0474  0.2213
  107OSM    H9S10976   2.584   6.140  10.260 -1.4692  0.3883  0.9518
  107OSM    H9T10977   2.707   6.016  10.299 -0.6774  0.0861  4.5213
  107OSM   C10S10978   2.790   6.183  10.201 -0.3549  0.7573  0.0211
  107OSM   H10S10979   2.784   6.126  10.106 -1.2418  1.2358 -0.2226
  107OSM   H10T10980   2.889   6.166  10.247 -0.0517 -0.1936 -0.9795
  107OSM   C11S10981   2.757   6.326  10.156  0.3273  0.2048  0.3898
  107OSM   H11S10982   2.750   6.391  10.246 -0.8671 -0.7753  1.0197
  107OSM   H11T10983   2.666   6.342  10.094  1.8519 -0.8627 -2.1883
  107OSM   C12S10984   2.872   6.387  10.073  0.0429 -0.2159 -0.1012
  107OSM   H12S10985   2.972   6.371  10.119  0.0166  1.0052  0.3984
  107OSM   H12T10986   2.852   6.496  10.081  1.1486  0.2155 -2.7265
  107OSM   C13S10987   2.889   6.335   9.931  0.3599  0.1322 -0.0399
  107OSM   H13S10988   2.937   6.235   9.925 -0.7090 -0.6547  3.3824
  107OSM   H13T10989   2.959   6.401   9.874 -2.4455  2.2265 -1.1707
  107OSM   C14S10990   2.767   6.330   9.846  0.5490  0.5878 -0.1621
  107OSM   H14S10991   2.724   6.432   9.832 -2.2172 -0.6954 -1.2937
  107OSM   H14T10992   2.683   6.276   9.893 -0.2580  1.8843 -0.0777
  107OSM   C15S10993   2.794   6.282   9.709 -0.0548  0.0152  0.7716
  107OSM   H15S10994   2.822   6.176   9.729 -1.6708 -0.3761  1.0303
  107OSM   H15T10995   2.880   6.341   9.671 -1.9812  0.6920 -2.6811
  107OSM   C16S10996   2.684   6.286   9.610 -1.1704 -0.2546  0.7838
  107OSM   H16S10997   2.642   6.389   9.611  1.1876  0.7878 -1.5088
  107OSM   H16T10998   2.619   6.203   9.645 -0.7281 -1.3906 -1.0484
  107OSM   C17S10999   2.728   6.253   9.466 -0.5994 -0.0511 -0.1294
  107OSM   H17S11000   2.647   6.290   9.398 -0.9643  0.1994  0.4406
  107OSM   H17T11001   2.735   6.142   9.461 -1.1387 -0.0817 -0.1925
  107OSM   C18S11002   2.864   6.316   9.428 -0.0636 -0.1119  0.0866
  107OSM   H18S11003   2.880   6.313   9.318  1.5451  0.4062  0.2948
  107OSM   H18T11004   2.944   6.260   9.481 -0.1874 -1.5083 -1.1677
  107OSM   H18U11005   2.865   6.423   9.456 -3.2831 -0.0250  0.0136
  107OSM    C1F11006   2.029   6.066  10.559 -0.4265 -0.1822  0.0482
  107OSM     OF11007   1.979   6.171  10.592  0.0429 -0.0018  0.0113
  107OSM    C2F11008   1.985   5.999  10.435  0.1483 -1.0466  0.2470
  107OSM    H2F11009   1.920   5.912  10.460  0.6814 -1.5635 -0.1625
  107OSM    H2G11010   2.073   5.959  10.380  0.8918  0.4219  0.3425
  107OSM    C3F11011   1.903   6.091  10.344 -0.0706 -0.1396  0.5382
  107OSM    H3F11012   1.949   6.189  10.323 -1.2073  0.3430  0.2544
  107OSM    H3G11013   1.807   6.113  10.396 -0.8243 -0.5731 -0.6367
  107OSM    C4F11014   1.870   6.024  10.206 -0.0773  0.3140 -0.1262
  107OSM    H4F11015   1.794   6.088  10.158 -1.8213 -2.6654 -1.4571
  107OSM    H4G11016   1.834   5.919  10.204 -0.9290  0.5639  1.2007
  107OSM    C5F11017   1.996   6.044  10.117 -0.3036 -0.2192 -0.9777
  107OSM    H5F11018   2.080   5.984  10.156 -0.9754 -0.1066  0.6686
  107OSM    H5G11019   2.036   6.148  10.126  1.8777 -0.9291 -2.1337
  107OSM    C6F11020   1.960   6.008   9.968  0.1560 -0.3222 -0.6265
  107OSM    H6F11021   1.933   6.100   9.913 -1.0805  1.2710  2.5019
  107OSM    H6G11022   1.862   5.956   9.975 -0.1521  0.1791 -1.2548
  107OSM    C7F11023   2.068   5.930   9.885  0.1941  0.6637  0.0030
  107OSM    H7F11024   2.079   5.826   9.922  0.7717  0.7003 -0.0632
  107OSM    H7G11025   2.163   5.987   9.895  0.3653  0.3428  0.2104
  107OSM    C8F11026   2.029   5.934   9.738 -0.2864  0.3677 -0.5526
  107OSM    H8F11027   2.031   6.038   9.700 -0.4161  0.2598 -0.8561
  107OSM    H8G11028   1.923   5.905   9.726 -0.2117 -0.3274  0.3342
  107OSM    C9F11029   2.114   5.838   9.654 -0.2145  0.7781  0.4561
  107OSM    H9F11030   2.091   5.730   9.654  1.1913  0.4586 -1.2974
  107OSM   C10F11031   2.210   5.881   9.574  0.6488  0.0527 -0.0337
  107OSM   H10F11032   2.279   5.806   9.534 -2.0934 -2.2932 -0.5239
  107OSM   C11F11033   2.249   6.029   9.574 -0.6284 -0.4735 -0.3934
  107OSM   H11F11034   2.274   6.060   9.677  1.5487 -1.6316 -0.5418
  107OSM   H11G11035   2.159   6.084   9.539  0.0082  0.1079 -1.1336
  107OSM   C12F11036   2.363   6.057   9.485 -0.2935 -0.1433 -0.3128
  107OSM   H12F11037   2.457   6.009   9.519 -0.1147  0.3784 -0.0469
  107OSM   H12G11038   2.393   6.164   9.490 -0.2497 -0.0711 -1.9776
  107OSM   C13F11039   2.333   6.030   9.335  0.2194  0.8216  0.2177
  107OSM   H13F11040   2.230   6.067   9.321  0.8790  1.9690 -1.8532
  107OSM   H13G11041   2.347   5.921   9.319 -2.9739  0.6213 -1.4433
  107OSM   C14F11042   2.422   6.108   9.239  0.1664 -0.0494  0.4128
  107OSM   H14F11043   2.526   6.070   9.247  1.0675  2.2132 -0.1310
  107OSM   H14G11044   2.440   6.213   9.269 -2.1712 -0.1495  2.3212
  107OSM   C15F11045   2.370   6.101   9.090 -0.4664  0.4725  0.5727
  107OSM   H15F11046   2.324   6.007   9.054  0.9370 -0.4107  1.0285
  107OSM   H15G11047   2.458   6.125   9.026  0.3783 -2.5577  0.4998
  107OSM   C16F11048   2.267   6.214   9.054  0.5109 -0.7308 -0.0408
  107OSM   H16F11049   2.318   6.307   9.089  0.5533 -0.5406 -0.6130
  107OSM   H16G11050   2.170   6.195   9.106 -0.1341  2.2067 -0.0923
  107OSM   C17F11051   2.246   6.235   8.904 -0.8353  0.3187  0.5065
  107OSM   H17F11052   2.212   6.141   8.856  2.3143 -0.0719 -1.1038
  107OSM   H17G11053   2.340   6.262   8.852 -2.5710  1.5087 -2.1187
  107OSM   C18F11054   2.143   6.345   8.878 -0.1699  0.2219 -0.7673
  107OSM   H18F11055   2.040   6.309   8.899  0.6833 -1.6499  0.3333
  107OSM   H18G11056   2.148   6.375   8.771 -1.1857  0.4802 -0.7463
  107OSM   H18H11057   2.159   6.433   8.944  0.5628 -2.8583  3.3301
  108OSM      N11058   6.262   3.648  11.272  0.2273 -0.1641 -0.0209
  108OSM    C1511059   6.115   3.659  11.302  0.1084 -0.0420  0.3404
  108OSM   H15A11060   6.091   3.613  11.397 -1.0164  0.6982  0.4219
  108OSM   H15B11061   6.054   3.608  11.229  1.5936 -0.5903 -0.5495
  108OSM   H15C11062   6.081   3.761  11.295  1.1823  0.2660 -0.6830
  108OSM    C1411063   6.349   3.684  11.392  0.6246  0.4191 -0.3059
  108OSM   H14A11064   6.322   3.611  11.467 -0.5950 -0.5863 -1.6701
  108OSM   H14B11065   6.346   3.784  11.433  0.5387  0.0199  0.6719
  108OSM   H14C11066   6.449   3.682  11.352  0.2495 -0.1117 -1.2505
  108OSM    C1311067   6.293   3.514  11.228  0.0922 -0.1177  0.2191
  108OSM   H13A11068   6.366   3.502  11.149  1.0265  1.9360  0.7083
  108OSM   H13B11069   6.205   3.466  11.190  0.3506 -0.2355 -0.2259
  108OSM   H13C11070   6.328   3.466  11.318 -1.5044  1.9722  2.0132
  108OSM    C1211071   6.309   3.746  11.163  0.4480  0.0252  0.1616
  108OSM   H12A11072   6.416   3.751  11.156  0.6091 -0.7861  1.7640
  108OSM   H12B11073   6.279   3.847  11.188 -3.9088 -0.9860 -0.5782
  108OSM    C1111074   6.267   3.715  11.023  0.3917 -0.6410 -0.2741
  108OSM   H11A11075   6.262   3.802  10.955  0.8210 -1.1947 -1.0212
  108OSM   H11B11076   6.161   3.682  11.026 -0.4135  1.9034  0.7236
  108OSM      P11077   6.329   3.497  10.869  0.0788  0.1459  0.0563
  108OSM    O1311078   6.425   3.504  10.756  0.7504  0.1258 -0.5711
  108OSM    O1411079   6.328   3.372  10.939  0.2773  0.3220 -0.0411
  108OSM    O1111080   6.169   3.517  10.829 -0.0329 -0.3578  0.3518
  108OSM    O1211081   6.356   3.614  10.980  0.0444 -0.1357  0.6744
  108OSM    C1S11082   6.122   3.602  10.722 -0.0241 -0.3362  0.1077
  108OSM    H1S11083   6.168   3.702  10.715  0.3883 -0.4931  0.4961
  108OSM    H1T11084   6.014   3.619  10.738  0.1965 -0.0476  1.4134
  108OSM     NF11085   6.064   3.630  10.476  0.4447  0.3798 -0.1778
  108OSM    HNF11086   5.977   3.607  10.432  0.2136  2.0618 -0.6263
  108OSM    C2S11087   6.121   3.535  10.576  1.0430  0.2629 -0.5350
  108OSM    H2S11088   6.228   3.514  10.556  0.2736 -0.6198 -4.0446
  108OSM    C3S11089   6.048   3.395  10.580 -0.0564 -0.2391 -0.3715
  108OSM    H3S11090   5.945   3.410  10.620  0.0943 -0.9083  0.2676
  108OSM     O311091   6.119   3.296  10.647 -0.0121 -0.2366 -0.3794
  108OSM    HO311092   6.175   3.339  10.712  0.0298 -0.6269 -0.1566
  108OSM    C4S11093   6.044   3.349  10.433 -0.7170 -0.5050  0.4787
  108OSM    H4S11094   6.138   3.299  10.404 -0.3486 -1.7318  3.5254
  108OSM    C5S11095   5.938   3.334  10.354 -0.1188 -0.2582 -0.3203
  108OSM    H5S11096   5.835   3.357  10.386 -0.0024  0.7741 -0.6651
  108OSM    C6S11097   5.930   3.280  10.218  0.1888  0.6837 -0.1666
  108OSM    H6S11098   6.029   3.247  10.178  0.6607  0.5643  1.0716
  108OSM    H6T11099   5.894   3.354  10.144 -0.8519 -0.2351 -0.6001
  108OSM    C7S11100   5.833   3.158  10.205  0.9247 -0.4795 -0.3137
  108OSM    H7S11101   5.729   3.194  10.224  1.3538  0.5199  0.1864
  108OSM    H7T11102   5.860   3.080  10.279 -0.2747 -0.0553  0.5912
  108OSM    C8S11103   5.849   3.089  10.072  0.8531 -0.0828 -0.5594
  108OSM    H8S11104   5.787   2.998  10.073 -0.5497  0.8774  0.5301
  108OSM    H8T11105   5.957   3.065  10.057  0.8162 -0.8411  0.3726
  108OSM    C9S11106   5.788   3.160   9.951  0.4205  0.4800 -0.2248
  108OSM    H9S11107   5.833   3.261   9.935  3.0463 -0.6588 -0.3163
  108OSM    H9T11108   5.678   3.161   9.961  0.6098 -0.3234  2.2978
  108OSM   C10S11109   5.826   3.080   9.828 -0.3539  0.0112  0.1211
  108OSM   H10S11110   5.786   2.977   9.839  0.8339 -0.6681 -1.8279
  108OSM   H10T11111   5.937   3.076   9.827 -0.2567  0.2590  3.1498
  108OSM   C11S11112   5.766   3.131   9.694  0.6986  0.3945  0.3821
  108OSM   H11S11113   5.802   3.235   9.676 -0.1608  1.0716  2.4080
  108OSM   H11T11114   5.656   3.144   9.703  0.7925  1.8535 -0.4713
  108OSM   C12S11115   5.799   3.041   9.582  0.0324  0.1212  0.4069
  108OSM   H12S11116   5.768   2.938   9.609  1.9842 -0.4992  0.3334
  108OSM   H12T11117   5.907   3.035   9.557 -0.6929  0.8167 -3.1958
  108OSM   C13S11118   5.720   3.086   9.458  0.1974  0.2696  0.1000
  108OSM   H13S11119   5.734   3.196   9.456 -0.2715  0.3136 -0.6329
  108OSM   H13T11120   5.616   3.051   9.479  0.7240 -0.3099  1.8820
  108OSM   C14S11121   5.771   3.008   9.332  0.4450  0.8554 -0.3197
  108OSM   H14S11122   5.719   2.910   9.338  0.5271  0.8571  0.4450
  108OSM   H14T11123   5.880   3.004   9.352 -0.1642 -2.7041  2.8639
  108OSM   C15S11124   5.741   3.068   9.191  0.5179  0.6545 -0.1464
  108OSM   H15S11125   5.633   3.095   9.189  0.4964  0.5454 -0.4949
  108OSM   H15T11126   5.763   2.997   9.109  0.1946  0.1528  0.1971
  108OSM   C16S11127   5.823   3.192   9.147  0.2675  0.3428  0.1566
  108OSM   H16S11128   5.931   3.173   9.165  0.6066  1.0674 -1.0173
  108OSM   H16T11129   5.798   3.288   9.198  2.1845  0.1871  1.4762
  108OSM   C17S11130   5.817   3.209   8.999  0.5348  0.4721 -0.0188
  108OSM   H17S11131   5.711   3.235   8.982  0.8281  0.9243 -1.2789
  108OSM   H17T11132   5.862   3.119   8.951  3.3146  0.6001  2.2089
  108OSM   C18S11133   5.888   3.339   8.942  0.3745  0.2568 -0.0377
  108OSM   H18S11134   5.906   3.332   8.833  0.2448 -1.1826  0.0240
  108OSM   H18T11135   5.988   3.360   8.984  1.7921 -1.4973 -2.3967
  108OSM   H18U11136   5.840   3.439   8.952 -0.0264  0.0338  0.2967
  108OSM    C1F11137   6.114   3.747  10.439 -0.1555  0.1689  0.1703
  108OSM     OF11138   6.219   3.788  10.488  0.3665  0.1174  1.3605
  108OSM    C2F11139   6.030   3.824  10.346  0.3451  0.7356  0.0834
  108OSM    H2F11140   6.094   3.905  10.306 -0.4837  0.0396 -2.7939
  108OSM    H2G11141   5.939   3.859  10.398  0.8033  0.9578  0.7418
  108OSM    C3F11142   5.980   3.749  10.218 -0.7050  0.1731  0.1632
  108OSM    H3F11143   5.925   3.831  10.165 -1.8849  0.5927  1.9701
  108OSM    H3G11144   5.898   3.681  10.250 -0.8011  0.7284  1.1427
  108OSM    C4F11145   6.091   3.684  10.129 -0.2458  0.0413 -0.3755
  108OSM    H4F11146   6.154   3.619  10.194 -0.4070 -0.1920 -0.4545
  108OSM    H4G11147   6.155   3.771  10.101  3.6269 -2.6308 -0.2673
  108OSM    C5F11148   6.034   3.623  10.003 -0.2542  0.8367 -0.3886
  108OSM    H5F11149   5.971   3.537  10.034  0.1494  0.7036  0.0617
  108OSM    H5G11150   6.116   3.575   9.946 -0.3319 -2.7141  2.3114
  108OSM    C6F11151   5.953   3.709   9.903  0.6598  0.7668  0.1878
  108OSM    H6F11152   6.017   3.778   9.846 -1.0783 -0.6739 -3.6494
  108OSM    H6G11153   5.875   3.759   9.966 -1.5642 -2.4242  0.0832
  108OSM    C7F11154   5.883   3.607   9.809 -0.0502  0.3320 -0.8848
  108OSM    H7F11155   5.811   3.551   9.873  1.3878  2.0988  2.4214
  108OSM    H7G11156   5.962   3.539   9.771 -0.3632 -1.3363  1.3660
  108OSM    C8F11157   5.791   3.671   9.697 -0.0015  0.0488 -0.0506
  108OSM    H8F11158   5.852   3.757   9.661 -1.7284  1.7480  1.0144
  108OSM    H8G11159   5.701   3.714   9.745 -1.3641 -1.2544 -1.3890
  108OSM    C9F11160   5.757   3.560   9.593  0.0360  0.4179 -0.3649
  108OSM    H9F11161   5.705   3.470   9.629  1.1095  0.2707  0.8859
  108OSM   C10F11162   5.763   3.585   9.467  1.0263 -0.0536  0.4148
  108OSM   H10F11163   5.732   3.506   9.396  0.9228 -0.6583  1.1311
  108OSM   C11F11164   5.821   3.710   9.402  0.2647 -0.5766  0.4022
  108OSM   H11F11165   5.921   3.742   9.437 -0.1947  0.3146  0.9169
  108OSM   H11G11166   5.750   3.795   9.407 -1.2794 -1.7925 -0.1950
  108OSM   C12F11167   5.831   3.693   9.247 -0.2988  0.2726  0.3241
  108OSM   H12F11168   5.916   3.627   9.219  0.1067  0.4836  1.0600
  108OSM   H12G11169   5.855   3.793   9.206 -0.3700 -0.5315 -1.7945
  108OSM   C13F11170   5.714   3.650   9.158  0.2245 -0.0029  0.0393
  108OSM   H13F11171   5.614   3.672   9.202  0.2661  0.1928  0.0362
  108OSM   H13G11172   5.718   3.541   9.137  0.5709  0.0707 -0.2653
  108OSM   C14F11173   5.716   3.700   9.014  0.1901  0.6475 -0.4565
  108OSM   H14F11174   5.801   3.652   8.961 -1.3465 -2.6241 -0.0824
  108OSM   H14G11175   5.731   3.810   9.024 -0.3101  0.5829  1.0398
  108OSM   C15F11176   5.583   3.667   8.940  0.4734 -0.6579 -0.1043
  108OSM   H15F11177   5.504   3.702   9.009  2.4375  1.7777  0.9702
  108OSM   H15G11178   5.581   3.559   8.911  0.4508 -0.1958 -1.8358
  108OSM   C16F11179   5.556   3.752   8.806 -0.0198 -0.8693 -0.0235
  108OSM   H16F11180   5.644   3.733   8.740 -1.5689  1.7090 -2.9114
  108OSM   H16G11181   5.582   3.857   8.832  2.1513 -1.0437 -1.3470
  108OSM   C17F11182   5.429   3.711   8.731  0.0443 -0.6389  0.0845
  108OSM   H17F11183   5.339   3.723   8.796  0.9758 -2.0776  1.6724
  108OSM   H17G11184   5.433   3.606   8.698  3.7854 -0.2992 -0.6667
  108OSM   C18F11185   5.403   3.802   8.612 -0.3446 -0.4161 -0.4479
  108OSM   H18F11186   5.393   3.910   8.634  0.2826 -0.6344  0.9161
  108OSM   H18G11187   5.311   3.764   8.562 -0.4011 -2.3307  1.0621
  108OSM   H18H11188   5.482   3.795   8.535 -0.9891  0.6835 -1.2351
  109OSM      N11189   6.413   4.376  10.917  0.3629  0.2914 -0.5567
  109OSM    C1511190   6.278   4.431  10.926  0.1520 -0.4619 -0.1704
  109OSM   H15A11191   6.265   4.486  11.017 -0.5025 -1.0814  0.1185
  109OSM   H15B11192   6.206   4.351  10.941 -0.1368 -0.2104 -0.2038
  109OSM   H15C11193   6.257   4.482  10.833  1.2109 -0.6983 -0.5360
  109OSM    C1411194   6.446   4.278  11.021  0.5602  0.7562 -0.1749
  109OSM   H14A11195   6.411   4.302  11.120  4.3320  1.0343  1.1694
  109OSM   H14B11196   6.552   4.257  11.027  0.7726  2.0974  0.8759
  109OSM   H14C11197   6.400   4.183  10.999 -0.5264  0.9269  1.2947
  109OSM    C1311198   6.425   4.314  10.786 -0.0633 -0.0098 -0.1182
  109OSM   H13A11199   6.338   4.257  10.757  0.6769 -0.2217 -2.0202
  109OSM   H13B11200   6.513   4.251  10.791  0.1708  0.2500 -0.8744
  109OSM   H13C11201   6.446   4.385  10.707  0.4384 -0.5887 -0.5129
  109OSM    C1211202   6.510   4.489  10.914 -0.0310 -0.0676 -0.0134
  109OSM   H12A11203   6.477   4.564  10.984  1.5100  0.9703 -0.3669
  109OSM   H12B11204   6.496   4.548  10.825 -1.3181 -1.9920 -1.0976
  109OSM    C1111205   6.660   4.466  10.941 -0.1159  0.1172 -0.2628
  109OSM   H11A11206   6.662   4.417  11.041 -0.3599 -1.0605 -0.8346
  109OSM   H11B11207   6.723   4.558  10.947 -0.7386  0.5579 -0.4229
  109OSM      P11208   6.747   4.447  10.698  0.2881 -0.1832 -0.2309
  109OSM    O1311209   6.894   4.456  10.697  0.5905 -0.5786  0.0635
  109OSM    O1411210   6.684   4.361  10.594 -0.7291 -0.5440  0.1629
  109OSM    O1111211   6.683   4.593  10.699  0.1358 -0.0539  0.6416
  109OSM    O1211212   6.721   4.379  10.835  0.2811 -0.1087 -0.4007
  109OSM    C1S11213   6.713   4.673  10.586  0.2041 -0.3202 -0.6672
  109OSM    H1S11214   6.821   4.695  10.583  0.3101 -0.8496 -0.8673
  109OSM    H1T11215   6.666   4.771  10.608  2.5882  0.5207  0.8808
  109OSM     NF11216   6.718   4.722  10.350 -0.5718 -0.5283 -0.2613
  109OSM    HNF11217   6.648   4.782  10.314 -1.6279 -2.2701 -1.1927
  109OSM    C2S11218   6.667   4.627  10.446  0.0746  0.6034 -0.5064
  109OSM    H2S11219   6.718   4.530  10.427 -2.6871 -0.8208 -0.8378
  109OSM    C3S11220   6.509   4.615  10.450 -0.2688 -0.0118 -0.2109
  109OSM    H3S11221   6.471   4.717  10.474 -1.1308 -0.2176 -0.6757
  109OSM     O311222   6.453   4.515  10.540  0.0913 -0.2893 -0.1077
  109OSM    HO311223   6.534   4.493  10.587  1.6872  2.2011 -1.5714
  109OSM    C4S11224   6.465   4.587  10.309  0.0632 -0.5630  0.8218
  109OSM    H4S11225   6.433   4.684  10.268 -0.3344 -0.1816  1.9886
  109OSM    C5S11226   6.476   4.477  10.234 -0.3898  0.1225  0.1967
  109OSM    H5S11227   6.513   4.380  10.273  1.0878  0.3359 -0.6279
  109OSM    C6S11228   6.436   4.470  10.085  0.4358 -0.6227 -0.4097
  109OSM    H6S11229   6.340   4.415  10.087  0.1470 -0.1355 -0.8643
  109OSM    H6T11230   6.508   4.406  10.030  1.9934  0.0515  0.8135
  109OSM    C7S11231   6.429   4.603  10.009 -0.5971  0.5563 -0.1205
  109OSM    H7S11232   6.529   4.651  10.012 -1.3362  2.2925 -1.9645
  109OSM    H7T11233   6.358   4.673  10.059  0.1912  1.4658 -0.2447
  109OSM    C8S11234   6.396   4.583   9.861  0.0011  0.1005 -0.0770
  109OSM    H8S11235   6.295   4.536   9.865  0.0901 -0.3542 -2.7399
  109OSM    H8T11236   6.461   4.503   9.820  1.5615  1.4927 -0.3595
  109OSM    C9S11237   6.376   4.714   9.781 -0.2223 -0.6929  0.4549
  109OSM    H9S11238   6.468   4.777   9.774  2.2390 -4.1190  0.3958
  109OSM    H9T11239   6.300   4.781   9.826  1.4531  1.2442  0.4892
  109OSM   C10S11240   6.334   4.689   9.636  0.1569  0.0170 -0.7116
  109OSM   H10S11241   6.264   4.772   9.613  0.0059 -0.0104 -0.3544
  109OSM   H10T11242   6.271   4.599   9.624  0.3598 -0.1121 -0.8083
  109OSM   C11S11243   6.453   4.675   9.543  0.1890  0.2743  0.0805
  109OSM   H11S11244   6.515   4.585   9.561  0.8072  0.5382 -0.6796
  109OSM   H11T11245   6.510   4.767   9.571  1.5822 -1.3743  2.9124
  109OSM   C12S11246   6.412   4.682   9.391 -0.2494 -0.4474  0.2300
  109OSM   H12S11247   6.501   4.709   9.331  0.2548 -1.9373  0.2889
  109OSM   H12T11248   6.330   4.757   9.387  0.7856  0.6269 -1.7885
  109OSM   C13S11249   6.372   4.542   9.341 -0.1334  0.0278 -0.3547
  109OSM   H13S11250   6.263   4.526   9.357  0.4747 -0.8793  3.1498
  109OSM   H13T11251   6.425   4.461   9.394 -1.5740 -2.8001 -3.0380
  109OSM   C14S11252   6.399   4.525   9.195 -0.3864  0.9604  0.2443
  109OSM   H14S11253   6.503   4.552   9.166 -0.1567 -0.9174 -0.7677
  109OSM   H14T11254   6.343   4.604   9.141  0.2593  2.0257  1.1007
  109OSM   C15S11255   6.356   4.386   9.127 -0.4149 -0.0980  0.5445
  109OSM   H15S11256   6.247   4.397   9.112 -0.2715  0.5063 -0.0711
  109OSM   H15T11257   6.380   4.299   9.192  2.7828  2.2872  2.7156
  109OSM   C16S11258   6.429   4.362   8.994 -0.3654  0.0786  0.4028
  109OSM   H16S11259   6.535   4.343   9.021 -0.1915  2.0200  1.1655
  109OSM   H16T11260   6.429   4.456   8.934 -2.7178 -1.0839 -1.5098
  109OSM   C17S11261   6.366   4.249   8.905 -0.7045 -0.0615 -0.0757
  109OSM   H17S11262   6.424   4.234   8.811  0.7425 -2.0732  1.0933
  109OSM   H17T11263   6.257   4.259   8.885 -0.8273 -1.3635 -0.0937
  109OSM   C18S11264   6.396   4.114   8.975 -0.6617 -0.4181 -0.2002
  109OSM   H18S11265   6.505   4.099   8.964 -0.5932  0.5231 -0.8815
  109OSM   H18T11266   6.345   4.027   8.929  0.2686 -1.0554 -0.0475
  109OSM   H18U11267   6.366   4.114   9.082  0.1333  0.0079  0.0300
  109OSM    C1F11268   6.843   4.739  10.317 -0.5286  0.3837 -0.4382
  109OSM     OF11269   6.941   4.670  10.350  0.2140 -0.4553 -0.0389
  109OSM    C2F11270   6.870   4.846  10.216 -0.0575 -0.8734 -0.8072
  109OSM    H2F11271   6.956   4.910  10.244 -0.6116 -0.2034 -0.6233
  109OSM    H2G11272   6.782   4.913  10.215 -1.0254 -2.1334 -1.2023
  109OSM    C3F11273   6.921   4.780  10.087 -0.4426  0.1439  0.4197
  109OSM    H3F11274   7.015   4.723  10.104 -0.1402 -0.5042 -2.9177
  109OSM    H3G11275   6.932   4.865  10.016 -1.3451 -1.2556 -1.4749
  109OSM    C4F11276   6.816   4.689  10.024  0.2693  0.0048 -0.1248
  109OSM    H4F11277   6.728   4.756  10.015 -0.1527 -0.4283  0.7837
  109OSM    H4G11278   6.777   4.611  10.092 -1.3511  0.5820 -0.3722
  109OSM    C5F11279   6.843   4.621   9.883 -0.6842 -0.7108 -0.4526
  109OSM    H5F11280   6.756   4.569   9.838  0.2729 -1.0200 -2.0302
  109OSM    H5G11281   6.919   4.541   9.901  1.5851  0.3898 -4.3935
  109OSM    C6F11282   6.913   4.723   9.794 -0.2404 -0.6224  0.3174
  109OSM    H6F11283   6.921   4.673   9.695 -2.0397 -1.1373  0.4053
  109OSM    H6G11284   7.017   4.750   9.819 -0.2601  1.0972 -1.3815
  109OSM    C7F11285   6.811   4.836   9.761  0.6349  0.3319  0.3923
  109OSM    H7F11286   6.802   4.902   9.850  1.9303  1.8733 -0.5844
  109OSM    H7G11287   6.712   4.798   9.727 -0.5165  1.7972  1.9491
  109OSM    C8F11288   6.858   4.915   9.635  0.5267 -0.1770  0.9042
  109OSM    H8F11289   6.838   4.848   9.548  0.6163  0.6401  0.2464
  109OSM    H8G11290   6.968   4.925   9.648  0.3695  2.7815  0.2979
  109OSM    C9F11291   6.799   5.057   9.620  0.7005  0.3572  0.4223
  109OSM    H9F11292   6.822   5.132   9.697  0.2718  0.3915  0.5187
  109OSM   C10F11293   6.740   5.101   9.507  0.0524 -0.4347 -0.6787
  109OSM   H10F11294   6.695   5.201   9.508  1.3789  0.1821 -0.5926
  109OSM   C11F11295   6.721   5.020   9.383  0.4798 -0.2221 -0.4598
  109OSM   H11F11296   6.616   4.983   9.394  0.2669  0.2610 -0.8073
  109OSM   H11G11297   6.789   4.934   9.372  1.4092  0.5964 -1.2740
  109OSM   C12F11298   6.723   5.084   9.246  0.3154  0.7039  0.1470
  109OSM   H12F11299   6.822   5.130   9.222  0.4915  0.7610  0.9933
  109OSM   H12G11300   6.647   5.163   9.225 -1.1047 -1.0419 -1.5119
  109OSM   C13F11301   6.682   4.978   9.137 -0.7602  0.1163 -0.2071
  109OSM   H13F11302   6.595   4.930   9.188  0.9700 -1.8876  0.9220
  109OSM   H13G11303   6.756   4.900   9.111  0.9481  2.0198 -1.2066
  109OSM   C14F11304   6.644   5.040   9.005 -0.3077 -0.4034 -0.6114
  109OSM   H14F11305   6.610   5.145   9.022 -0.4033 -0.8930  2.6091
  109OSM   H14G11306   6.558   4.993   8.952 -0.6909 -0.3816 -0.0199
  109OSM   C15F11307   6.752   5.043   8.903 -0.1868  0.6251  0.5537
  109OSM   H15F11308   6.722   5.096   8.810 -0.7244 -1.5766 -0.5536
  109OSM   H15G11309   6.758   4.939   8.864 -4.1725  0.2793  0.6572
  109OSM   C16F11310   6.885   5.100   8.945 -0.9414  0.3029  0.7584
  109OSM   H16F11311   6.931   5.028   9.015  1.0470 -0.7102 -1.5224
  109OSM   H16G11312   6.882   5.203   8.987  0.5553  0.6338  0.0860
  109OSM   C17F11313   6.995   5.107   8.834 -0.1503 -0.0884  0.0674
  109OSM   H17F11314   7.040   5.006   8.820  0.8851  0.5215 -1.1212
  109OSM   H17G11315   7.080   5.164   8.875  1.1551 -1.0325 -1.2515
  109OSM   C18F11316   6.955   5.185   8.708  0.2165 -0.2149 -0.1919
  109OSM   H18F11317   6.924   5.287   8.739 -0.0681 -0.0288 -1.0634
  109OSM   H18G11318   6.876   5.130   8.653 -0.2747 -0.7275  1.0119
  109OSM   H18H11319   7.046   5.191   8.644 -1.1719 -0.3995 -2.2111
  110OSM      N11320   1.487   4.165  10.846 -0.6278 -0.3566  1.5754
  110OSM    C1511321   1.444   4.310  10.845  0.0770  0.4742  0.1096
  110OSM   H15A11322   1.481   4.362  10.933 -1.0955 -0.1810  1.0063
  110OSM   H15B11323   1.338   4.311  10.829  0.0886  1.0898  0.0933
  110OSM   H15C11324   1.493   4.357  10.762  1.6727 -0.4332  0.5127
  110OSM    C1411325   1.635   4.156  10.848 -0.5193 -0.2595 -0.1720
  110OSM   H14A11326   1.682   4.190  10.757  0.9639 -1.2660  0.2131
  110OSM   H14B11327   1.661   4.054  10.870 -1.2864 -0.6427 -0.9675
  110OSM   H14C11328   1.676   4.211  10.931 -0.2136 -0.8548  0.0716
  110OSM    C1311329   1.440   4.090  10.965  1.0086  0.3726  1.0748
  110OSM   H13A11330   1.492   4.129  11.051  3.8583  1.2664 -0.9597
  110OSM   H13B11331   1.482   3.991  10.952  2.0244  0.8347  0.7555
  110OSM   H13C11332   1.332   4.085  10.962  1.1026 -3.8931  1.0906
  110OSM    C1211333   1.432   4.103  10.713  0.1452  0.5837 -0.3647
  110OSM   H12A11334   1.453   3.997  10.725 -2.0223 -0.0343 -1.7534
  110OSM   H12B11335   1.467   4.150  10.623  0.3284 -0.1452 -0.6797
  110OSM    C1111336   1.279   4.111  10.687 -1.2702  0.2823 -0.6437
  110OSM   H11A11337   1.247   4.098  10.582 -1.2217  1.0351 -0.7543
  110OSM   H11B11338   1.244   4.215  10.705 -0.0819  0.9806 -2.2405
  110OSM      P11339   1.222   3.876  10.777 -0.5684  0.3495  0.4643
  110OSM    O1311340   1.366   3.845  10.815  0.0536  0.5495  0.4185
  110OSM    O1411341   1.114   3.806  10.844  0.6591  0.3408 -0.2802
  110OSM    O1111342   1.206   3.841  10.621 -0.5158 -0.3470  0.5193
  110OSM    O1211343   1.194   4.034  10.777 -0.3492  0.2356  0.0236
  110OSM    C1S11344   1.080   3.866  10.550 -0.1608 -0.0857 -0.5050
  110OSM    H1S11345   1.041   3.969  10.559  0.4770  0.1752 -0.6593
  110OSM    H1T11346   0.997   3.804  10.589 -0.7180  1.8986  1.5176
  110OSM     NF11347   0.982   3.877  10.326  0.9829 -0.2540  0.1823
  110OSM    HNF11348   0.917   3.802  10.321 -0.5494  1.1068 -1.0263
  110OSM    C2S11349   1.097   3.838  10.398 -0.1283  0.5615  0.5534
  110OSM    H2S11350   1.182   3.903  10.367  1.7664 -1.6922  0.8396
  110OSM    C3S11351   1.133   3.684  10.385 -0.0936 -0.1372  0.2968
  110OSM    H3S11352   1.047   3.621  10.413 -1.1290  0.5316 -1.2641
  110OSM     O311353   1.244   3.645  10.470  0.4488  0.7894 -0.4140
  110OSM    HO311354   1.248   3.722  10.527  0.9331  0.6510 -0.2585
  110OSM    C4S11355   1.150   3.658  10.237  0.8374 -0.7039 -0.1713
  110OSM    H4S11356   1.056   3.657  10.181  0.5113 -0.8107  0.3695
  110OSM    C5S11357   1.271   3.644  10.176 -0.3419 -0.4684  0.7400
  110OSM    H5S11358   1.357   3.658  10.243  1.3290 -2.0644 -1.0235
  110OSM    C6S11359   1.299   3.631  10.025  0.0186  0.1446 -0.2892
  110OSM    H6S11360   1.341   3.531  10.003 -0.8727 -0.1376 -0.7310
  110OSM    H6T11361   1.368   3.713   9.995 -3.3963  2.5870 -1.7824
  110OSM    C7S11362   1.181   3.635   9.920  0.2915  0.3704  0.3494
  110OSM    H7S11363   1.141   3.738   9.924 -2.0338 -0.2996 -3.1370
  110OSM    H7T11364   1.106   3.562   9.957  1.3182 -1.1173 -0.4179
  110OSM    C8S11365   1.231   3.601   9.779 -0.0005  0.1973 -0.2946
  110OSM    H8S11366   1.279   3.502   9.795  1.8871  1.0815 -0.3808
  110OSM    H8T11367   1.322   3.661   9.757 -0.2370  0.4110 -0.7027
  110OSM    C9S11368   1.124   3.591   9.673  0.0254  0.2431 -0.2719
  110OSM    H9S11369   1.071   3.688   9.661  1.2666  1.3319  2.6132
  110OSM    H9T11370   1.047   3.530   9.726  0.1493  0.4719  0.1778
  110OSM   C10S11371   1.163   3.535   9.539  0.0056  0.0788 -0.4045
  110OSM   H10S11372   1.082   3.535   9.463 -0.9148  0.3092  0.5579
  110OSM   H10T11373   1.197   3.432   9.562  2.6044  1.4680  2.2896
  110OSM   C11S11374   1.281   3.609   9.469  0.2524  0.1648 -0.0981
  110OSM   H11S11375   1.381   3.592   9.516  0.5649 -0.4314 -0.9745
  110OSM   H11T11376   1.272   3.719   9.476 -1.6233  0.0174  0.1161
  110OSM   C12S11377   1.300   3.562   9.326  0.1566  0.1078 -0.7604
  110OSM   H12S11378   1.393   3.608   9.287  0.0972  0.9586  0.0809
  110OSM   H12T11379   1.207   3.595   9.276 -1.1484 -1.0187  0.8380
  110OSM   C13S11380   1.311   3.409   9.288 -0.1940 -0.0832  0.1648
  110OSM   H13S11381   1.214   3.358   9.304  0.7338 -1.3419  1.8993
  110OSM   H13T11382   1.401   3.382   9.347  0.8174  2.8796  0.0935
  110OSM   C14S11383   1.357   3.395   9.146 -0.1360 -0.0193 -0.8164
  110OSM   H14S11384   1.443   3.464   9.131 -0.0696 -0.0828 -0.7283
  110OSM   H14T11385   1.282   3.430   9.072  2.3065  0.3560 -3.2095
  110OSM   C15S11386   1.416   3.260   9.105 -0.0030  0.6965  0.0471
  110OSM   H15S11387   1.336   3.186   9.127  2.2072 -1.3418  1.4085
  110OSM   H15T11388   1.503   3.246   9.172  1.3251 -1.4737 -2.0502
  110OSM   C16S11389   1.465   3.264   8.957 -0.5861 -0.5029 -0.5988
  110OSM   H16S11390   1.538   3.344   8.935 -0.4911 -0.5330 -0.3999
  110OSM   H16T11391   1.372   3.280   8.899  0.8154  1.5151 -2.3303
  110OSM   C17S11392   1.538   3.133   8.916  0.1919 -0.6518 -0.0088
  110OSM   H17S11393   1.466   3.050   8.934 -0.8846  0.3779  0.4815
  110OSM   H17T11394   1.633   3.112   8.970  0.0529 -0.3634  0.3517
  110OSM   C18S11395   1.565   3.129   8.765  0.1706 -0.3263  0.4033
  110OSM   H18S11396   1.482   3.123   8.692  0.6240 -2.9833  0.0618
  110OSM   H18T11397   1.631   3.043   8.743 -0.1766 -0.8014  1.2111
  110OSM   H18U11398   1.623   3.219   8.736 -0.1556 -0.3209 -0.2413
  110OSM    C1F11399   0.947   4.002  10.299  0.2459  0.0339  0.7371
  110OSM     OF11400   1.018   4.098  10.325  0.1470 -0.6144 -0.0990
  110OSM    C2F11401   0.801   4.016  10.254  0.1268  0.7299 -0.0296
  110OSM    H2F11402   0.738   4.074  10.325  0.5619  0.4543  0.5874
  110OSM    H2G11403   0.756   3.915  10.254 -0.6519  1.0641  0.8657
  110OSM    C3F11404   0.784   4.081  10.113 -0.0354 -0.0985 -0.2929
  110OSM    H3F11405   0.845   4.175  10.112 -1.0504  0.5685 -0.5759
  110OSM    H3G11406   0.679   4.117  10.118  0.0113 -0.0520  0.4012
  110OSM    C4F11407   0.816   3.994   9.991  0.4143  0.6544  0.2611
  110OSM    H4F11408   0.734   3.920   9.979  0.7164  0.1143  1.4489
  110OSM    H4G11409   0.908   3.935  10.012 -0.1002 -0.4707 -0.5774
  110OSM    C5F11410   0.817   4.080   9.858  0.0024 -0.5886 -0.5653
  110OSM    H5F11411   0.891   4.161   9.873  1.3056 -2.1234  1.5174
  110OSM    H5G11412   0.716   4.127   9.855 -0.0341 -0.6479 -0.2165
  110OSM    C6F11413   0.849   4.006   9.724  0.4233 -0.3675 -0.2165
  110OSM    H6F11414   0.780   3.921   9.703 -1.5230  1.5542 -1.9571
  110OSM    H6G11415   0.952   3.967   9.735 -0.1793 -1.0563  3.4668
  110OSM    C7F11416   0.852   4.097   9.607 -0.4394 -0.1618 -0.6386
  110OSM    H7F11417   0.937   4.167   9.618  2.0510 -2.9921 -1.4198
  110OSM    H7G11418   0.763   4.163   9.599  0.1890  0.6348 -1.1583
  110OSM    C8F11419   0.877   4.030   9.475 -0.0121  0.2972  0.1549
  110OSM    H8F11420   0.894   4.116   9.407 -1.0813  0.3029 -0.1110
  110OSM    H8G11421   0.785   3.975   9.446 -0.3397  0.1514  1.4188
  110OSM    C9F11422   0.986   3.930   9.456  0.5118 -0.1025  0.1188
  110OSM    H9F11423   1.054   3.918   9.542  0.3008  0.2614  0.3403
  110OSM   C10F11424   1.027   3.875   9.342 -0.1814  0.6844 -0.2373
  110OSM   H10F11425   1.105   3.797   9.343 -2.3716 -1.6043  2.7613
  110OSM   C11F11426   0.958   3.894   9.212  0.5804 -0.7217  0.2307
  110OSM   H11F11427   0.936   4.002   9.196  1.5412 -0.4989  0.3768
  110OSM   H11G11428   0.863   3.839   9.196  0.4616 -0.0528 -1.4498
  110OSM   C12F11429   1.059   3.850   9.097 -0.5758  0.3094 -0.3276
  110OSM   H12F11430   1.012   3.853   8.997  0.0737  1.5312 -0.6094
  110OSM   H12G11431   1.086   3.743   9.110  1.6159  0.9709  0.8776
  110OSM   C13F11432   1.189   3.938   9.087  0.3895  0.2649  0.0343
  110OSM   H13F11433   1.218   3.964   9.191 -1.8528  1.2242  0.4346
  110OSM   H13G11434   1.172   4.032   9.031  0.7235 -0.6464 -1.6357
  110OSM   C14F11435   1.304   3.854   9.022  0.4026 -0.3164  0.0100
  110OSM   H14F11436   1.302   3.765   9.088  0.7490 -0.5478 -0.2886
  110OSM   H14G11437   1.400   3.906   9.044  0.5367  0.0078 -1.3241
  110OSM   C15F11438   1.297   3.823   8.872 -0.4993 -0.4468  0.4736
  110OSM   H15F11439   1.279   3.917   8.816  0.4705 -0.9023 -0.6556
  110OSM   H15G11440   1.205   3.764   8.849  0.1998 -1.3743 -0.0049
  110OSM   C16F11441   1.417   3.755   8.803  0.3766  0.9656  0.7436
  110OSM   H16F11442   1.500   3.792   8.867  0.2902  0.3006  1.2592
  110OSM   H16G11443   1.427   3.787   8.697 -0.1979  0.6963  0.6048
  110OSM   C17F11444   1.404   3.601   8.791  0.4974 -0.3390 -0.1053
  110OSM   H17F11445   1.300   3.584   8.758  1.5165 -1.6848 -2.7600
  110OSM   H17G11446   1.417   3.553   8.891  2.8033  0.3503 -0.0323
  110OSM   C18F11447   1.500   3.528   8.696  0.6846  0.3085 -0.0698
  110OSM   H18F11448   1.500   3.564   8.591 -0.3059 -0.8544 -0.4905
  110OSM   H18G11449   1.481   3.418   8.688  0.5342  0.3321 -0.0385
  110OSM   H18H11450   1.604   3.541   8.731  0.6533 -4.1090  2.1037
  111OSM      N11451   1.256   6.730  10.968 -0.4335 -0.5321  0.3440
  111OSM    C1511452   1.213   6.590  10.946  0.3885 -0.5683 -0.5363
  111OSM   H15A11453   1.179   6.543  11.037 -1.6480  2.2355  0.2254
  111OSM   H15B11454   1.303   6.536  10.921 -0.3609 -0.9177 -2.6307
  111OSM   H15C11455   1.137   6.595  10.869  2.5911 -2.6937 -2.9165
  111OSM    C1411456   1.144   6.795  11.029  0.5658 -0.0132 -0.4138
  111OSM   H14A11457   1.069   6.814  10.953  1.3877  0.4376 -1.1334
  111OSM   H14B11458   1.177   6.883  11.082 -0.2465  0.3037 -0.4214
  111OSM   H14C11459   1.092   6.732  11.099  1.8607 -1.3600 -0.6241
  111OSM    C1311460   1.368   6.726  11.071 -0.4939 -0.1360  0.0949
  111OSM   H13A11461   1.322   6.690  11.162  0.4718 -1.3857  0.0945
  111OSM   H13B11462   1.409   6.825  11.085 -0.7320  0.1009 -0.8015
  111OSM   H13C11463   1.450   6.662  11.043  0.4741  0.6497  1.1228
  111OSM    C1211464   1.304   6.801  10.846  0.6201  0.6583 -0.1483
  111OSM   H12A11465   1.219   6.783  10.780 -0.0569  0.1615  0.8438
  111OSM   H12B11466   1.391   6.756  10.802  1.1973  1.9050 -0.3005
  111OSM    C1111467   1.332   6.950  10.857 -0.4913  0.2139  1.1613
  111OSM   H11A11468   1.263   7.011  10.918 -0.2834  2.2820 -0.6101
  111OSM   H11B11469   1.325   6.996  10.756 -1.6575  0.4029  1.3221
  111OSM      P11470   1.592   6.947  10.818 -0.4081  0.2218  0.2146
  111OSM    O1311471   1.713   6.960  10.905 -0.1975  0.5578  0.0400
  111OSM    O1411472   1.582   6.816  10.744 -0.5013  0.2918  0.6733
  111OSM    O1111473   1.580   7.067  10.718  0.2003 -0.2429 -0.0248
  111OSM    O1211474   1.464   6.964  10.910 -0.5050  0.7933 -1.2487
  111OSM    C1S11475   1.598   7.033  10.575  0.2055 -0.0045 -0.8429
  111OSM    H1S11476   1.493   7.026  10.540 -0.0152  0.4474 -0.2761
  111OSM    H1T11477   1.655   6.939  10.555  0.5818 -0.7095  3.1657
  111OSM     NF11478   1.668   7.101  10.344 -0.3473  0.2129 -0.3475
  111OSM    HNF11479   1.753   7.081  10.295 -0.5742 -1.5182 -0.0772
  111OSM    C2S11480   1.659   7.141  10.483  0.1720 -0.1787  0.2527
  111OSM    H2S11481   1.588   7.227  10.486 -0.6459 -0.8588  0.6838
  111OSM    C3S11482   1.787   7.198  10.542 -0.5015  0.1464  1.1535
  111OSM    H3S11483   1.859   7.115  10.563 -0.0890  0.2006 -0.0096
  111OSM     O311484   1.774   7.264  10.665 -0.3173  0.3968 -0.0624
  111OSM    HO311485   1.688   7.231  10.693  0.6941 -2.2636  0.0688
  111OSM    C4S11486   1.847   7.296  10.441  0.1306  0.0986 -0.1607
  111OSM    H4S11487   1.931   7.252  10.385 -0.6784  0.4617 -1.7070
  111OSM    C5S11488   1.819   7.426  10.414  0.0283 -0.1441  0.0905
  111OSM    H5S11489   1.738   7.483  10.463 -2.3762 -0.6956 -3.0897
  111OSM    C6S11490   1.901   7.512  10.323 -1.0686 -0.0828  0.3475
  111OSM    H6S11491   2.005   7.474  10.315 -0.9100  0.6309 -1.3809
  111OSM    H6T11492   1.910   7.614  10.367 -1.6609 -0.2158  0.7715
  111OSM    C7S11493   1.821   7.524  10.189 -0.0930 -0.1720 -0.1634
  111OSM    H7S11494   1.852   7.612  10.128 -0.9654 -0.3820 -0.9131
  111OSM    H7T11495   1.715   7.549  10.208  0.4791  2.1215  0.1693
  111OSM    C8S11496   1.824   7.400  10.098 -1.2947 -0.2693 -0.3808
  111OSM    H8S11497   1.763   7.316  10.137  1.4877 -2.0380  0.3615
  111OSM    H8T11498   1.928   7.361  10.106 -1.1354  0.2147 -0.0543
  111OSM    C9S11499   1.809   7.428   9.953  0.2984  0.4255  0.1519
  111OSM    H9S11500   1.832   7.336   9.895  1.1996  0.4119  0.5177
  111OSM    H9T11501   1.875   7.510   9.919 -0.2390  1.4424  1.5216
  111OSM   C10S11502   1.671   7.472   9.910  0.2507 -0.4906  0.2232
  111OSM   H10S11503   1.630   7.553   9.974  1.0431 -0.0932  0.2286
  111OSM   H10T11504   1.598   7.388   9.916 -2.3232  1.7052  0.5929
  111OSM   C11S11505   1.672   7.518   9.760 -0.0396 -0.1120 -0.4161
  111OSM   H11S11506   1.754   7.590   9.742  0.4103 -0.1431  1.3583
  111OSM   H11T11507   1.577   7.570   9.738 -0.8640 -0.1274  2.7979
  111OSM   C12S11508   1.678   7.402   9.655 -0.1114  0.0895 -0.3641
  111OSM   H12S11509   1.593   7.332   9.662  0.9008 -1.0314  1.0878
  111OSM   H12T11510   1.766   7.338   9.678 -0.3195 -0.2375 -0.4760
  111OSM   C13S11511   1.683   7.448   9.510  1.0805  0.5217  0.0282
  111OSM   H13S11512   1.759   7.528   9.499  1.6131  0.2043  1.3074
  111OSM   H13T11513   1.585   7.489   9.479  1.1676  0.9118  0.2695
  111OSM   C14S11514   1.717   7.336   9.407 -0.0020 -0.1838 -0.3202
  111OSM   H14S11515   1.651   7.248   9.423 -0.7113  0.3376 -0.3084
  111OSM   H14T11516   1.822   7.302   9.412 -0.2024 -0.6135  0.9904
  111OSM   C15S11517   1.702   7.376   9.263  0.1134  0.7984  0.5905
  111OSM   H15S11518   1.781   7.453   9.252  2.7542 -1.7055  1.6767
  111OSM   H15T11519   1.603   7.426   9.252 -1.1159 -1.9306 -1.4176
  111OSM   C16S11520   1.712   7.252   9.179 -0.3698 -0.3132  0.3639
  111OSM   H16S11521   1.617   7.197   9.195  0.6340 -1.6249  2.0452
  111OSM   H16T11522   1.796   7.186   9.211 -1.8251 -1.3801  2.0903
  111OSM   C17S11523   1.739   7.287   9.037 -0.3401  1.1278  0.6793
  111OSM   H17S11524   1.839   7.333   9.042  0.4705 -0.7351  2.3969
  111OSM   H17T11525   1.666   7.368   9.016  0.6672  1.3436 -2.1310
  111OSM   C18S11526   1.718   7.169   8.946  0.1400  0.6954 -0.1888
  111OSM   H18S11527   1.806   7.102   8.943 -1.0819 -0.9552  0.2812
  111OSM   H18T11528   1.684   7.205   8.846 -3.1234  1.7978  1.2264
  111OSM   H18U11529   1.629   7.115   8.985 -0.7185  0.6283 -2.1498
  111OSM    C1F11530   1.550   7.096  10.278 -0.7505 -0.0310  0.3235
  111OSM     OF11531   1.447   7.142  10.330  0.1670 -0.6876  0.3234
  111OSM    C2F11532   1.551   7.042  10.138 -0.2227 -0.5298  1.0885
  111OSM    H2F11533   1.540   6.932  10.146 -1.9372 -0.3495  1.3211
  111OSM    H2G11534   1.642   7.082  10.088 -2.1314  3.0853  0.3872
  111OSM    C3F11535   1.427   7.086  10.050  0.3196 -0.0458 -0.1411
  111OSM    H3F11536   1.438   7.194  10.025  1.9785 -0.1638  0.0446
  111OSM    H3G11537   1.336   7.055  10.106  0.8852  2.1262  2.0748
  111OSM    C4F11538   1.439   7.022   9.905 -0.0445  0.1377 -0.3956
  111OSM    H4F11539   1.337   7.048   9.868 -1.5671 -2.4269  1.7753
  111OSM    H4G11540   1.468   6.916   9.916 -0.5017 -0.0899 -1.4014
  111OSM    C5F11541   1.539   7.079   9.813 -0.1043  0.2173  0.1448
  111OSM    H5F11542   1.634   7.025   9.837 -0.3189 -0.6510 -0.9275
  111OSM    H5G11543   1.555   7.186   9.836  1.6743  0.6048 -2.6891
  111OSM    C6F11544   1.518   7.051   9.665  0.6007 -0.1757  0.2665
  111OSM    H6F11545   1.503   6.942   9.652  3.6063 -0.6207  0.1624
  111OSM    H6G11546   1.609   7.083   9.610  0.0601 -2.1813 -1.8606
  111OSM    C7F11547   1.389   7.121   9.606  0.1648 -0.6465  0.1359
  111OSM    H7F11548   1.398   7.232   9.613 -0.0970 -0.5002 -1.7219
  111OSM    H7G11549   1.303   7.107   9.675  0.2258  1.8978  0.7965
  111OSM    C8F11550   1.366   7.077   9.463 -0.3008 -0.1927  0.2204
  111OSM    H8F11551   1.459   7.074   9.403 -0.5735  0.9837 -0.2632
  111OSM    H8G11552   1.302   7.151   9.410 -1.4644 -1.5757 -0.3523
  111OSM    C9F11553   1.301   6.944   9.455 -0.5598 -0.2987  0.4512
  111OSM    H9F11554   1.286   6.887   9.548  0.8042 -2.0047 -0.3474
  111OSM   C10F11555   1.268   6.878   9.343 -0.1445  0.0077  0.4678
  111OSM   H10F11556   1.205   6.787   9.347  1.3294 -1.1067 -1.0778
  111OSM   C11F11557   1.286   6.918   9.199  0.4044 -0.7824  0.1356
  111OSM   H11F11558   1.347   7.011   9.194  0.0523 -0.5397  0.2884
  111OSM   H11G11559   1.184   6.933   9.158  0.9267 -0.4191 -1.0321
  111OSM   C12F11560   1.353   6.806   9.118  0.2040 -0.9159 -0.8482
  111OSM   H12F11561   1.277   6.726   9.107  0.0959 -0.5051 -3.4666
  111OSM   H12G11562   1.435   6.753   9.170 -2.4187 -2.6277  1.6364
  111OSM   C13F11563   1.400   6.838   8.985 -0.6349 -0.2442  0.8078
  111OSM   H13F11564   1.416   6.742   8.930 -3.3058  0.2082 -0.8563
  111OSM   H13G11565   1.496   6.894   8.979 -1.6619  1.2914 -2.8097
  111OSM   C14F11566   1.284   6.902   8.907 -0.1037 -0.3225  0.0835
  111OSM   H14F11567   1.257   7.000   8.950  3.4434 -0.2623  2.3281
  111OSM   H14G11568   1.195   6.836   8.904 -0.8896  0.7692 -1.2587
  111OSM   C15F11569   1.330   6.929   8.763  0.1365  0.0765 -0.3401
  111OSM   H15F11570   1.394   6.848   8.724  0.6875  0.6232 -0.5766
  111OSM   H15G11571   1.401   7.013   8.779 -2.5728  2.3897 -0.0076
  111OSM   C16F11572   1.217   6.973   8.676  0.8621  0.8639 -0.2231
  111OSM   H16F11573   1.150   7.029   8.745  0.5521 -3.8703  3.5698
  111OSM   H16G11574   1.166   6.882   8.637 -1.4925  1.9958  0.1023
  111OSM   C17F11575   1.275   7.045   8.552 -0.1063  0.5332 -0.3430
  111OSM   H17F11576   1.318   7.142   8.584  1.3400 -1.0940  2.8643
  111OSM   H17G11577   1.191   7.063   8.482 -0.6859 -2.5922 -0.5348
  111OSM   C18F11578   1.385   6.963   8.475 -0.5912  0.9494 -0.3036
  111OSM   H18F11579   1.404   6.982   8.367 -0.3755  1.4869 -0.1715
  111OSM   H18G11580   1.360   6.857   8.499 -1.4920  0.8100 -1.8023
  111OSM   H18H11581   1.474   6.992   8.534  0.1010  1.3310 -1.5112
  112OSM      N11582   2.847   4.337  10.940  0.6578  0.1366 -0.3790
  112OSM    C1511583   2.848   4.406  11.077  0.0135 -0.3897 -0.2043
  112OSM   H15A11584   2.789   4.495  11.061  1.0035  0.2887 -0.1400
  112OSM   H15B11585   2.946   4.429  11.115  0.1415  1.4257 -1.5782
  112OSM   H15C11586   2.790   4.342  11.141  0.0296  0.9223  1.1428
  112OSM    C1411587   2.930   4.422  10.845 -0.3988  1.0629 -0.2974
  112OSM   H14A11588   2.897   4.525  10.842 -1.0645  0.8572 -0.1540
  112OSM   H14B11589   2.923   4.381  10.745 -0.8549 -0.0756  0.1889
  112OSM   H14C11590   3.031   4.400  10.875 -0.8061 -1.2813 -0.5409
  112OSM    C1311591   2.920   4.208  10.954 -0.2211  0.2066  0.0129
  112OSM   H13A11592   2.948   4.176  10.855 -3.3848 -0.6636 -0.6475
  112OSM   H13B11593   2.850   4.136  10.991 -0.8405  0.0944 -1.3400
  112OSM   H13C11594   3.007   4.221  11.016 -0.4399 -2.9109  1.0349
  112OSM    C1211595   2.707   4.313  10.886 -0.0144  1.1018  0.3644
  112OSM   H12A11596   2.651   4.245  10.948  0.5767 -0.3108 -0.6191
  112OSM   H12B11597   2.714   4.261  10.792 -2.7882  1.2453  0.0470
  112OSM    C1111598   2.626   4.449  10.867  0.0526  0.6734  0.1827
  112OSM   H11A11599   2.534   4.425  10.809  0.8956 -1.5255 -0.3180
  112OSM   H11B11600   2.687   4.524  10.811 -1.5280  1.1810 -0.9126
  112OSM      P11601   2.476   4.598  11.016 -0.0243 -0.0024 -0.3904
  112OSM    O1311602   2.368   4.538  11.102 -0.3637  0.7766 -0.2623
  112OSM    O1411603   2.539   4.727  11.070  0.1590  0.9219 -0.3165
  112OSM    O1111604   2.421   4.617  10.873 -0.1175  0.9151 -0.1023
  112OSM    O1211605   2.595   4.493  10.996 -0.1819 -0.0466  1.2986
  112OSM    C1S11606   2.470   4.706  10.781 -0.1703 -0.1566 -0.4864
  112OSM    H1S11607   2.576   4.680  10.761  0.9470  3.3816  0.3765
  112OSM    H1T11608   2.470   4.810  10.821  0.9289 -1.2841  2.5622
  112OSM     NF11609   2.444   4.784  10.538  0.0211 -0.2662  0.1916
  112OSM    HNF11610   2.415   4.877  10.517  1.4195  0.2785  0.6131
  112OSM    C2S11611   2.387   4.709  10.651  0.7669 -0.0211  0.3943
  112OSM    H2S11612   2.364   4.603  10.624 -0.8341 -0.3542  2.8587
  112OSM    C3S11613   2.245   4.761  10.688 -0.2704 -0.2885 -0.1847
  112OSM    H3S11614   2.247   4.872  10.690 -0.3581 -0.3085  1.0006
  112OSM     O311615   2.188   4.705  10.802 -0.3805 -0.2104 -0.2397
  112OSM    HO311616   2.254   4.647  10.841 -1.1850 -0.5859  0.5598
  112OSM    C4S11617   2.147   4.734  10.579  0.3811  0.5758 -0.2175
  112OSM    H4S11618   2.109   4.820  10.522  2.0745 -0.5587 -3.1537
  112OSM    C5S11619   2.107   4.612  10.542 -0.5421 -0.0824  0.2311
  112OSM    H5S11620   2.142   4.521  10.592  1.0890  0.2436 -0.2990
  112OSM    C6S11621   2.001   4.594  10.434 -0.0082  0.5093 -0.0096
  112OSM    H6S11622   1.938   4.684  10.422 -0.4111 -0.0754 -2.6282
  112OSM    H6T11623   1.939   4.510  10.474  0.5006  0.1140 -0.0397
  112OSM    C7S11624   2.054   4.538  10.300 -0.2180  0.2860  0.4119
  112OSM    H7S11625   2.102   4.441  10.324 -2.3716 -0.8211  0.3615
  112OSM    H7T11626   2.133   4.601  10.254  0.5161 -1.2114 -0.4203
  112OSM    C8S11627   1.943   4.539  10.195  0.3423 -0.2487 -0.1608
  112OSM    H8S11628   1.925   4.646  10.168 -2.4999 -0.4268  0.7652
  112OSM    H8T11629   1.846   4.500  10.235 -1.0976  0.3541 -2.9647
  112OSM    C9S11630   1.965   4.470  10.066 -0.9563 -0.9946  0.3872
  112OSM    H9S11631   1.954   4.360  10.080 -1.4554 -0.9570  0.2961
  112OSM    H9T11632   2.067   4.484  10.022 -0.7667  0.1988  1.2018
  112OSM   C10S11633   1.867   4.508   9.955  0.4594  1.0561  0.5927
  112OSM   H10S11634   1.770   4.526  10.007 -0.2932 -1.7867  0.2708
  112OSM   H10T11635   1.855   4.428   9.879  0.0169  1.0697  0.6481
  112OSM   C11S11636   1.898   4.642   9.895 -0.6722  0.2955  0.2139
  112OSM   H11S11637   1.960   4.705   9.962 -0.3938  0.2268  0.0202
  112OSM   H11T11638   1.804   4.691   9.861  0.1728  1.0629 -1.0632
  112OSM   C12S11639   1.986   4.637   9.764  0.1661 -0.4906 -0.1757
  112OSM   H12S11640   2.062   4.557   9.783  0.3764 -0.4210 -0.7254
  112OSM   H12T11641   2.022   4.741   9.758  1.0332 -0.7860 -0.2077
  112OSM   C13S11642   1.895   4.605   9.642 -0.2410 -0.8296 -0.2643
  112OSM   H13S11643   1.798   4.660   9.646 -0.3619 -1.0422 -0.2304
  112OSM   H13T11644   1.853   4.503   9.657  2.1804 -1.7158  0.6195
  112OSM   C14S11645   1.986   4.613   9.509 -0.9704 -0.1250  0.7035
  112OSM   H14S11646   2.069   4.543   9.529  2.7997  4.1191  0.7267
  112OSM   H14T11647   2.017   4.717   9.485 -0.3772 -0.4174  0.2292
  112OSM   C15S11648   1.917   4.556   9.386  0.2639  0.2188 -0.4886
  112OSM   H15S11649   1.840   4.631   9.359 -0.9640 -0.6342  0.6039
  112OSM   H15T11650   1.864   4.464   9.417 -1.7998  1.4138 -0.3872
  112OSM   C16S11651   2.010   4.513   9.272 -0.1856 -0.6109  0.5190
  112OSM   H16S11652   2.074   4.430   9.308 -2.3153 -2.7687 -0.5552
  112OSM   H16T11653   2.089   4.588   9.252 -0.5836  0.6012  3.2953
  112OSM   C17S11654   1.940   4.468   9.148 -0.2328  0.9732 -0.5565
  112OSM   H17S11655   1.858   4.537   9.117 -1.7563 -0.2237  0.7096
  112OSM   H17T11656   1.890   4.380   9.195 -1.0472  3.2238  3.0264
  112OSM   C18S11657   2.037   4.422   9.039 -0.0171 -0.2127  0.4630
  112OSM   H18S11658   1.989   4.383   8.947  1.5938  0.4605 -0.6826
  112OSM   H18T11659   2.118   4.350   9.067  0.6096  1.3538  2.8290
  112OSM   H18U11660   2.085   4.518   9.012 -1.4641  0.1500 -0.9035
  112OSM    C1F11661   2.565   4.742  10.486 -0.5799 -0.2716 -0.2480
  112OSM     OF11662   2.611   4.640  10.538  0.4295  0.1789  0.7650
  112OSM    C2F11663   2.630   4.825  10.380  0.7498  0.8886  0.0805
  112OSM    H2F11664   2.714   4.771  10.332 -0.4353  0.7238 -1.8930
  112OSM    H2G11665   2.654   4.927  10.415  1.1832  0.8184 -0.0116
  112OSM    C3F11666   2.531   4.836  10.258  0.8099 -0.1009  0.0055
  112OSM    H3F11667   2.590   4.889  10.180 -1.7774  0.7419 -1.4328
  112OSM    H3G11668   2.444   4.899  10.285 -0.0385 -1.5918  0.7710
  112OSM    C4F11669   2.489   4.702  10.193  0.0571  0.6271  0.1822
  112OSM    H4F11670   2.445   4.643  10.276  0.2611 -1.0460 -0.8893
  112OSM    H4G11671   2.578   4.652  10.148 -0.4888 -0.1312 -0.0499
  112OSM    C5F11672   2.371   4.716  10.092  0.0753 -0.0753 -0.0244
  112OSM    H5F11673   2.278   4.736  10.150  0.9700 -1.5634  2.0246
  112OSM    H5G11674   2.359   4.612  10.055 -2.1788 -0.2267  1.0243
  112OSM    C6F11675   2.397   4.819   9.993 -0.0616  0.6026 -0.6615
  112OSM    H6F11676   2.496   4.804   9.944 -0.3886  0.1828 -1.2008
  112OSM    H6G11677   2.383   4.923  10.029  3.7272  0.1068  2.5996
  112OSM    C7F11678   2.301   4.797   9.872 -0.5089 -0.0807 -0.5900
  112OSM    H7F11679   2.195   4.797   9.907 -0.3709 -0.8924 -0.1537
  112OSM    H7G11680   2.319   4.698   9.824 -1.8144 -1.0822  0.9304
  112OSM    C8F11681   2.306   4.907   9.771  0.0147 -0.0967 -0.1131
  112OSM    H8F11682   2.405   4.939   9.732 -0.1304  0.2672 -0.1842
  112OSM    H8G11683   2.277   5.003   9.820  1.1455  1.3020 -2.0962
  112OSM    C9F11684   2.226   4.890   9.653 -0.1625 -0.0378 -0.1000
  112OSM    H9F11685   2.149   4.965   9.631  1.1387  0.8888 -1.6587
  112OSM   C10F11686   2.253   4.797   9.560 -0.3527  0.0466 -0.6617
  112OSM   H10F11687   2.193   4.783   9.469 -0.0378  0.6363 -0.9604
  112OSM   C11F11688   2.371   4.702   9.557 -0.6836  0.7693  0.9106
  112OSM   H11F11689   2.336   4.598   9.574 -2.4128  1.4140  1.3913
  112OSM   H11G11690   2.454   4.730   9.625 -0.0732 -0.1172  0.5526
  112OSM   C12F11691   2.458   4.695   9.423 -0.4442 -0.1507  0.5878
  112OSM   H12F11692   2.531   4.611   9.431 -2.9631 -2.2336  2.3811
  112OSM   H12G11693   2.515   4.787   9.399 -0.0752 -0.4507  0.2973
  112OSM   C13F11694   2.376   4.663   9.295 -0.3568 -0.3515  0.1442
  112OSM   H13F11695   2.306   4.747   9.271 -1.2216 -1.6599 -2.0374
  112OSM   H13G11696   2.324   4.571   9.330 -1.4929  0.1367 -0.2176
  112OSM   C14F11697   2.454   4.637   9.170 -0.1161  0.3905 -0.3843
  112OSM   H14F11698   2.513   4.544   9.179  0.1413  0.5909 -0.0090
  112OSM   H14G11699   2.525   4.716   9.137 -0.4451  0.3593 -1.1869
  112OSM   C15F11700   2.370   4.623   9.042  0.6095 -0.6146  0.8293
  112OSM   H15F11701   2.279   4.565   9.066 -0.4881  0.4102 -0.6877
  112OSM   H15G11702   2.435   4.563   8.976 -1.1097 -0.5996 -0.9419
  112OSM   C16F11703   2.341   4.755   8.958 -0.2143  0.0920 -0.3701
  112OSM   H16F11704   2.439   4.807   8.961  0.9764 -2.0637 -0.3489
  112OSM   H16G11705   2.265   4.813   9.015 -1.3135 -1.2890 -0.4034
  112OSM   C17F11706   2.291   4.737   8.818  0.3496  0.5033 -0.2676
  112OSM   H17F11707   2.190   4.689   8.814  0.1327  1.0347 -1.8427
  112OSM   H17G11708   2.368   4.672   8.770 -0.4219 -0.8063  0.2193
  112OSM   C18F11709   2.265   4.865   8.736  0.2915  0.5963  0.5357
  112OSM   H18F11710   2.350   4.936   8.730  1.9257 -1.2024  2.0643
  112OSM   H18G11711   2.181   4.910   8.794 -0.8618 -0.0448 -0.6061
  112OSM   H18H11712   2.217   4.851   8.637 -1.0681  1.0417  1.1191
  113OSM      N11713   6.191   1.159  11.067  0.5863  0.2341  0.2112
  113OSM    C1511714   6.048   1.180  11.104  0.9161  0.7742 -0.8157
  113OSM   H15A11715   5.989   1.103  11.055 -2.0206  1.4765  1.4459
  113OSM   H15B11716   6.013   1.274  11.063 -0.3742  0.2565 -0.9365
  113OSM   H15C11717   6.033   1.180  11.211  0.6797  1.8453 -0.8418
  113OSM    C1411718   6.272   1.276  11.113 -0.5782  0.4750  0.2641
  113OSM   H14A11719   6.236   1.367  11.067 -1.6668  0.8709  1.8261
  113OSM   H14B11720   6.374   1.265  11.081 -0.0148  2.4760  1.3557
  113OSM   H14C11721   6.274   1.297  11.219 -3.1672 -0.6686  0.5920
  113OSM    C1311722   6.249   1.037  11.138 -0.6550 -0.0462  0.5365
  113OSM   H13A11723   6.341   1.003  11.095 -0.7998 -0.6214  0.6818
  113OSM   H13B11724   6.178   0.956  11.135 -0.6346 -0.0792  0.8885
  113OSM   H13C11725   6.264   1.053  11.244  0.7459  1.8018  0.0995
  113OSM    C1211726   6.207   1.142  10.917 -0.3082 -0.5272  0.1422
  113OSM   H12A11727   6.145   1.063  10.877 -1.1960 -0.8852  2.1920
  113OSM   H12B11728   6.310   1.113  10.896 -0.2444  0.6066 -1.2066
  113OSM    C1111729   6.165   1.266  10.839  0.2702  0.8959 -0.6706
  113OSM   H11A11730   6.057   1.286  10.860 -0.0339 -0.7234 -0.5997
  113OSM   H11B11731   6.174   1.225  10.736  2.2651 -1.3576  0.3445
  113OSM      P11732   6.202   1.526  10.875 -0.1271 -0.0319 -0.3702
  113OSM    O1311733   6.191   1.556  11.018 -1.0123  0.0422  0.1008
  113OSM    O1411734   6.289   1.620  10.795  0.9650  0.0500  0.0615
  113OSM    O1111735   6.056   1.523  10.806 -0.3447  0.3815 -0.8312
  113OSM    O1211736   6.251   1.378  10.846  0.3424  0.4403 -0.6991
  113OSM    C1S11737   6.044   1.539  10.667  0.2821 -0.9399  0.7983
  113OSM    H1S11738   6.020   1.441  10.621  2.3419 -1.1108  0.0511
  113OSM    H1T11739   6.143   1.562  10.623  0.1831 -0.9908  0.5506
  113OSM     NF11740   5.966   1.685  10.491  0.4233 -0.4657  0.5526
  113OSM    HNF11741   6.030   1.760  10.476 -2.8306  2.1816 -0.6607
  113OSM    C2S11742   5.939   1.651  10.629  0.1314  0.5651 -0.4181
  113OSM    H2S11743   5.837   1.611  10.643 -0.8017  2.5670 -1.3194
  113OSM    C3S11744   5.943   1.766  10.730 -0.2411 -0.2676 -0.2145
  113OSM    H3S11745   6.048   1.802  10.729 -0.2078 -0.3577 -0.0648
  113OSM     O311746   5.917   1.720  10.864 -0.2888  0.4067  0.2899
  113OSM    HO311747   5.940   1.627  10.867 -1.2350  0.1868  1.3716
  113OSM    C4S11748   5.852   1.878  10.691 -0.1866 -0.2710  0.5860
  113OSM    H4S11749   5.743   1.863  10.695 -0.4729  1.7738  1.1955
  113OSM    C5S11750   5.895   2.005  10.653  0.1137  0.4428  0.9049
  113OSM    H5S11751   6.003   2.024  10.644  0.0096  0.6206 -0.0702
  113OSM    C6S11752   5.803   2.113  10.615  0.5246 -0.4213  0.8459
  113OSM    H6S11753   5.858   2.209  10.626 -1.9824  1.1806 -0.2030
  113OSM    H6T11754   5.717   2.111  10.685 -1.0342 -1.0493 -1.0594
  113OSM    C7S11755   5.736   2.109  10.475 -0.0104  0.5699 -0.1715
  113OSM    H7S11756   5.643   2.170  10.471 -0.5971 -0.2764  0.4496
  113OSM    H7T11757   5.690   2.009  10.458  1.3365  0.1736 -1.6164
  113OSM    C8S11758   5.846   2.125  10.360 -0.8444 -0.2513 -0.2840
  113OSM    H8S11759   5.925   2.048  10.366 -0.2994  0.4717  2.3295
  113OSM    H8T11760   5.881   2.230  10.356  0.5475 -0.7552 -2.1669
  113OSM    C9S11761   5.785   2.116  10.218 -0.6905 -0.6674  0.0753
  113OSM    H9S11762   5.719   2.203  10.196  1.6959  1.2736  0.3249
  113OSM    H9T11763   5.728   2.022  10.202 -2.9871  0.4534  1.4633
  113OSM   C10S11764   5.905   2.124  10.120  0.4526  0.3133  0.1374
  113OSM   H10S11765   5.952   2.024  10.120  1.3746  0.6403 -4.7527
  113OSM   H10T11766   5.975   2.204  10.152  0.7036  0.9690 -1.9458
  113OSM   C11S11767   5.847   2.157   9.981 -0.3152 -0.2776 -0.2874
  113OSM   H11S11768   5.777   2.243   9.988  0.4987  0.4143 -0.4093
  113OSM   H11T11769   5.786   2.065   9.967  1.3471 -1.5439  0.5998
  113OSM   C12S11770   5.951   2.181   9.876  0.0914 -0.0967 -0.8549
  113OSM   H12S11771   6.024   2.099   9.891  1.1819  0.9492 -0.3410
  113OSM   H12T11772   5.999   2.281   9.892 -1.6726  0.6699 -0.2094
  113OSM   C13S11773   5.906   2.157   9.729  0.1602  0.0447 -0.8227
  113OSM   H13S11774   5.815   2.219   9.718 -0.2231 -0.6324 -1.4426
  113OSM   H13T11775   5.887   2.049   9.713  0.9121 -0.2779  0.4114
  113OSM   C14S11776   5.999   2.208   9.620  0.0598 -0.2861  0.3329
  113OSM   H14S11777   6.091   2.147   9.636 -0.1650 -0.5489  0.6409
  113OSM   H14T11778   6.022   2.315   9.639 -1.3152 -0.1768  1.5140
  113OSM   C15S11779   5.954   2.177   9.475 -0.5417  0.5981 -0.0730
  113OSM   H15S11780   5.845   2.197   9.469 -0.4126  1.7278  1.0196
  113OSM   H15T11781   5.957   2.067   9.467 -0.5087  0.6010 -0.1029
  113OSM   C16S11782   6.030   2.241   9.360  0.1623  0.0089 -0.2015
  113OSM   H16S11783   6.137   2.212   9.349  0.3028  0.5667 -0.3170
  113OSM   H16T11784   6.038   2.348   9.386  0.3409 -0.2719  0.9153
  113OSM   C17S11785   5.968   2.206   9.222  0.6753  0.4950 -0.0170
  113OSM   H17S11786   5.863   2.238   9.210 -0.2392 -2.2543  0.2071
  113OSM   H17T11787   5.960   2.098   9.198 -0.9798  0.8247 -0.9855
  113OSM   C18S11788   6.034   2.273   9.109 -0.4645  0.2662  0.2854
  113OSM   H18S11789   6.039   2.384   9.113  0.9863  0.3426 -2.6124
  113OSM   H18T11790   5.994   2.247   9.009  1.3260  2.2656 -0.9860
  113OSM   H18U11791   6.140   2.244   9.096 -0.4333  0.4190  0.2016
  113OSM    C1F11792   5.924   1.612  10.388 -0.4253  1.2210 -0.0547
  113OSM     OF11793   5.876   1.501  10.401 -0.8378 -0.0283  0.2779
  113OSM    C2F11794   5.948   1.674  10.253 -0.6324  0.0188  0.1494
  113OSM    H2F11795   6.047   1.645  10.211 -0.9606  0.9144 -1.2810
  113OSM    H2G11796   5.947   1.785  10.262 -1.4097 -0.0002  0.3686
  113OSM    C3F11797   5.843   1.626  10.146 -0.7685 -0.1096 -0.2846
  113OSM    H3F11798   5.742   1.645  10.189 -1.0626 -0.6956 -0.7111
  113OSM    H3G11799   5.848   1.516  10.133 -0.5752 -0.0855 -0.4037
  113OSM    C4F11800   5.854   1.719  10.021  0.3949  0.2067  0.1416
  113OSM    H4F11801   5.845   1.829  10.037 -0.1769  0.1531  0.2038
  113OSM    H4G11802   5.760   1.690   9.969  1.6107 -1.4738 -1.1353
  113OSM    C5F11803   5.975   1.692   9.932  0.2705 -0.0611 -0.5376
  113OSM    H5F11804   5.982   1.584   9.909 -0.4519 -0.1255 -0.4730
  113OSM    H5G11805   6.067   1.711   9.991  0.9424  1.0057 -1.9132
  113OSM    C6F11806   5.974   1.769   9.801  0.2095  0.2426 -0.1810
  113OSM    H6F11807   5.954   1.876   9.821  0.3587 -0.3449  3.5494
  113OSM    H6G11808   5.891   1.719   9.746 -0.9855  0.0430  1.7693
  113OSM    C7F11809   6.106   1.757   9.718 -0.3363  0.2912 -0.4398
  113OSM    H7F11810   6.119   1.653   9.682 -1.1451 -0.1102  0.4140
  113OSM    H7G11811   6.192   1.778   9.785  1.1195  0.5702 -2.3258
  113OSM    C8F11812   6.114   1.852   9.599  0.3402 -0.6438  0.6204
  113OSM    H8F11813   6.222   1.863   9.572 -0.2203  0.7407 -1.2146
  113OSM    H8G11814   6.083   1.952   9.637 -2.5433 -0.9336 -0.8804
  113OSM    C9F11815   6.031   1.833   9.476 -0.0263  0.8812  0.4791
  113OSM    H9F11816   5.930   1.795   9.496 -0.4634  0.6468 -2.0642
  113OSM   C10F11817   6.067   1.839   9.342 -0.0867 -0.3781 -0.1483
  113OSM   H10F11818   5.985   1.826   9.269  0.6468  0.0934 -1.0642
  113OSM   C11F11819   6.202   1.885   9.284  1.0209 -0.8386  0.3382
  113OSM   H11F11820   6.270   1.929   9.360  0.5398  0.5321 -0.0173
  113OSM   H11G11821   6.191   1.961   9.204  0.7016 -0.7366  0.4798
  113OSM   C12F11822   6.273   1.759   9.215 -0.0276  0.7595 -0.3760
  113OSM   H12F11823   6.283   1.680   9.293 -0.6152 -0.1704 -1.2188
  113OSM   H12G11824   6.378   1.790   9.198  0.6229 -0.2144  1.7290
  113OSM   C13F11825   6.217   1.695   9.085  0.7831  0.5878  0.1238
  113OSM   H13F11826   6.112   1.687   9.120  0.8009  0.6611  0.1945
  113OSM   H13G11827   6.250   1.589   9.083  0.0794  0.3892 -1.0769
  113OSM   C14F11828   6.248   1.781   8.963 -0.2156  0.0444  0.6187
  113OSM   H14F11829   6.297   1.720   8.884  3.2373  0.8593  2.0312
  113OSM   H14G11830   6.320   1.857   9.000  0.3351  0.5571 -1.4152
  113OSM   C15F11831   6.131   1.864   8.916 -0.6016 -0.7909  0.4148
  113OSM   H15F11832   6.074   1.904   9.003 -0.2972 -0.0098  0.2610
  113OSM   H15G11833   6.057   1.799   8.865 -1.7996  1.1713 -0.4341
  113OSM   C16F11834   6.154   1.980   8.819 -0.0939  0.9343  0.0193
  113OSM   H16F11835   6.215   2.053   8.877  2.3091  0.7300 -2.1649
  113OSM   H16G11836   6.059   2.017   8.774  0.3159  1.7967 -0.1397
  113OSM   C17F11837   6.239   1.940   8.699 -0.3877 -0.6652  0.3029
  113OSM   H17F11838   6.346   1.916   8.719 -0.7304  0.2303  3.6306
  113OSM   H17G11839   6.242   2.030   8.635  3.2488 -1.1109 -0.2708
  113OSM   C18F11840   6.166   1.834   8.620  0.3055 -0.2475  0.1279
  113OSM   H18F11841   6.225   1.814   8.528  1.3511  2.6171  0.1261
  113OSM   H18G11842   6.069   1.865   8.574 -0.8674 -1.2920  1.8229
  113OSM   H18H11843   6.158   1.738   8.675 -0.3719  0.0752  0.6034
  114OSM      N11844   1.052   5.001  10.969 -0.4537 -0.9726  0.3163
  114OSM    C1511845   0.946   4.900  10.987  0.1531 -0.0024 -0.0363
  114OSM   H15A11846   0.974   4.823  10.917  1.8906  1.4137 -0.9465
  114OSM   H15B11847   0.852   4.947  10.962 -0.5436 -1.6983 -0.6477
  114OSM   H15C11848   0.932   4.875  11.091  2.9153 -1.2525  0.0861
  114OSM    C1411849   1.006   5.138  11.018  0.1387 -0.0860  0.0879
  114OSM   H14A11850   0.947   5.188  10.943 -1.0844 -0.5255  0.7519
  114OSM   H14B11851   1.096   5.198  11.021 -0.2427  0.4424  1.3598
  114OSM   H14C11852   0.955   5.131  11.113  2.6881  1.1752  1.5960
  114OSM    C1311853   1.173   4.960  11.051 -0.8652  0.1280 -0.2698
  114OSM   H13A11854   1.200   4.857  11.032 -2.2306 -0.4481  0.8319
  114OSM   H13B11855   1.153   4.969  11.157  0.8547  1.7585 -0.0552
  114OSM   H13C11856   1.262   5.016  11.028 -1.0264  0.8212  0.7330
  114OSM    C1211857   1.088   5.003  10.819  0.1835 -0.5397  0.1343
  114OSM   H12A11858   1.138   5.097  10.797 -0.7992 -0.2089 -0.7310
  114OSM   H12B11859   1.000   5.000  10.756  1.4569 -0.3127 -1.7008
  114OSM    C1111860   1.179   4.891  10.767  0.1932 -0.0242 -0.2974
  114OSM   H11A11861   1.274   4.901  10.823 -1.0564  1.5989  1.5844
  114OSM   H11B11862   1.201   4.907  10.659  2.2007  0.5218  0.1690
  114OSM      P11863   1.197   4.651  10.867  0.1268  0.3615  0.1054
  114OSM    O1311864   1.297   4.714  10.960  0.8227 -0.4030  0.7574
  114OSM    O1411865   1.091   4.558  10.912 -0.2921 -0.2287 -0.3039
  114OSM    O1111866   1.271   4.577  10.755  0.3202  0.2077 -0.3792
  114OSM    O1211867   1.118   4.764  10.792  0.5871 -0.2578 -0.0784
  114OSM    C1S11868   1.201   4.528  10.641  0.4683 -0.0132  0.0231
  114OSM    H1S11869   1.093   4.553  10.647  0.5327  0.4768 -0.6898
  114OSM    H1T11870   1.207   4.417  10.648 -0.4980 -0.1928 -1.6424
  114OSM     NF11871   1.172   4.519  10.394 -0.4721 -0.3211 -0.1863
  114OSM    HNF11872   1.217   4.453  10.334  0.3541 -0.4918  0.6033
  114OSM    C2S11873   1.250   4.572  10.500 -0.2873  0.1472 -0.2811
  114OSM    H2S11874   1.239   4.682  10.489 -2.7304  0.0248  0.5295
  114OSM    C3S11875   1.405   4.530  10.481  0.6036 -0.1207  0.1156
  114OSM    H3S11876   1.404   4.421  10.463  0.2122  0.0586 -1.0167
  114OSM     O311877   1.485   4.561  10.599  0.0720 -0.0500 -0.1154
  114OSM    HO311878   1.429   4.550  10.676  2.3844 -1.0420  1.4731
  114OSM    C4S11879   1.460   4.589  10.348 -0.7051  0.9577 -0.0418
  114OSM    H4S11880   1.408   4.559  10.255 -1.9303  1.7993  0.3606
  114OSM    C5S11881   1.567   4.679  10.339  0.6866  0.9871 -0.3584
  114OSM    H5S11882   1.626   4.708  10.427 -0.7900  0.1570  0.9462
  114OSM    C6S11883   1.622   4.741  10.214  1.0345  0.6396 -0.2343
  114OSM    H6S11884   1.618   4.679  10.122  0.1577  1.9727 -1.1180
  114OSM    H6T11885   1.733   4.741  10.224  0.9100 -1.2477  1.3275
  114OSM    C7S11886   1.563   4.884  10.186  0.2751 -0.5943  0.3422
  114OSM    H7S11887   1.616   4.916  10.094 -1.1437 -1.2706 -0.7209
  114OSM    H7T11888   1.583   4.955  10.269 -0.1450  0.9191 -0.8221
  114OSM    C8S11889   1.414   4.868  10.149 -0.6787  0.2691  0.0279
  114OSM    H8S11890   1.374   4.966  10.114 -0.9042  0.3181  0.4088
  114OSM    H8T11891   1.350   4.825  10.229  0.9944 -3.4463 -0.4936
  114OSM    C9S11892   1.383   4.775  10.026 -0.0262  0.3058 -0.3740
  114OSM    H9S11893   1.275   4.795  10.008 -0.5338 -1.8449  0.1478
  114OSM    H9T11894   1.383   4.666  10.050 -1.3396  0.4193  0.1737
  114OSM   C10S11895   1.458   4.800   9.893 -0.0038  0.2112  0.2087
  114OSM   H10S11896   1.566   4.785   9.910  0.0455  0.4500  0.1064
  114OSM   H10T11897   1.440   4.905   9.862  1.0610  1.0111  2.2877
  114OSM   C11S11898   1.407   4.719   9.774 -0.0911  0.1747 -0.1124
  114OSM   H11S11899   1.296   4.727   9.776 -0.0322  0.6158  2.1671
  114OSM   H11T11900   1.434   4.614   9.794  1.1617  0.7681  1.3737
  114OSM   C12S11901   1.471   4.753   9.642  0.5449 -0.2191 -0.1483
  114OSM   H12S11902   1.581   4.771   9.644  0.4445  0.3029  0.9886
  114OSM   H12T11903   1.430   4.853   9.617  2.2649  0.7857  0.8952
  114OSM   C13S11904   1.440   4.658   9.520  0.0231  1.0021  0.6656
  114OSM   H13S11905   1.384   4.572   9.562  1.7820 -0.5267 -0.1091
  114OSM   H13T11906   1.535   4.627   9.473 -0.7847  2.8064 -2.3003
  114OSM   C14S11907   1.372   4.741   9.408  0.1111  0.1741  0.2771
  114OSM   H14S11908   1.428   4.837   9.402  0.9488 -0.3707 -1.0001
  114OSM   H14T11909   1.268   4.765   9.437 -0.0794  0.4210 -0.6000
  114OSM   C15S11910   1.383   4.671   9.274  0.2656  0.3259 -0.1609
  114OSM   H15S11911   1.323   4.578   9.271 -0.4288  0.7421  0.4815
  114OSM   H15T11912   1.490   4.642   9.261  0.6869  1.5336  0.5205
  114OSM   C16S11913   1.343   4.761   9.158  0.0812 -0.6758 -0.2980
  114OSM   H16S11914   1.409   4.848   9.176  1.6575 -1.7816 -0.5383
  114OSM   H16T11915   1.236   4.789   9.167 -0.1515 -1.4620 -0.5234
  114OSM   C17S11916   1.356   4.691   9.017  0.1774  0.7594  0.1421
  114OSM   H17S11917   1.358   4.757   8.928 -1.8908  0.0506 -0.4695
  114OSM   H17T11918   1.273   4.623   8.986 -0.9909  2.3844 -0.3785
  114OSM   C18S11919   1.481   4.614   8.991  0.7213 -0.1025  0.1822
  114OSM   H18S11920   1.489   4.603   8.880  2.3254  1.7920  0.0697
  114OSM   H18T11921   1.459   4.512   9.029 -1.4893  0.2528 -0.0871
  114OSM   H18U11922   1.573   4.658   9.036 -0.3528  0.9521  1.3796
  114OSM    C1F11923   1.050   4.571  10.362  0.2322 -0.0722  0.2660
  114OSM     OF11924   0.994   4.653  10.435  0.4910 -0.2001 -0.0672
  114OSM    C2F11925   0.987   4.533  10.234 -0.5596 -0.7239 -0.3207
  114OSM    H2F11926   0.877   4.550  10.233 -0.5423  0.3766  3.7649
  114OSM    H2G11927   1.005   4.425  10.215 -2.5277 -1.3331  1.0394
  114OSM    C3F11928   1.047   4.616  10.127  0.3180  0.2032  0.2451
  114OSM    H3F11929   1.157   4.610  10.139  0.4752  0.4057 -1.0776
  114OSM    H3G11930   1.012   4.722  10.132 -2.0210 -0.5259  0.1499
  114OSM    C4F11931   1.023   4.578   9.981 -0.2161  0.1553  0.5384
  114OSM    H4F11932   1.045   4.472   9.957 -1.2066  0.6172 -2.5781
  114OSM    H4G11933   1.086   4.644   9.917 -1.7125 -0.4082 -1.5589
  114OSM    C5F11934   0.875   4.617   9.930 -0.7042 -0.2727 -0.9255
  114OSM    H5F11935   0.865   4.722   9.965  0.4672 -0.4026 -0.1771
  114OSM    H5G11936   0.795   4.553   9.972  0.5226 -1.9288 -1.0279
  114OSM    C6F11937   0.866   4.618   9.775 -0.1422  0.1762  0.2358
  114OSM    H6F11938   0.947   4.676   9.726 -0.8042  1.9380  1.1987
  114OSM    H6G11939   0.768   4.662   9.746 -0.5256 -0.5967  0.3464
  114OSM    C7F11940   0.873   4.482   9.710  0.0015 -0.6189  0.3357
  114OSM    H7F11941   0.777   4.435   9.741 -0.6566 -0.8254 -1.9264
  114OSM    H7G11942   0.949   4.416   9.757 -0.3447  0.6501  2.8021
  114OSM    C8F11943   0.866   4.469   9.558  0.1519 -0.2598 -0.2245
  114OSM    H8F11944   0.796   4.541   9.509  1.0395 -0.4496 -1.8221
  114OSM    H8G11945   0.832   4.365   9.535  1.6127 -0.3716 -1.9956
  114OSM    C9F11946   1.010   4.503   9.518  0.5058  0.1789  0.3406
  114OSM    H9F11947   1.069   4.571   9.581 -0.7553  2.9944 -1.4128
  114OSM   C10F11948   1.065   4.459   9.400 -0.3849 -0.1940  0.4597
  114OSM   H10F11949   1.172   4.484   9.392 -0.9419  3.1526  2.3881
  114OSM   C11F11950   1.001   4.364   9.299 -0.5802 -0.1981 -0.0007
  114OSM   H11F11951   0.892   4.349   9.315 -0.8416  1.0469 -0.5277
  114OSM   H11G11952   1.051   4.268   9.275 -2.1885 -0.8343 -0.9248
  114OSM   C12F11953   1.023   4.429   9.160 -0.0162 -0.5715  0.4347
  114OSM   H12F11954   0.981   4.364   9.081  0.8550  1.2020 -1.5176
  114OSM   H12G11955   1.129   4.454   9.138 -0.7039 -0.0757 -2.4668
  114OSM   C13F11956   0.943   4.562   9.139  0.1516 -0.2348  0.1737
  114OSM   H13F11957   0.968   4.631   9.222  0.5898  1.0213 -0.9941
  114OSM   H13G11958   0.835   4.539   9.154 -0.2786  0.6536 -1.3854
  114OSM   C14F11959   0.956   4.645   9.008  0.1002  0.3249  0.5244
  114OSM   H14F11960   1.063   4.643   8.977 -0.1976 -2.4528 -0.4575
  114OSM   H14G11961   0.920   4.748   9.030 -2.0758 -0.3863  0.3838
  114OSM   C15F11962   0.870   4.578   8.893  0.1161 -0.7479 -0.0976
  114OSM   H15F11963   0.916   4.477   8.884  2.5771  0.5198 -2.2539
  114OSM   H15G11964   0.897   4.639   8.804 -3.2078 -0.0958 -0.7458
  114OSM   C16F11965   0.719   4.556   8.913  0.1713 -1.3728 -0.0136
  114OSM   H16F11966   0.703   4.492   9.002 -0.5581  1.0174  1.6120
  114OSM   H16G11967   0.684   4.502   8.822  0.0757 -0.8823 -0.2740
  114OSM   C17F11968   0.640   4.687   8.933  0.0549  1.0377  0.0328
  114OSM   H17F11969   0.703   4.764   8.883  0.8370 -0.5353 -1.4456
  114OSM   H17G11970   0.632   4.702   9.043  2.5524  1.1954  0.2238
  114OSM   C18F11971   0.498   4.695   8.868 -0.0201  0.0899 -0.5609
  114OSM   H18F11972   0.424   4.647   8.936 -0.2155 -1.4786 -1.8282
  114OSM   H18G11973   0.503   4.636   8.773  2.5670 -1.2142  0.3474
  114OSM   H18H11974   0.477   4.802   8.847  1.2373  0.0612 -2.0807
  115OSM      N11975   5.598   3.561  10.859  0.1040 -0.1652 -0.5131
  115OSM    C1511976   5.491   3.499  10.774 -0.2788 -0.1012  0.2102
  115OSM   H15A11977   5.475   3.398  10.808 -2.7306 -0.5153 -1.9927
  115OSM   H15B11978   5.517   3.498  10.669  1.3682  1.1302  0.5809
  115OSM   H15C11979   5.396   3.551  10.780  0.4053  1.0718  0.9728
  115OSM    C1411980   5.731   3.492  10.846 -0.4221  0.6284 -0.6904
  115OSM   H14A11981   5.810   3.529  10.909 -0.4098 -2.1705  1.0246
  115OSM   H14B11982   5.768   3.504  10.745  0.2257 -1.6964 -0.7533
  115OSM   H14C11983   5.722   3.386  10.864 -1.7056  0.9143  0.4485
  115OSM    C1311984   5.616   3.708  10.827  0.8483  0.0857 -0.3269
  115OSM   H13A11985   5.704   3.739  10.880  0.0249  1.9083  0.0404
  115OSM   H13B11986   5.531   3.768  10.857  0.4619 -0.2256 -0.7927
  115OSM   H13C11987   5.644   3.726  10.724 -0.7198  0.1016 -0.7606
  115OSM    C1211988   5.561   3.555  11.011  0.1019  0.5029  0.3422
  115OSM   H12A11989   5.640   3.595  11.073 -0.2711 -0.6983  1.6222
  115OSM   H12B11990   5.548   3.453  11.046  2.1823  0.1393  0.0830
  115OSM    C1111991   5.437   3.638  11.061 -0.4840  0.2286 -0.5624
  115OSM   H11A11992   5.447   3.745  11.033 -1.5113  0.1704 -1.1635
  115OSM   H11B11993   5.440   3.626  11.171  0.8996 -0.9426 -0.7149
  115OSM      P11994   5.246   3.459  11.053 -0.9661 -0.5148 -0.5436
  115OSM    O1311995   5.340   3.356  11.113 -0.3190  0.4467 -0.3564
  115OSM    O1411996   5.136   3.515  11.139 -0.0380  1.1249 -0.5153
  115OSM    O1111997   5.180   3.393  10.923 -0.9307  0.1063 -0.4160
  115OSM    O1211998   5.313   3.594  11.000  0.3974 -0.9922 -0.0513
  115OSM    C1S11999   5.108   3.478  10.828  0.3695  0.0440 -0.0326
  115OSM    H1S12000   5.139   3.584  10.842 -2.1173  0.7904  0.0819
  115OSM    H1T12001   5.000   3.481  10.851  0.4103  1.2534  0.0308
  115OSM     NF12002   5.091   3.547  10.595 -0.1346  0.1097 -0.0919
  115OSM    HNF12003   4.993   3.541  10.578 -0.5815  0.5873  2.2152
  115OSM    C2S12004   5.139   3.439  10.680 -0.0320  0.0460 -0.6278
  115OSM    H2S12005   5.248   3.431  10.661  0.0758  0.3008 -0.1322
  115OSM    C3S12006   5.072   3.301  10.654  0.2458  0.0228  0.0675
  115OSM    H3S12007   4.966   3.317  10.681 -0.2215  0.0213 -1.6830
  115OSM     O312008   5.124   3.197  10.739  0.4116  0.4979 -0.1070
  115OSM    HO312009   5.160   3.240  10.817  0.8820 -1.1950  0.6319
  115OSM    C4S12010   5.084   3.262  10.514 -0.9672 -0.2266 -0.0517
  115OSM    H4S12011   5.039   3.334  10.445 -1.0901 -0.2666 -0.0130
  115OSM    C5S12012   5.139   3.147  10.464 -0.0155  0.2294  0.0373
  115OSM    H5S12013   5.183   3.081  10.540  0.7810  0.9937  0.2425
  115OSM    C6S12014   5.148   3.115  10.321  0.3073 -0.2769 -0.2288
  115OSM    H6S12015   5.162   3.006  10.303 -2.8386 -0.3615 -2.5126
  115OSM    H6T12016   5.238   3.163  10.276  0.0178  0.9363  0.4804
  115OSM    C7S12017   5.023   3.147  10.234  0.8151  0.6197 -0.5523
  115OSM    H7S12018   4.967   3.243  10.240 -1.1564 -0.5853  0.8590
  115OSM    H7T12019   4.945   3.070  10.253  0.3628  1.0344 -0.7104
  115OSM    C8S12020   5.058   3.109  10.085  0.1932  0.0330  0.1715
  115OSM    H8S12021   5.082   3.002  10.073  0.1470  0.3450 -3.2239
  115OSM    H8T12022   5.144   3.172  10.054  0.5513  0.1897  1.4244
  115OSM    C9S12023   4.941   3.137   9.989 -0.7775 -0.0915 -0.3228
  115OSM    H9S12024   4.900   3.237  10.014 -1.4015 -0.2265 -0.8122
  115OSM    H9T12025   4.862   3.066  10.019  1.7417 -2.4110  1.0600
  115OSM   C10S12026   4.975   3.119   9.841  0.1788 -0.3287 -0.3127
  115OSM   H10S12027   5.017   3.019   9.814  1.1751 -0.0225  0.0896
  115OSM   H10T12028   5.060   3.186   9.817  1.4526 -1.2691  1.4724
  115OSM   C11S12029   4.859   3.154   9.748  0.0566 -0.5820 -0.7995
  115OSM   H11S12030   4.841   3.264   9.751 -3.0061 -1.0749  0.4882
  115OSM   H11T12031   4.767   3.113   9.795  1.2654 -1.8529  0.5114
  115OSM   C12S12032   4.877   3.093   9.606 -0.2423 -0.2502 -0.4927
  115OSM   H12S12033   4.853   2.984   9.613  1.2913 -0.5871 -0.3322
  115OSM   H12T12034   4.983   3.111   9.582 -0.6935 -0.5118 -2.7509
  115OSM   C13S12035   4.786   3.159   9.509  0.1639  0.3821  0.4955
  115OSM   H13S12036   4.829   3.260   9.492 -1.2292  1.2371  1.9321
  115OSM   H13T12037   4.686   3.166   9.556 -0.2578 -2.4535  0.0757
  115OSM   C14S12038   4.775   3.070   9.384 -0.1045  0.4978  0.3828
  115OSM   H14S12039   4.724   2.976   9.412  1.4054 -0.6673 -0.7118
  115OSM   H14T12040   4.873   3.028   9.354 -0.1930  1.3590 -1.1696
  115OSM   C15S12041   4.720   3.145   9.258 -0.2160 -0.1139  0.2338
  115OSM   H15S12042   4.626   3.197   9.287 -0.9599 -0.5380 -1.4085
  115OSM   H15T12043   4.700   3.078   9.173  1.8508 -0.7744  0.2381
  115OSM   C16S12044   4.835   3.244   9.213  0.5168  0.5073  0.3231
  115OSM   H16S12045   4.939   3.210   9.230 -0.4344 -1.3385  2.7203
  115OSM   H16T12046   4.821   3.336   9.274  1.4969  0.8305  0.0706
  115OSM   C17S12047   4.830   3.277   9.066  0.2138 -0.2933  0.5126
  115OSM   H17S12048   4.726   3.313   9.047  0.4261 -0.2395 -0.5750
  115OSM   H17T12049   4.861   3.186   9.011 -0.5513 -0.6987  0.7350
  115OSM   C18S12050   4.917   3.393   9.023  0.4993  0.5165  0.2656
  115OSM   H18S12051   4.927   3.409   8.914 -3.8811  3.4889  0.1797
  115OSM   H18T12052   5.019   3.386   9.067  1.6210  1.4526 -2.0756
  115OSM   H18U12053   4.870   3.485   9.063  0.9585  0.4752  0.9057
  115OSM    C1F12054   5.162   3.652  10.571  0.1386 -0.9893 -0.3003
  115OSM     OF12055   5.285   3.658  10.586  0.0279  0.4947 -1.1581
  115OSM    C2F12056   5.088   3.778  10.527  0.1342  0.3628  0.9905
  115OSM    H2F12057   5.076   3.855  10.606 -0.5050  0.9649  0.3148
  115OSM    H2G12058   4.986   3.737  10.509 -0.0151  0.8114  0.7928
  115OSM    C3F12059   5.165   3.825  10.401 -0.0377 -0.6211 -0.1745
  115OSM    H3F12060   5.182   3.750  10.322  0.8872  1.6549 -2.2181
  115OSM    H3G12061   5.262   3.867  10.434 -0.7168  1.6040 -0.8685
  115OSM    C4F12062   5.089   3.936  10.327  0.4438  0.7319  0.2383
  115OSM    H4F12063   5.053   4.021  10.389 -2.1519  0.2405 -0.5456
  115OSM    H4G12064   4.993   3.896  10.289  0.4178  3.3740 -2.6477
  115OSM    C5F12065   5.168   3.992  10.207  0.0282  0.4218 -0.5931
  115OSM    H5F12066   5.159   3.947  10.106 -1.9557  0.3443 -0.4018
  115OSM    H5G12067   5.275   3.974  10.230  0.1011  0.4436 -0.9212
  115OSM    C6F12068   5.151   4.143  10.192  0.6848  0.2999  0.2914
  115OSM    H6F12069   5.209   4.179  10.105  2.5111 -1.1894  0.8683
  115OSM    H6G12070   5.187   4.195  10.284 -0.2438  1.2171  0.1433
  115OSM    C7F12071   5.000   4.185  10.153  0.0402  0.4836  0.1060
  115OSM    H7F12072   4.977   4.290  10.180 -1.4044  0.7536 -2.0004
  115OSM    H7G12073   4.939   4.118  10.217  1.1619 -2.2670 -1.5896
  115OSM    C8F12074   4.956   4.178  10.010 -0.0754  0.0804  0.4481
  115OSM    H8F12075   4.993   4.079   9.976 -0.3900 -0.4224  1.5466
  115OSM    H8G12076   5.009   4.265   9.966  0.5014  0.3710  1.7084
  115OSM    C9F12077   4.810   4.180   9.993 -0.4791 -0.8471  0.1694
  115OSM    H9F12078   4.752   4.143  10.078 -1.1981 -3.2256 -1.3103
  115OSM   C10F12079   4.740   4.204   9.883 -0.1953  0.1750 -0.4048
  115OSM   H10F12080   4.630   4.195   9.888 -0.3410  2.3167  1.1008
  115OSM   C11F12081   4.797   4.237   9.746  0.7303  0.3835 -0.1096
  115OSM   H11F12082   4.832   4.146   9.692  0.4016  0.1194  0.1259
  115OSM   H11G12083   4.889   4.300   9.748 -0.5869  2.3838 -1.1014
  115OSM   C12F12084   4.685   4.310   9.652  0.2476  0.3097  0.0546
  115OSM   H12F12085   4.609   4.237   9.618 -0.4830  2.0172 -2.0528
  115OSM   H12G12086   4.745   4.335   9.562 -2.2763  2.4572 -1.1077
  115OSM   C13F12087   4.635   4.447   9.703  0.4316  0.1389  0.2613
  115OSM   H13F12088   4.589   4.424   9.802  0.7984  1.9927  0.8723
  115OSM   H13G12089   4.548   4.476   9.641  0.2709  2.3128  1.4843
  115OSM   C14F12090   4.750   4.547   9.720 -0.3561 -0.0272  0.0774
  115OSM   H14F12091   4.792   4.573   9.621  4.6797  0.7150  2.2547
  115OSM   H14G12092   4.836   4.502   9.775  0.1514  1.7381  0.7667
  115OSM   C15F12093   4.708   4.679   9.782  0.2237 -0.0242 -1.0395
  115OSM   H15F12094   4.676   4.667   9.888  1.7513 -0.7285 -0.6442
  115OSM   H15G12095   4.617   4.719   9.733 -0.1232  0.3621 -0.0989
  115OSM   C16F12096   4.815   4.789   9.790 -1.2280  0.2243 -0.0791
  115OSM   H16F12097   4.903   4.742   9.839 -0.1335  2.9114  0.5943
  115OSM   H16G12098   4.792   4.880   9.849 -2.3381  0.4987 -0.9156
  115OSM   C17F12099   4.860   4.837   9.653 -0.9377 -0.4416  0.2324
  115OSM   H17F12100   4.904   4.754   9.595 -0.7010 -0.4220  0.3798
  115OSM   H17G12101   4.944   4.908   9.665 -0.6976 -0.4839 -1.1617
  115OSM   C18F12102   4.749   4.913   9.573  0.2820 -0.2004 -0.3328
  115OSM   H18F12103   4.734   5.007   9.630  1.4188  0.2731 -0.7890
  115OSM   H18G12104   4.661   4.847   9.559  1.5816 -2.0475  0.0654
  115OSM   H18H12105   4.790   4.949   9.476  0.4883  1.4536  0.3413
  116OSM      N12106   1.804   0.552  11.064 -0.4804  0.0581 -0.3693
  116OSM    C1512107   1.807   0.675  11.155  0.2678  0.0856 -0.5347
  116OSM   H15A12108   1.832   0.655  11.258 -0.7807  1.5911  0.0267
  116OSM   H15B12109   1.712   0.725  11.163 -0.3590 -0.9805 -1.1382
  116OSM   H15C12110   1.871   0.755  11.119  3.6966 -2.2937 -0.0000
  116OSM    C1412111   1.933   0.480  11.063 -0.7717 -0.0117  0.1871
  116OSM   H14A12112   1.995   0.549  11.008 -3.7431  3.8669  1.5104
  116OSM   H14B12113   1.931   0.392  10.999  0.5588 -0.6639  1.0161
  116OSM   H14C12114   1.973   0.459  11.161 -0.4715  3.4753  0.8699
  116OSM    C1312115   1.702   0.456  11.108  0.5572 -0.5452 -0.4125
  116OSM   H13A12116   1.611   0.514  11.111  1.6284  1.1255  0.9229
  116OSM   H13B12117   1.719   0.409  11.204 -0.6965  0.4616  0.3135
  116OSM   H13C12118   1.686   0.373  11.041 -2.0678 -0.2528 -0.1715
  116OSM    C1212119   1.765   0.590  10.924  0.2812  0.8970  0.1797
  116OSM   H12A12120   1.740   0.498  10.874  2.1464 -0.0987  1.0089
  116OSM   H12B12121   1.847   0.636  10.871  1.3029 -3.6298 -2.4674
  116OSM    C1112122   1.647   0.682  10.893 -0.0415  0.1924  0.0312
  116OSM   H11A12123   1.637   0.683  10.782  0.0981  1.0160  0.0209
  116OSM   H11B12124   1.664   0.784  10.936 -0.4950  0.0246  0.6156
  116OSM      P12125   1.391   0.669  10.955  0.1691  0.1989 -0.0631
  116OSM    O1312126   1.319   0.558  11.021 -0.5171  0.2455 -0.3674
  116OSM    O1412127   1.379   0.801  11.016 -0.0682 -0.0718 -0.1103
  116OSM    O1112128   1.333   0.669  10.806  0.2655  0.3602 -0.4843
  116OSM    O1212129   1.537   0.625  10.953  0.5055  0.5214 -0.2577
  116OSM    C1S12130   1.355   0.547  10.724  0.2910  0.1465  0.2261
  116OSM    H1S12131   1.318   0.454  10.772 -3.0924  0.4116 -1.7014
  116OSM    H1T12132   1.463   0.529  10.705  0.7160  1.1315  1.5547
  116OSM     NF12133   1.269   0.437  10.513  0.2645 -0.6610  0.0209
  116OSM    HNF12134   1.334   0.417  10.440 -0.3313 -0.1333 -0.6603
  116OSM    C2S12135   1.288   0.566  10.580 -0.5489 -0.4972  0.0635
  116OSM    H2S12136   1.190   0.609  10.610 -1.0452 -3.0101  2.2747
  116OSM    C3S12137   1.380   0.664  10.506  0.5416 -0.2274 -0.2760
  116OSM    H3S12138   1.486   0.629  10.507  1.1378  1.4671 -1.8764
  116OSM     O312139   1.394   0.787  10.579 -0.1381 -0.2616  0.2842
  116OSM    HO312140   1.383   0.749  10.666 -0.5526 -0.2600  0.2326
  116OSM    C4S12141   1.337   0.694  10.368  0.4868  0.1453 -0.6485
  116OSM    H4S12142   1.230   0.709  10.350 -0.2057 -1.9084  1.4725
  116OSM    C5S12143   1.407   0.685  10.255  0.4569  0.1267  0.3241
  116OSM    H5S12144   1.514   0.663  10.263  0.5818  0.7585  0.3791
  116OSM    C6S12145   1.359   0.708  10.119  0.2087  0.0501  0.2988
  116OSM    H6S12146   1.342   0.612  10.067  1.9192  0.2260 -0.6395
  116OSM    H6T12147   1.448   0.753  10.069 -0.0493 -0.1674 -0.3564
  116OSM    C7S12148   1.239   0.800  10.090  0.0925  0.1893 -0.9363
  116OSM    H7S12149   1.222   0.879  10.166  0.0227  0.9008 -1.6970
  116OSM    H7T12150   1.140   0.750  10.104  0.4623  0.1864  1.9688
  116OSM    C8S12151   1.246   0.862   9.953  0.2516  0.2117 -0.3099
  116OSM    H8S12152   1.330   0.935   9.943  1.9703 -1.6514  0.2181
  116OSM    H8T12153   1.147   0.914   9.955  1.8585  3.4203  0.6072
  116OSM    C9S12154   1.264   0.762   9.837  0.1460  0.7703  0.5339
  116OSM    H9S12155   1.185   0.685   9.841 -0.2536  1.1410 -0.1107
  116OSM    H9T12156   1.360   0.711   9.858  0.4887  0.9506 -0.5705
  116OSM   C10S12157   1.277   0.820   9.695  0.1064  0.5477 -0.1752
  116OSM   H10S12158   1.367   0.884   9.684  0.3083  0.0041 -1.9370
  116OSM   H10T12159   1.186   0.880   9.674 -0.8347 -1.1207 -0.9954
  116OSM   C11S12160   1.271   0.707   9.585  0.0981 -0.1555 -0.7843
  116OSM   H11S12161   1.169   0.669   9.610  0.1333 -0.4000 -1.0088
  116OSM   H11T12162   1.355   0.644   9.620 -0.3690  0.4956  1.5924
  116OSM   C12S12163   1.269   0.758   9.442  0.6683  0.3968 -0.1974
  116OSM   H12S12164   1.358   0.822   9.426  0.4695  0.9670  0.8986
  116OSM   H12T12165   1.189   0.834   9.427 -0.3303 -0.1962  1.8177
  116OSM   C13S12166   1.269   0.656   9.330 -0.6057 -0.1464 -0.2864
  116OSM   H13S12167   1.163   0.624   9.323 -0.5035 -0.1811 -1.7708
  116OSM   H13T12168   1.338   0.572   9.353 -0.3321  0.0179 -0.5116
  116OSM   C14S12169   1.308   0.722   9.199 -0.3407 -0.5023 -0.5008
  116OSM   H14S12170   1.415   0.745   9.219  0.0976 -2.3404 -0.7020
  116OSM   H14T12171   1.252   0.814   9.170 -1.3503 -1.0257 -0.2103
  116OSM   C15S12172   1.307   0.629   9.083 -0.5614  0.2665  0.8790
  116OSM   H15S12173   1.206   0.582   9.086 -0.1183 -0.8725 -1.3052
  116OSM   H15T12174   1.375   0.542   9.082 -0.0667  0.6403  1.4499
  116OSM   C16S12175   1.327   0.713   8.953  0.1192 -0.4694  0.5805
  116OSM   H16S12176   1.420   0.773   8.956  2.5516 -4.0706 -0.1109
  116OSM   H16T12177   1.242   0.780   8.927  0.7951 -0.2049 -1.0357
  116OSM   C17S12178   1.350   0.622   8.832  0.0483  0.9125 -0.0332
  116OSM   H17S12179   1.429   0.547   8.851 -0.2041  0.8368  0.7602
  116OSM   H17T12180   1.365   0.686   8.742  3.4581 -1.0183 -0.8869
  116OSM   C18S12181   1.220   0.543   8.790  0.1429  0.2629 -0.7989
  116OSM   H18S12182   1.196   0.466   8.866  0.2115 -1.3582 -2.3653
  116OSM   H18T12183   1.225   0.504   8.685  0.0269  3.2523 -1.9470
  116OSM   H18U12184   1.131   0.608   8.786 -2.4689 -3.1641 -0.8208
  116OSM    C1F12185   1.182   0.349  10.558 -0.3397  0.3704 -0.3386
  116OSM     OF12186   1.130   0.353  10.667  0.2209  0.4607 -0.2781
  116OSM    C2F12187   1.139   0.247  10.462 -0.3416 -0.2616  0.0256
  116OSM    H2F12188   1.179   0.277  10.362  2.6816 -2.1063  0.6425
  116OSM    H2G12189   1.028   0.247  10.461 -0.3900  2.1443  1.3705
  116OSM    C3F12190   1.192   0.105  10.482  0.1669  0.3462  0.9369
  116OSM    H3F12191   1.161   0.083  10.586 -1.1144 -1.0610  0.2759
  116OSM    H3G12192   1.302   0.099  10.468 -0.1754  0.9557 -2.5758
  116OSM    C4F12193   1.136  -0.000  10.382 -0.4197 -0.3199  0.3207
  116OSM    H4F12194   1.025  -0.004  10.387 -0.3147 -2.6857  1.9847
  116OSM    H4G12195   1.165  -0.103  10.414 -0.2187 -0.4540 -0.2862
  116OSM    C5F12196   1.151   0.019  10.227 -0.2635  0.0044 -0.0417
  116OSM    H5F12197   1.255   0.052  10.206 -0.1615 -0.9886 -1.1044
  116OSM    H5G12198   1.087   0.104  10.194 -2.0091 -1.7008 -1.1805
  116OSM    C6F12199   1.106  -0.113  10.152  0.2526 -0.9773 -0.2902
  116OSM    H6F12200   0.996  -0.114  10.173 -0.1319  1.6439 -1.8662
  116OSM    H6G12201   1.155  -0.200  10.201  0.6016 -1.0660 -0.8016
  116OSM    C7F12202   1.119  -0.110   9.996  0.2932 -0.2431 -0.2972
  116OSM    H7F12203   1.079  -0.204   9.954 -0.0931 -1.3446  2.4110
  116OSM    H7G12204   1.227  -0.107   9.970  0.1006 -0.2306 -1.0954
  116OSM    C8F12205   1.034   0.004   9.936 -0.4804 -0.1240  0.3843
  116OSM    H8F12206   1.062   0.013   9.829  1.7624 -1.2692  0.8431
  116OSM    H8G12207   1.063   0.099   9.986  0.3766 -0.4224  0.4689
  116OSM    C9F12208   0.885  -0.008   9.943 -0.2765 -0.3691  0.4089
  116OSM    H9F12209   0.831   0.033  10.030  0.2277 -0.3426  0.7080
  116OSM   C10F12210   0.815  -0.074   9.848  0.2893  0.2024 -0.2948
  116OSM   H10F12211   0.706  -0.087   9.856  0.1804 -1.1490 -3.3262
  116OSM   C11F12212   0.867  -0.143   9.724  0.5167 -0.0994 -0.0500
  116OSM   H11F12213   0.803  -0.232   9.707 -2.6538  1.9317  0.6980
  116OSM   H11G12214   0.969  -0.184   9.740  0.3999 -0.8257 -1.1145
  116OSM   C12F12215   0.879  -0.047   9.604  0.3673 -0.4101 -0.7149
  116OSM   H12F12216   0.962   0.027   9.612  0.9758 -1.3788  2.8527
  116OSM   H12G12217   0.790   0.016   9.587  1.2873  0.7777 -1.1622
  116OSM   C13F12218   0.902  -0.127   9.476  0.8344 -0.2231 -0.1841
  116OSM   H13F12219   0.820  -0.202   9.472  0.2147  0.5188 -2.0807
  116OSM   H13G12220   0.999  -0.180   9.484 -0.3910 -2.4262  0.4044
  116OSM   C14F12221   0.904  -0.040   9.352 -0.0515  0.9221 -0.0911
  116OSM   H14F12222   0.982   0.038   9.359  1.6437 -0.4024 -3.0838
  116OSM   H14G12223   0.810   0.016   9.331 -0.1096  1.1233  0.6961
  116OSM   C15F12224   0.924  -0.118   9.217  0.1917 -0.5184  0.0201
  116OSM   H15F12225   0.851  -0.202   9.222  0.7896 -0.8957  3.5668
  116OSM   H15G12226   1.030  -0.150   9.219  0.2266 -0.3347  1.8269
  116OSM   C16F12227   0.905  -0.027   9.090 -0.1875 -0.3097  0.1238
  116OSM   H16F12228   0.986   0.048   9.091  0.9306 -1.4670 -1.2208
  116OSM   H16G12229   0.802   0.015   9.082 -0.5414 -1.0951  0.4355
  116OSM   C17F12230   0.923  -0.096   8.960  0.1265 -0.1861  0.0099
  116OSM   H17F12231   0.855  -0.183   8.945 -0.9959  0.2527  2.3333
  116OSM   H17G12232   1.022  -0.147   8.952  0.0440  0.0110 -2.9680
  116OSM   C18F12233   0.921   0.003   8.852  0.5670  0.2628 -0.1320
  116OSM   H18F12234   1.000   0.081   8.862  1.4724 -0.7084  0.4408
  116OSM   H18G12235   0.822   0.050   8.838  0.0342 -1.4759 -2.4039
  116OSM   H18H12236   0.949  -0.052   8.760 -0.5729 -2.0212  0.8416
  117OSM      N12237   5.570   1.554  11.084 -0.6941 -0.0728 -0.4795
  117OSM    C1512238   5.532   1.689  11.140 -0.0037 -0.1771  0.2548
  117OSM   H15A12239   5.527   1.774  11.073 -1.2308 -0.9629 -0.6789
  117OSM   H15B12240   5.600   1.718  11.218 -0.1034 -1.3106  0.7658
  117OSM   H15C12241   5.432   1.688  11.182  0.3732 -0.3441  1.1597
  117OSM    C1412242   5.581   1.461  11.195 -0.0662 -0.0038 -0.0142
  117OSM   H14A12243   5.674   1.453  11.249 -0.3218  1.3180  0.6418
  117OSM   H14B12244   5.572   1.366  11.145  2.7022  0.2314 -1.0474
  117OSM   H14C12245   5.501   1.467  11.268 -0.5809 -0.3194 -0.5456
  117OSM    C1312246   5.467   1.505  10.990 -0.3417 -0.2402 -0.4102
  117OSM   H13A12247   5.457   1.567  10.903  1.6687 -0.5184 -0.8849
  117OSM   H13B12248   5.373   1.492  11.040  0.1517  0.1337  0.6360
  117OSM   H13C12249   5.505   1.411  10.951 -1.6683 -1.2349  0.6386
  117OSM    C1212250   5.709   1.559  11.017 -0.2668  0.7196  0.1049
  117OSM   H12A12251   5.788   1.546  11.089 -2.1196 -1.0042  1.9005
  117OSM   H12B12252   5.729   1.653  10.967 -0.9034 -0.2537 -2.0604
  117OSM    C1112253   5.745   1.444  10.921  0.3281 -0.2547 -0.2205
  117OSM   H11A12254   5.850   1.468  10.894  0.2299  0.2709 -0.1271
  117OSM   H11B12255   5.677   1.441  10.833  0.5422 -1.3182 -0.3600
  117OSM      P12256   5.677   1.191  10.940  0.3189 -0.1612 -0.0708
  117OSM    O1312257   5.762   1.073  10.971 -0.3408 -0.1353  0.5077
  117OSM    O1412258   5.542   1.195  11.000  0.2613  0.1791  0.5005
  117OSM    O1112259   5.662   1.207  10.780 -0.5412 -0.3196 -0.0742
  117OSM    O1212260   5.751   1.321  10.992 -0.1378  0.2916  0.1589
  117OSM    C1S12261   5.788   1.199  10.705 -0.2432 -0.5110 -0.2700
  117OSM    H1S12262   5.843   1.107  10.734 -0.3872 -0.9340 -1.3122
  117OSM    H1T12263   5.847   1.292  10.718  0.6400 -0.7103 -2.4891
  117OSM     NF12264   5.862   1.201  10.457  0.0052 -0.0408  0.1601
  117OSM    HNF12265   5.884   1.285  10.409 -1.1436 -0.3526 -0.9484
  117OSM    C2S12266   5.749   1.190  10.554  0.4279  0.3152  0.1362
  117OSM    H2S12267   5.701   1.090  10.542  0.3293  0.4392 -0.5229
  117OSM    C3S12268   5.642   1.306  10.514  0.6818  0.5041  0.1793
  117OSM    H3S12269   5.699   1.399  10.497 -0.1025  0.7064 -1.3851
  117OSM     O312270   5.531   1.331  10.597  0.4558 -1.1613 -1.1782
  117OSM    HO312271   5.558   1.282  10.675 -0.9732  1.7093  1.1794
  117OSM    C4S12272   5.602   1.271  10.372  0.4422 -0.7740 -0.8167
  117OSM    H4S12273   5.680   1.308  10.302  0.2473 -1.6278 -1.4948
  117OSM    C5S12274   5.505   1.195  10.320  0.2382 -0.6997  0.4598
  117OSM    H5S12275   5.450   1.134  10.394  0.0176 -0.5298  0.4390
  117OSM    C6S12276   5.493   1.177  10.170  0.4517  0.2220 -0.2792
  117OSM    H6S12277   5.389   1.204  10.140  0.7312  0.8465 -0.6898
  117OSM    H6T12278   5.511   1.071  10.142 -0.8642 -0.2963  0.7839
  117OSM    C7S12279   5.589   1.257  10.077  0.6612 -0.4611  0.1330
  117OSM    H7S12280   5.688   1.209  10.094  0.3008 -0.5004  2.2659
  117OSM    H7T12281   5.602   1.360  10.117 -3.8564  0.1379  0.2654
  117OSM    C8S12282   5.541   1.275   9.929  0.6768  0.4855 -0.3312
  117OSM    H8S12283   5.476   1.365   9.933 -2.2284 -1.5615  1.5607
  117OSM    H8T12284   5.488   1.181   9.903 -0.2386  1.3356 -1.5829
  117OSM    C9S12285   5.651   1.320   9.840 -0.4208 -0.9410  0.9038
  117OSM    H9S12286   5.729   1.240   9.835  0.8469  0.3547 -0.5652
  117OSM    H9T12287   5.696   1.409   9.889 -1.6459 -0.4633  1.1788
  117OSM   C10S12288   5.605   1.349   9.695 -0.3560  0.0636  0.9612
  117OSM   H10S12289   5.534   1.432   9.673  0.2040 -0.0249 -1.3318
  117OSM   H10T12290   5.553   1.260   9.654 -1.4500  0.8037  0.7257
  117OSM   C11S12291   5.726   1.379   9.611 -0.7028  0.3018 -0.1398
  117OSM   H11S12292   5.795   1.291   9.605  1.6477  2.2136 -2.7691
  117OSM   H11T12293   5.795   1.458   9.649  3.3510 -1.8633 -2.5695
  117OSM   C12S12294   5.689   1.419   9.471 -0.1126  0.1338  0.6246
  117OSM   H12S12295   5.623   1.509   9.469 -0.4489 -0.1224 -0.4787
  117OSM   H12T12296   5.616   1.345   9.432  0.3622 -1.6062  2.9896
  117OSM   C13S12297   5.803   1.434   9.373 -0.4003  0.0854 -0.2878
  117OSM   H13S12298   5.854   1.336   9.373 -1.7060 -0.6296  1.2623
  117OSM   H13T12299   5.880   1.507   9.405 -0.8078  0.8303 -0.9752
  117OSM   C14S12300   5.783   1.450   9.224  0.1473  0.3255  0.1322
  117OSM   H14S12301   5.734   1.548   9.205  1.4221  0.7736 -0.9089
  117OSM   H14T12302   5.725   1.362   9.189 -0.3333  0.4024  0.7130
  117OSM   C15S12303   5.909   1.433   9.148 -0.6809 -0.5573  0.1760
  117OSM   H15S12304   5.962   1.336   9.165 -1.5084 -1.2474 -1.0691
  117OSM   H15T12305   5.969   1.522   9.176 -0.7599 -0.3405 -0.3293
  117OSM   C16S12306   5.868   1.448   8.995 -0.1555  0.2801  0.1771
  117OSM   H16S12307   5.838   1.554   8.978 -0.7640  0.0957  0.1066
  117OSM   H16T12308   5.774   1.392   8.978 -1.2803  1.6291  1.7625
  117OSM   C17S12309   5.977   1.408   8.899 -1.5518 -0.3208 -0.0010
  117OSM   H17S12310   6.002   1.300   8.914 -2.7715 -0.8137 -1.3987
  117OSM   H17T12311   6.066   1.465   8.932 -0.5070 -2.0678  0.2990
  117OSM   C18S12312   5.950   1.447   8.754 -0.2281  0.2299  0.0104
  117OSM   H18S12313   5.855   1.410   8.709 -0.3731 -0.0945  0.5827
  117OSM   H18T12314   6.027   1.416   8.681 -0.4934 -1.6614  0.5126
  117OSM   H18U12315   5.951   1.558   8.760  0.7526  0.1561  1.5053
  117OSM    C1F12316   5.958   1.112  10.457 -0.0619  0.0539 -0.6946
  117OSM     OF12317   5.941   0.996  10.501  0.0342  0.1194 -0.6233
  117OSM    C2F12318   6.091   1.172  10.424 -0.0150 -0.8513 -0.3410
  117OSM    H2F12319   6.172   1.134  10.489 -0.7595 -1.1339  0.4261
  117OSM    H2G12320   6.082   1.283  10.424 -0.3738 -0.8810  0.2062
  117OSM    C3F12321   6.142   1.127  10.286 -0.0035 -0.1495  0.2038
  117OSM    H3F12322   6.142   1.018  10.265  0.4562 -0.0859 -0.1451
  117OSM    H3G12323   6.242   1.177  10.288  0.1010 -0.1942 -2.1120
  117OSM    C4F12324   6.065   1.205  10.171 -0.1578 -1.0657  0.1026
  117OSM    H4F12325   6.079   1.314  10.189  1.7842 -0.9475 -1.8366
  117OSM    H4G12326   5.956   1.191  10.184 -0.2751  0.2932  0.6919
  117OSM    C5F12327   6.116   1.158  10.033  0.3941 -0.6744  0.5700
  117OSM    H5F12328   6.073   1.059  10.008 -0.3352  0.1904 -1.7000
  117OSM    H5G12329   6.225   1.133  10.035  0.1098 -1.8404  2.7578
  117OSM    C6F12330   6.083   1.251   9.916 -0.6756 -0.5454 -0.2899
  117OSM    H6F12331   6.131   1.351   9.922 -0.2236 -0.4797 -3.9999
  117OSM    H6G12332   5.974   1.266   9.900 -0.3853 -0.7830 -2.5699
  117OSM    C7F12333   6.133   1.196   9.781  0.2796  0.6099  0.1929
  117OSM    H7F12334   6.094   1.093   9.777  1.3848  0.1336  1.4040
  117OSM    H7G12335   6.244   1.188   9.781  0.2744  0.1698 -2.0471
  117OSM    C8F12336   6.103   1.267   9.650 -0.2891  0.0235 -0.0149
  117OSM    H8F12337   6.193   1.320   9.612 -2.0093  1.9201 -1.5953
  117OSM    H8G12338   6.033   1.349   9.681 -2.2781 -1.6975  0.1570
  117OSM    C9F12339   6.052   1.173   9.547  0.4769 -0.3332  0.1117
  117OSM    H9F12340   5.942   1.167   9.545  0.2471  3.0775 -1.0454
  117OSM   C10F12341   6.120   1.106   9.453  0.3989 -0.4479 -0.2374
  117OSM   H10F12342   6.069   1.027   9.396 -1.9260 -0.8665  2.2798
  117OSM   C11F12343   6.263   1.107   9.430  0.3831 -0.9903  0.0834
  117OSM   H11F12344   6.301   1.004   9.414 -0.4281 -1.3637  0.5428
  117OSM   H11G12345   6.320   1.138   9.520  0.3139 -4.3190  1.3348
  117OSM   C12F12346   6.312   1.193   9.309 -1.2580 -0.6291  0.3771
  117OSM   H12F12347   6.422   1.204   9.301 -1.3410 -0.3177 -0.3821
  117OSM   H12G12348   6.274   1.295   9.334 -1.7980 -0.5467 -0.7338
  117OSM   C13F12349   6.258   1.145   9.177 -0.0529 -0.1416  0.2857
  117OSM   H13F12350   6.148   1.148   9.191 -0.0071  0.6723  0.5229
  117OSM   H13G12351   6.289   1.041   9.154  0.5263 -0.1217  0.9431
  117OSM   C14F12352   6.309   1.234   9.068 -0.0952  0.1016 -0.4467
  117OSM   H14F12353   6.418   1.243   9.091 -0.0457 -4.9777  1.9095
  117OSM   H14G12354   6.269   1.337   9.083 -2.2431 -1.0570  1.9930
  117OSM   C15F12355   6.296   1.170   8.933  0.7086  0.3360  0.3863
  117OSM   H15F12356   6.190   1.148   8.910  1.0083  0.4754 -1.1756
  117OSM   H15G12357   6.353   1.075   8.932  0.1114 -0.0640  2.3416
  117OSM   C16F12358   6.343   1.260   8.820 -0.2203 -0.0905 -0.3538
  117OSM   H16F12359   6.453   1.272   8.829  0.2867 -1.6049 -3.6055
  117OSM   H16G12360   6.299   1.357   8.849  0.2258 -0.5562  1.9672
  117OSM   C17F12361   6.305   1.224   8.682 -0.2439 -0.3779 -0.3546
  117OSM   H17F12362   6.361   1.298   8.620  1.0748 -1.7532 -0.8473
  117OSM   H17G12363   6.195   1.232   8.671 -0.3024  0.6800  0.9734
  117OSM   C18F12364   6.339   1.082   8.637 -0.4147 -0.0124  0.5918
  117OSM   H18F12365   6.441   1.058   8.674 -0.7302 -0.2985  1.2931
  117OSM   H18G12366   6.356   1.071   8.528  0.3552 -1.8932  0.8788
  117OSM   H18H12367   6.266   1.001   8.659 -0.8003  0.1742  0.0125
  118OSM      N12368   6.044   2.587  11.374 -0.0631  0.0363 -0.0174
  118OSM    C1512369   5.973   2.541  11.493  0.2606 -0.4189 -0.0971
  118OSM   H15A12370   6.045   2.501  11.563 -1.1827  0.2993  1.8063
  118OSM   H15B12371   5.902   2.467  11.457 -0.4770 -0.1583  0.7978
  118OSM   H15C12372   5.935   2.626  11.547  0.2172 -1.1407  1.0237
  118OSM    C1412373   6.126   2.707  11.418 -0.0698 -0.2941  0.5568
  118OSM   H14A12374   6.214   2.689  11.478  1.5105 -0.3218 -1.7259
  118OSM   H14B12375   6.056   2.772  11.470  0.5701  1.6957 -1.0182
  118OSM   H14C12376   6.162   2.764  11.334  0.2903  0.7024  1.3733
  118OSM    C1312377   6.125   2.470  11.314 -0.1861  0.4092 -0.5887
  118OSM   H13A12378   6.060   2.391  11.279 -1.4520  0.4083  1.6664
  118OSM   H13B12379   6.187   2.425  11.390 -1.1035 -0.9121 -0.5895
  118OSM   H13C12380   6.182   2.510  11.232 -2.4768  0.2883 -2.2876
  118OSM    C1212381   5.943   2.630  11.271 -0.2059 -0.2199  0.3608
  118OSM   H12A12382   5.863   2.689  11.311 -1.3923 -0.1364 -2.0143
  118OSM   H12B12383   5.893   2.542  11.232  2.5966 -1.7345 -0.0048
  118OSM    C1112384   6.003   2.705  11.148  0.3625 -0.0050  0.0420
  118OSM   H11A12385   5.932   2.707  11.063  0.0374 -0.0693  0.3072
  118OSM   H11B12386   6.092   2.657  11.103  1.8421 -0.9264  3.7830
  118OSM      P12387   5.935   2.958  11.187  0.5033 -0.3388  0.4622
  118OSM    O1312388   5.815   2.920  11.266  0.3903 -0.3772  0.1961
  118OSM    O1412389   6.006   3.080  11.223 -0.2248  0.6060  0.9574
  118OSM    O1112390   5.893   2.971  11.030 -0.0085 -0.1524  0.1746
  118OSM    O1212391   6.037   2.840  11.181  0.3709 -0.3531 -0.2657
  118OSM    C1S12392   5.996   2.975  10.926  0.2803 -0.0314  0.0231
  118OSM    H1S12393   6.061   2.885  10.916 -1.0539 -0.8267 -1.9665
  118OSM    H1T12394   6.068   3.059  10.936  0.2301  0.0366 -0.1938
  118OSM     NF12395   6.050   3.003  10.691  0.4406 -0.0940  0.4490
  118OSM    HNF12396   6.087   3.087  10.652  4.2070 -1.5747  0.6827
  118OSM    C2S12397   5.939   3.003  10.783  0.1891  0.0670  0.2223
  118OSM    H2S12398   5.879   2.916  10.749 -0.9658  0.3934  1.4008
  118OSM    C3S12399   5.851   3.134  10.786  0.6223  0.4088 -0.2608
  118OSM    H3S12400   5.908   3.227  10.768 -1.4330  1.5480 -0.9140
  118OSM     O312401   5.778   3.158  10.905  0.0313 -0.0041 -0.1243
  118OSM    HO312402   5.839   3.114  10.965  1.5399 -0.6492 -2.0781
  118OSM    C4S12403   5.763   3.133  10.662 -1.1583  0.2006 -0.0757
  118OSM    H4S12404   5.817   3.184  10.581 -0.7073  1.0165  0.7256
  118OSM    C5S12405   5.643   3.075  10.644  0.0246  0.6163  0.2271
  118OSM    H5S12406   5.599   3.018  10.728  2.2241 -0.7003  0.5245
  118OSM    C6S12407   5.564   3.071  10.514 -0.3703 -0.3587 -0.6622
  118OSM    H6S12408   5.619   3.133  10.440 -1.3412 -0.0463 -1.1299
  118OSM    H6T12409   5.460   3.105  10.529 -0.3267 -1.0905  1.4216
  118OSM    C7S12410   5.559   2.927  10.446 -0.2248 -1.0519 -0.5745
  118OSM    H7S12411   5.518   2.862  10.526 -2.1662  0.2158 -0.5007
  118OSM    H7T12412   5.666   2.904  10.428  0.0456 -1.1623  1.0958
  118OSM    C8S12413   5.463   2.930  10.328  0.1576 -0.1396  0.7086
  118OSM    H8S12414   5.479   3.022  10.268  0.6493  0.1038  1.1993
  118OSM    H8T12415   5.363   2.935  10.377 -0.1282  1.4137  0.0008
  118OSM    C9S12416   5.456   2.812  10.235  0.4547 -0.7882 -0.7352
  118OSM    H9S12417   5.421   2.719  10.286 -2.1058  0.3720 -0.2909
  118OSM    H9T12418   5.554   2.784  10.191  1.9437  0.7578  1.5146
  118OSM   C10S12419   5.358   2.836  10.120 -0.8539 -0.4957  0.7774
  118OSM   H10S12420   5.255   2.866  10.150 -1.6590 -1.3953 -0.9925
  118OSM   H10T12421   5.334   2.738  10.075 -2.1522  0.2457 -0.1846
  118OSM   C11S12422   5.397   2.936  10.014 -0.4908 -0.2558 -0.6187
  118OSM   H11S12423   5.501   2.931   9.975  0.4604  0.0958  1.8020
  118OSM   H11T12424   5.386   3.036  10.062 -1.5631 -0.7522  0.1916
  118OSM   C12S12425   5.304   2.921   9.893  0.2456  0.7674 -0.3052
  118OSM   H12S12426   5.221   2.992   9.914 -0.5500 -0.5260  1.0496
  118OSM   H12T12427   5.257   2.823   9.871 -0.6478  1.1635 -0.1861
  118OSM   C13S12428   5.380   2.956   9.765 -0.1918  0.4223 -0.4963
  118OSM   H13S12429   5.467   2.891   9.744 -2.1598 -1.9228 -1.6079
  118OSM   H13T12430   5.414   3.062   9.769 -0.9210  0.6451  0.0303
  118OSM   C14S12431   5.294   2.940   9.639  0.2345 -0.4386 -0.0429
  118OSM   H14S12432   5.209   3.011   9.643 -0.0450 -0.7832  0.0603
  118OSM   H14T12433   5.243   2.842   9.636 -1.2698  0.3146  0.3293
  118OSM   C15S12434   5.357   2.949   9.492  0.4161  0.0175  0.4360
  118OSM   H15S12435   5.432   2.868   9.481 -0.9463 -1.2884  0.6822
  118OSM   H15T12436   5.412   3.046   9.489 -0.9890  0.8582  1.3783
  118OSM   C16S12437   5.256   2.946   9.374  0.5935  0.1446 -0.0272
  118OSM   H16S12438   5.207   3.043   9.346  2.1519  0.1216 -3.0447
  118OSM   H16T12439   5.183   2.870   9.407  0.5097  0.0386 -0.4466
  118OSM   C17S12440   5.327   2.897   9.247  0.1855  0.2225  0.0105
  118OSM   H17S12441   5.428   2.852   9.264  0.5801  0.7722 -0.8495
  118OSM   H17T12442   5.343   2.981   9.176  0.4003  2.3316  2.5136
  118OSM   C18S12443   5.256   2.778   9.189 -0.0274 -0.5126 -0.6465
  118OSM   H18S12444   5.321   2.744   9.105 -0.0185 -2.1621  0.0148
  118OSM   H18T12445   5.152   2.800   9.157 -0.8294  1.4831  3.0238
  118OSM   H18U12446   5.257   2.696   9.264 -0.4939  1.0004  1.0368
  118OSM    C1F12447   6.102   2.884  10.646 -0.0024 -0.1163  0.4674
  118OSM     OF12448   6.083   2.774  10.697  0.0955 -0.3491 -0.0135
  118OSM    C2F12449   6.174   2.906  10.515 -0.4384 -0.3541  0.2942
  118OSM    H2F12450   6.278   2.870  10.530  0.1766  1.1089 -0.3309
  118OSM    H2G12451   6.170   3.017  10.511  1.0972 -0.2330  1.8908
  118OSM    C3F12452   6.109   2.833  10.391 -0.1523 -0.6011 -0.0933
  118OSM    H3F12453   5.998   2.844  10.386  0.0904  1.5220 -1.5334
  118OSM    H3G12454   6.126   2.723  10.390  0.2464 -0.5440 -2.3153
  118OSM    C4F12455   6.162   2.897  10.263 -0.6786  0.8431  0.0666
  118OSM    H4F12456   6.273   2.888  10.274 -0.5576  2.1245 -0.0725
  118OSM    H4G12457   6.131   3.002  10.248 -1.0314  0.0922 -5.3165
  118OSM    C5F12458   6.111   2.833  10.134 -0.2577 -0.0648  0.2411
  118OSM    H5F12459   6.000   2.842  10.137 -0.3097 -0.5245 -0.2804
  118OSM    H5G12460   6.135   2.724  10.136 -0.3739 -0.1517 -1.8905
  118OSM    C6F12461   6.180   2.894  10.011  0.2758 -0.0922  0.0891
  118OSM    H6F12462   6.287   2.866  10.009 -0.0102 -1.1985  0.0589
  118OSM    H6G12463   6.174   3.005  10.015 -2.5720 -0.2275  0.7892
  118OSM    C7F12464   6.123   2.851   9.880 -0.6059  0.2444  0.2466
  118OSM    H7F12465   6.016   2.881   9.872 -1.2147 -1.3928  1.7842
  118OSM    H7G12466   6.109   2.741   9.884  2.6468 -0.2215  0.1538
  118OSM    C8F12467   6.213   2.872   9.755 -0.9340 -0.2543 -0.2550
  118OSM    H8F12468   6.314   2.847   9.793 -0.7509  0.9594  0.0623
  118OSM    H8G12469   6.210   2.982   9.740  1.0914 -0.3094 -1.1282
  118OSM    C9F12470   6.163   2.792   9.636 -0.1417  0.0604 -0.2893
  118OSM    H9F12471   6.122   2.694   9.665  1.0785 -0.5040 -0.4421
  118OSM   C10F12472   6.166   2.837   9.509 -0.3600 -0.1304 -0.0553
  118OSM   H10F12473   6.132   2.770   9.429 -1.0919  1.4517 -1.0668
  118OSM   C11F12474   6.233   2.963   9.464  0.1874  0.8773 -0.7681
  118OSM   H11F12475   6.321   2.987   9.529 -0.2376 -1.6938  0.8293
  118OSM   H11G12476   6.158   3.042   9.482  0.1359  0.5557  0.4864
  118OSM   C12F12477   6.303   2.978   9.328 -0.0877 -0.3794  0.6285
  118OSM   H12F12478   6.367   2.892   9.301  0.0447  0.6557 -2.5791
  118OSM   H12G12479   6.376   3.061   9.340 -1.3663  1.1135 -1.5648
  118OSM   C13F12480   6.216   3.008   9.209 -0.2577 -0.3832 -0.4770
  118OSM   H13F12481   6.155   3.094   9.245  0.0519 -0.8705  1.2184
  118OSM   H13G12482   6.149   2.922   9.182  0.6663 -1.6484  1.2013
  118OSM   C14F12483   6.298   3.064   9.090  0.4499 -0.8090  0.4645
  118OSM   H14F12484   6.377   2.993   9.057  0.9535 -0.2704  0.4957
  118OSM   H14G12485   6.343   3.156   9.132  0.9989  0.0449 -1.9036
  118OSM   C15F12486   6.210   3.121   8.979  0.8614  0.5363 -0.1429
  118OSM   H15F12487   6.158   3.211   9.018  0.7691  0.5141 -0.2132
  118OSM   H15G12488   6.129   3.054   8.942  0.5712  0.0251  1.4081
  118OSM   C16F12489   6.291   3.165   8.861  0.4770  0.5528 -0.7793
  118OSM   H16F12490   6.385   3.219   8.887  1.3585 -0.4898 -1.7121
  118OSM   H16G12491   6.223   3.224   8.796 -0.3433  0.5727  0.1036
  118OSM   C17F12492   6.333   3.039   8.779 -0.1034 -0.7242 -0.0732
  118OSM   H17F12493   6.248   2.973   8.750 -0.6722 -0.3944  0.8211
  118OSM   H17G12494   6.396   2.976   8.845  1.4646  0.7363 -0.1299
  118OSM   C18F12495   6.409   3.078   8.652 -0.9122  0.0974  0.5668
  118OSM   H18F12496   6.342   3.094   8.564 -0.2321  0.9727  0.1914
  118OSM   H18G12497   6.483   3.003   8.616 -1.0899  0.9512 -1.7062
  118OSM   H18H12498   6.464   3.175   8.659 -0.8411  0.0924  0.1112
  119OSM      N12499   6.747   1.770  11.219 -0.3007 -0.1386 -0.0184
  119OSM    C1512500   6.649   1.848  11.298  0.3111  0.3434  0.5086
  119OSM   H15A12501   6.675   1.832  11.401  1.3412 -0.6439  0.1065
  119OSM   H15B12502   6.547   1.816  11.284  0.2161  0.9494 -0.2496
  119OSM   H15C12503   6.658   1.952  11.269 -1.3728 -0.1249 -1.8568
  119OSM    C1412504   6.883   1.833  11.229  0.0743  0.1002  0.0964
  119OSM   H14A12505   6.884   1.926  11.174 -0.1271  0.4259  0.6401
  119OSM   H14B12506   6.948   1.766  11.175  0.2769  0.3860 -0.0184
  119OSM   H14C12507   6.922   1.843  11.330  2.8098  1.1776 -1.0140
  119OSM    C1312508   6.753   1.629  11.264 -0.3869  0.3997 -0.1242
  119OSM   H13A12509   6.778   1.603  11.366  0.4548  0.1230 -0.3961
  119OSM   H13B12510   6.838   1.590  11.209  1.2752  0.7292  2.0893
  119OSM   H13C12511   6.672   1.568  11.227 -0.0047 -1.3045  1.7202
  119OSM    C1212512   6.708   1.773  11.066  0.5442 -0.5473 -1.2047
  119OSM   H12A12513   6.693   1.871  11.022  2.3747  0.2510 -0.0697
  119OSM   H12B12514   6.610   1.728  11.059 -0.3335  1.4816 -2.4330
  119OSM    C1112515   6.805   1.700  10.970  0.3178  0.4141  0.5370
  119OSM   H11A12516   6.894   1.764  10.954  0.8558 -0.3784  0.3152
  119OSM   H11B12517   6.762   1.710  10.868  0.9090 -1.4060  0.0849
  119OSM      P12518   6.952   1.495  10.914  0.0204 -0.1270 -0.0348
  119OSM    O1312519   7.081   1.559  10.924  0.6507  0.3544  0.4831
  119OSM    O1412520   6.953   1.353  10.945  0.3580  0.0050 -0.1699
  119OSM    O1112521   6.891   1.522  10.767 -0.6208 -0.0666  0.5502
  119OSM    O1212522   6.842   1.568  11.004 -0.9518 -0.0478  0.0689
  119OSM    C1S12523   6.767   1.467  10.723 -0.3909  0.1361 -0.1514
  119OSM    H1S12524   6.681   1.528  10.756  0.1866  0.6134  0.4720
  119OSM    H1T12525   6.746   1.365  10.764 -2.2698 -0.2599 -2.0167
  119OSM     NF12526   6.618   1.426  10.529 -0.1922 -0.4386 -0.1292
  119OSM    HNF12527   6.595   1.329  10.539 -4.0310  0.4924  0.7263
  119OSM    C2S12528   6.759   1.451  10.565 -0.5841 -0.2493  0.0471
  119OSM    H2S12529   6.787   1.551  10.525 -3.5216  1.1069  1.2510
  119OSM    C3S12530   6.863   1.338  10.516  0.5208 -0.5022  1.1479
  119OSM    H3S12531   6.833   1.236  10.550  0.0853 -0.2427  1.5524
  119OSM     O312532   6.992   1.362  10.567 -0.4485  0.1032  0.1026
  119OSM    HO312533   6.996   1.430  10.634  0.9686  1.8208 -1.6831
  119OSM    C4S12534   6.869   1.356  10.367 -0.0201  0.9961 -0.4765
  119OSM    H4S12535   6.892   1.458  10.336  1.0439  1.2542  1.0753
  119OSM    C5S12536   6.853   1.258  10.276  0.4782  0.6919 -0.3215
  119OSM    H5S12537   6.837   1.152  10.301 -0.8390  0.8930 -0.2372
  119OSM    C6S12538   6.863   1.276  10.126  0.0933  0.5764  0.1547
  119OSM    H6S12539   6.758   1.278  10.090  0.2573  1.6164 -0.2894
  119OSM    H6T12540   6.909   1.181  10.090 -1.7916  0.1813 -1.3143
  119OSM    C7S12541   6.929   1.403  10.064  0.2134  0.5594  0.2027
  119OSM    H7S12542   7.026   1.416  10.116 -0.2144  2.8487  0.4871
  119OSM    H7T12543   6.855   1.486  10.076  0.8055  1.4924 -2.3103
  119OSM    C8S12544   6.954   1.397   9.915 -0.1308  0.9583  0.4147
  119OSM    H8S12545   7.042   1.334   9.891 -1.0923 -0.4977  0.6517
  119OSM    H8T12546   6.980   1.502   9.889  0.7362  0.2259 -1.6944
  119OSM    C9S12547   6.836   1.358   9.829  0.5419 -0.0039  0.2477
  119OSM    H9S12548   6.752   1.418   9.870 -0.9927 -1.5058 -0.6683
  119OSM    H9T12549   6.816   1.249   9.839 -0.1923 -0.1682 -2.7801
  119OSM   C10S12550   6.854   1.387   9.681 -0.0141 -0.2040 -0.1750
  119OSM   H10S12551   6.848   1.498   9.688  1.6573 -0.2185  1.8131
  119OSM   H10T12552   6.760   1.347   9.637 -1.5549  3.3220 -0.2838
  119OSM   C11S12553   6.983   1.333   9.622 -1.2983 -0.2318  0.4717
  119OSM   H11S12554   6.980   1.228   9.659  1.7230 -0.4948  0.1431
  119OSM   H11T12555   7.077   1.378   9.663  0.0239 -1.1370 -1.4890
  119OSM   C12S12556   6.978   1.340   9.470 -0.2355 -0.0639  0.3228
  119OSM   H12S12557   6.997   1.443   9.435  0.7653 -0.9133 -1.6879
  119OSM   H12T12558   6.875   1.323   9.431 -1.1621  1.1491  2.1548
  119OSM   C13S12559   7.066   1.245   9.388  0.1146 -0.9892 -0.5975
  119OSM   H13S12560   7.022   1.144   9.403  1.5927 -1.4848  0.5506
  119OSM   H13T12561   7.171   1.248   9.423 -0.8924 -0.7079  2.5158
  119OSM   C14S12562   7.065   1.276   9.238 -0.1696  0.4634 -0.3870
  119OSM   H14S12563   7.121   1.371   9.230 -1.0139  0.9737 -0.2917
  119OSM   H14T12564   6.969   1.293   9.186 -0.2241 -1.3056 -0.9104
  119OSM   C15S12565   7.156   1.179   9.156  0.1419 -0.9393 -0.2728
  119OSM   H15S12566   7.122   1.075   9.178 -2.3612  0.1678  1.3517
  119OSM   H15T12567   7.261   1.180   9.192  0.2413  1.5104 -0.5575
  119OSM   C16S12568   7.142   1.200   9.010  0.2273  0.0959  0.7866
  119OSM   H16S12569   7.038   1.220   8.978  0.4027  2.1784  1.4370
  119OSM   H16T12570   7.165   1.107   8.954  0.7098  0.8992 -0.3693
  119OSM   C17S12571   7.226   1.305   8.954  0.9994 -0.6180  0.4827
  119OSM   H17S12572   7.333   1.300   8.981  0.8118  0.6139  1.4845
  119OSM   H17T12573   7.195   1.406   8.989 -1.3711 -1.7316  1.6682
  119OSM   C18S12574   7.212   1.300   8.798 -0.2089 -0.3657  0.6387
  119OSM   H18S12575   7.285   1.370   8.752  2.4627 -3.1457  0.5085
  119OSM   H18T12576   7.108   1.316   8.763  0.3232  0.6505 -0.5282
  119OSM   H18U12577   7.248   1.199   8.769 -2.4809 -0.9712 -0.1826
  119OSM    C1F12578   6.520   1.506  10.522 -0.0589  0.2653  0.2695
  119OSM     OF12579   6.542   1.625  10.539  0.2742 -0.5861 -0.6376
  119OSM    C2F12580   6.392   1.449  10.481  0.5267 -0.7468 -1.1605
  119OSM    H2F12581   6.335   1.418  10.571 -2.3213  1.3831 -2.1393
  119OSM    H2G12582   6.402   1.351  10.430  1.3291 -1.1862 -0.1867
  119OSM    C3F12583   6.302   1.540  10.392  0.5800  0.2453 -0.3444
  119OSM    H3F12584   6.276   1.635  10.445  0.7101  1.1141 -1.7999
  119OSM    H3G12585   6.205   1.491  10.370  0.2987  0.7697 -0.2944
  119OSM    C4F12586   6.371   1.587  10.263 -0.3711 -0.2728 -0.9384
  119OSM    H4F12587   6.461   1.641  10.298 -1.4447  1.1896 -0.3907
  119OSM    H4G12588   6.307   1.663  10.213 -1.6655 -1.1149 -0.5777
  119OSM    C5F12589   6.396   1.477  10.163 -0.0438 -0.0077 -0.5130
  119OSM    H5F12590   6.322   1.395  10.174 -1.4737  0.9656 -2.6651
  119OSM    H5G12591   6.485   1.427  10.208  0.2246  1.7333  0.9359
  119OSM    C6F12592   6.407   1.528  10.022 -0.9707  0.8298  0.9063
  119OSM    H6F12593   6.483   1.609  10.009  2.6079 -2.7094 -1.5204
  119OSM    H6G12594   6.306   1.573  10.014 -1.5985 -0.6253  0.6040
  119OSM    C7F12595   6.424   1.417   9.919  0.1478 -0.5498 -0.4216
  119OSM    H7F12596   6.347   1.340   9.937  1.3149 -1.5883  0.2231
  119OSM    H7G12597   6.523   1.368   9.933 -0.0790 -0.9788 -0.3431
  119OSM    C8F12598   6.403   1.469   9.777 -0.4030  0.7037 -0.3290
  119OSM    H8F12599   6.313   1.533   9.783  0.0114  1.0412  2.9728
  119OSM    H8G12600   6.393   1.390   9.699  2.1923  1.5859 -1.6117
  119OSM    C9F12601   6.525   1.548   9.735 -0.9196 -0.3026 -0.1711
  119OSM    H9F12602   6.604   1.562   9.811 -1.2434 -0.2939  0.1671
  119OSM   C10F12603   6.543   1.604   9.610 -0.8973  0.8346  0.7610
  119OSM   H10F12604   6.625   1.673   9.585 -1.8877  1.8209  0.2087
  119OSM   C11F12605   6.444   1.589   9.494  0.1164 -0.1670 -0.6238
  119OSM   H11F12606   6.438   1.688   9.444  0.5183 -1.1307 -2.6213
  119OSM   H11G12607   6.340   1.568   9.527  0.2433 -0.8114 -0.6231
  119OSM   C12F12608   6.486   1.495   9.378 -0.1855 -0.3492 -0.0186
  119OSM   H12F12609   6.390   1.460   9.335 -1.5269 -0.0007  2.5874
  119OSM   H12G12610   6.536   1.399   9.402 -0.3134 -0.0667  1.4308
  119OSM   C13F12611   6.567   1.557   9.268 -0.2880  0.4397 -1.1027
  119OSM   H13F12612   6.668   1.576   9.312  0.5979 -0.5591 -2.6662
  119OSM   H13G12613   6.532   1.656   9.234  0.6728  1.2260  0.1341
  119OSM   C14F12614   6.589   1.465   9.145  0.0554  0.5332 -0.5537
  119OSM   H14F12615   6.498   1.460   9.082 -0.4618  0.7313  0.1750
  119OSM   H14G12616   6.624   1.367   9.184 -0.8594 -0.1485 -1.4255
  119OSM   C15F12617   6.706   1.518   9.051 -0.1390 -0.3682  0.9772
  119OSM   H15F12618   6.804   1.513   9.104 -0.0024 -2.5729  0.5465
  119OSM   H15G12619   6.684   1.627   9.042  0.1282 -0.1588  2.6866
  119OSM   C16F12620   6.712   1.461   8.913 -0.2438  0.7445  0.5658
  119OSM   H16F12621   6.620   1.486   8.856  0.6268 -0.8083 -1.5929
  119OSM   H16G12622   6.704   1.350   8.918  0.1195  0.7502  1.4381
  119OSM   C17F12623   6.828   1.515   8.831 -0.3476 -0.0389 -0.1441
  119OSM   H17F12624   6.927   1.490   8.875 -0.7786  0.6118  1.2518
  119OSM   H17G12625   6.811   1.625   8.829  0.6548  0.1269 -0.0162
  119OSM   C18F12626   6.829   1.471   8.683  0.2512 -0.3342 -0.7628
  119OSM   H18F12627   6.851   1.363   8.677  2.1601  0.0322 -0.5713
  119OSM   H18G12628   6.895   1.544   8.631 -1.0589  0.3610 -1.4778
  119OSM   H18H12629   6.724   1.477   8.645  0.0552 -1.7194 -0.4433
  120OSM      N12630   6.494   5.929  10.659 -0.1511 -0.1498 -0.3572
  120OSM    C1512631   6.416   6.056  10.664 -0.4833  0.7831  0.2465
  120OSM   H15A12632   6.455   6.123  10.590  0.9910 -1.1897 -0.8183
  120OSM   H15B12633   6.427   6.101  10.762  1.9616  1.4770 -0.3034
  120OSM   H15C12634   6.313   6.039  10.638 -0.6279 -2.5470  2.7029
  120OSM    C1412635   6.636   5.981  10.681  0.3267 -0.3138  0.0794
  120OSM   H14A12636   6.637   6.083  10.645 -1.8838 -1.1176 -2.3697
  120OSM   H14B12637   6.701   5.922  10.617 -1.7115 -0.7789 -1.6056
  120OSM   H14C12638   6.655   5.979  10.787  0.9111 -0.2153 -0.0221
  120OSM    C1312639   6.446   5.843  10.773  0.2511  0.2993 -0.3793
  120OSM   H13A12640   6.349   5.806  10.741 -0.1882 -0.4249  1.6923
  120OSM   H13B12641   6.425   5.897  10.864  0.2971 -0.3044 -0.0094
  120OSM   H13C12642   6.516   5.763  10.792  1.5108  1.6180  0.6195
  120OSM    C1212643   6.478   5.864  10.527 -0.0738  0.2382  0.6006
  120OSM   H12A12644   6.551   5.785  10.516 -0.5213  0.0180 -0.9063
  120OSM   H12B12645   6.515   5.936  10.455  0.7804 -0.9495 -0.1704
  120OSM    C1112646   6.342   5.814  10.486 -0.4770 -0.3752 -0.1354
  120OSM   H11A12647   6.331   5.795  10.377  0.4673  2.2979 -0.7441
  120OSM   H11B12648   6.283   5.906  10.505 -0.8887 -0.1172 -2.4269
  120OSM      P12649   6.347   5.563  10.551  0.1370  0.0264 -0.1188
  120OSM    O1312650   6.466   5.541  10.632  0.1398 -0.3518  0.5257
  120OSM    O1412651   6.232   5.470  10.574 -0.7309  0.1765 -0.7434
  120OSM    O1112652   6.396   5.558  10.398 -0.1002 -0.5201  0.0833
  120OSM    O1212653   6.299   5.711  10.566 -0.1616 -0.0228  0.2984
  120OSM    C1S12654   6.296   5.522  10.304 -0.6937  0.1878  0.2517
  120OSM    H1S12655   6.223   5.606  10.295 -0.2230  0.4380 -1.4633
  120OSM    H1T12656   6.246   5.427  10.334  1.4141 -0.7299  0.9631
  120OSM     NF12657   6.256   5.471  10.073  0.0498 -0.6147 -0.1240
  120OSM    HNF12658   6.234   5.374  10.061  0.3258 -0.5666 -1.0261
  120OSM    C2S12659   6.361   5.492  10.168  0.0931  0.3772 -0.1588
  120OSM    H2S12660   6.419   5.582  10.140 -0.1040 -0.2308 -2.6149
  120OSM    C3S12661   6.458   5.373  10.184 -0.3380  0.1607  0.1490
  120OSM    H3S12662   6.396   5.294  10.231 -0.8213 -1.3546 -2.9540
  120OSM     O312663   6.573   5.397  10.263  0.5381  0.2476 -0.3060
  120OSM    HO312664   6.544   5.468  10.321 -1.7734  2.2080 -3.6423
  120OSM    C4S12665   6.513   5.333  10.052  0.4664  0.8154 -0.6168
  120OSM    H4S12666   6.591   5.401  10.015  2.6740 -0.6926  1.1333
  120OSM    C5S12667   6.501   5.210  10.004 -0.5386  0.6413  0.4441
  120OSM    H5S12668   6.461   5.126  10.064  1.0518  0.2296  0.9559
  120OSM    C6S12669   6.575   5.177   9.877 -0.7365  0.0239 -0.7169
  120OSM    H6S12670   6.577   5.068   9.856  2.1063  0.0848 -0.9502
  120OSM    H6T12671   6.682   5.203   9.890 -0.5074 -1.4611  0.5441
  120OSM    C7S12672   6.514   5.247   9.756 -0.3813  0.7442 -0.8113
  120OSM    H7S12673   6.561   5.208   9.664  2.4290  1.3205  0.3271
  120OSM    H7T12674   6.535   5.356   9.755 -1.0637  0.9612  1.9940
  120OSM    C8S12675   6.360   5.227   9.745 -0.2515 -0.1332 -0.0878
  120OSM    H8S12676   6.310   5.290   9.821 -0.1874 -0.3863  0.1637
  120OSM    H8T12677   6.355   5.123   9.783  0.4131  0.0334  0.4613
  120OSM    C9S12678   6.287   5.257   9.617  0.2112 -0.2705  0.0886
  120OSM    H9S12679   6.309   5.352   9.563  1.5010 -1.4552 -1.5086
  120OSM    H9T12680   6.178   5.245   9.633  0.1808  0.6106  0.6084
  120OSM   C10S12681   6.324   5.146   9.518  0.4445 -0.0665 -0.0132
  120OSM   H10S12682   6.297   5.047   9.560 -0.3632  0.8372  1.6769
  120OSM   H10T12683   6.434   5.146   9.503  0.1301  1.1443 -2.5091
  120OSM   C11S12684   6.243   5.163   9.386  0.3481 -0.4076  0.1992
  120OSM   H11S12685   6.257   5.266   9.349  0.3447 -0.3608  0.3276
  120OSM   H11T12686   6.137   5.144   9.414  0.0839  1.5716  0.5872
  120OSM   C12S12687   6.285   5.054   9.280  0.5532 -0.0204 -0.5767
  120OSM   H12S12688   6.283   4.958   9.335  2.8524  0.1813 -0.0918
  120OSM   H12T12689   6.390   5.084   9.262 -0.0324  1.6861 -1.2923
  120OSM   C13S12690   6.202   5.053   9.154  1.1089 -0.3726  0.1919
  120OSM   H13S12691   6.211   5.161   9.126 -1.9868  0.9987  3.9953
  120OSM   H13T12692   6.097   5.029   9.179  1.2101 -2.5974 -1.4441
  120OSM   C14S12693   6.244   4.948   9.053  0.4524 -0.3128 -0.1022
  120OSM   H14S12694   6.224   4.848   9.095  0.1543  0.1592  0.9054
  120OSM   H14T12695   6.354   4.951   9.034  0.3550 -0.1447 -0.6471
  120OSM   C15S12696   6.168   4.961   8.915  0.5035 -0.2245  0.5307
  120OSM   H15S12697   6.061   4.953   8.943 -0.1273  0.0908 -1.6385
  120OSM   H15T12698   6.185   4.863   8.864 -3.8485 -0.5648 -0.4875
  120OSM   C16S12699   6.189   5.080   8.819 -0.3525 -0.2647  0.1026
  120OSM   H16S12700   6.285   5.072   8.765 -0.4188  2.0980 -0.4205
  120OSM   H16T12701   6.194   5.172   8.881 -0.4736 -0.3150  0.1877
  120OSM   C17S12702   6.079   5.104   8.718  1.1736  0.0320 -0.5114
  120OSM   H17S12703   6.106   5.193   8.658  1.3955  0.2446 -0.0960
  120OSM   H17T12704   5.990   5.130   8.779  2.7154  2.6582  0.6936
  120OSM   C18S12705   6.036   4.986   8.636  0.0166 -0.7556 -0.0355
  120OSM   H18S12706   5.970   5.021   8.555 -0.0253 -2.9673 -0.9725
  120OSM   H18T12707   5.988   4.914   8.706 -1.1684  0.7554  0.7231
  120OSM   H18U12708   6.125   4.946   8.583  0.9015 -0.5498  1.2509
  120OSM    C1F12709   6.182   5.576  10.034 -0.1693 -0.5245 -0.6273
  120OSM     OF12710   6.210   5.690  10.074  0.3712  0.7146 -0.4482
  120OSM    C2F12711   6.061   5.549   9.954 -0.3489 -0.4542 -0.0342
  120OSM    H2F12712   5.974   5.564  10.021  0.2168  0.6129  0.4752
  120OSM    H2G12713   6.071   5.444   9.918  2.3159  0.4380 -2.0269
  120OSM    C3F12714   6.035   5.650   9.845 -0.2576  0.3155  0.5104
  120OSM    H3F12715   6.007   5.750   9.884 -1.8878  0.7246 -1.6178
  120OSM    H3G12716   5.939   5.623   9.797  0.3415 -2.5261  0.8335
  120OSM    C4F12717   6.158   5.646   9.749  0.6799  0.2139 -0.0191
  120OSM    H4F12718   6.179   5.539   9.728 -1.6929 -0.3910  0.5886
  120OSM    H4G12719   6.245   5.692   9.800  1.1628 -1.1787  0.4427
  120OSM    C5F12720   6.130   5.732   9.620 -0.3762  0.9684 -0.1316
  120OSM    H5F12721   6.091   5.830   9.654  0.3322  1.1292  0.2422
  120OSM    H5G12722   6.052   5.677   9.565 -1.4356  0.2991  1.9734
  120OSM    C6F12723   6.248   5.750   9.525 -0.7143 -0.4322  0.0640
  120OSM    H6F12724   6.321   5.820   9.571  0.5310 -0.9677 -1.0643
  120OSM    H6G12725   6.208   5.805   9.437 -0.2360  2.5009  1.6331
  120OSM    C7F12726   6.327   5.623   9.491 -0.1376 -1.1680 -0.0926
  120OSM    H7F12727   6.261   5.535   9.476 -0.4603 -0.8144 -0.7656
  120OSM    H7G12728   6.398   5.597   9.571  1.3602 -0.1243 -1.0641
  120OSM    C8F12729   6.412   5.643   9.356 -0.5294 -0.2420  0.3270
  120OSM    H8F12730   6.338   5.691   9.287 -0.7560  1.9405  2.0058
  120OSM    H8G12731   6.426   5.547   9.302 -2.7904  0.4154 -1.5401
  120OSM    C9F12732   6.536   5.725   9.366  0.7434  0.0536 -0.0453
  120OSM    H9F12733   6.610   5.677   9.431  1.4978  1.6823  0.3188
  120OSM   C10F12734   6.564   5.850   9.326 -0.4272 -0.1640  0.5523
  120OSM   H10F12735   6.666   5.882   9.349 -0.2049 -0.4726 -0.0125
  120OSM   C11F12736   6.473   5.955   9.264  0.4493  0.5693  0.2754
  120OSM   H11F12737   6.519   6.053   9.292  1.6797 -0.2077  1.0645
  120OSM   H11G12738   6.368   5.954   9.298  0.4966 -2.4915  0.4394
  120OSM   C12F12739   6.475   5.927   9.116  0.3244  0.1382  0.5698
  120OSM   H12F12740   6.435   5.827   9.088 -0.0265 -0.3586  2.7677
  120OSM   H12G12741   6.579   5.948   9.085  1.9691 -2.4609  4.0843
  120OSM   C13F12742   6.376   6.029   9.048  0.4414 -0.6147  0.3837
  120OSM   H13F12743   6.390   6.131   9.090  2.0371 -0.8049  0.3454
  120OSM   H13G12744   6.270   6.000   9.064  0.1053 -0.2940 -1.2575
  120OSM   C14F12745   6.413   6.044   8.895 -0.4595 -0.5235 -0.3883
  120OSM   H14F12746   6.519   6.047   8.862 -1.7577 -0.2376 -4.9138
  120OSM   H14G12747   6.355   6.137   8.874 -0.6668 -0.1092  1.8614
  120OSM   C15F12748   6.357   5.939   8.800  0.6238  0.2295  0.1553
  120OSM   H15F12749   6.250   5.910   8.808  0.1773  0.4145 -3.9427
  120OSM   H15G12750   6.420   5.847   8.795 -0.1552 -0.2756 -0.5440
  120OSM   C16F12751   6.346   5.988   8.653 -0.0255 -0.4098 -0.4425
  120OSM   H16F12752   6.450   6.016   8.624 -0.5301  2.3319  0.1940
  120OSM   H16G12753   6.290   6.084   8.659 -2.1708 -1.5466 -1.6180
  120OSM   C17F12754   6.284   5.890   8.555  0.2911 -0.0680 -0.0339
  120OSM   H17F12755   6.176   5.872   8.569  0.3344 -2.7564 -2.5827
  120OSM   H17G12756   6.333   5.791   8.568  0.6780  0.0341 -0.6935
  120OSM   C18F12757   6.290   5.943   8.408 -0.3675  0.1139 -0.3725
  120OSM   H18F12758   6.218   6.025   8.391 -2.4932 -0.9274  3.0737
  120OSM   H18G12759   6.280   5.867   8.327 -2.0076  0.7801 -0.8066
  120OSM   H18H12760   6.395   5.977   8.392 -1.3595  2.7759 -1.4159
  121OSM      N12761   4.679   1.428  10.935 -0.5680  0.1496  0.5648
  121OSM    C1512762   4.548   1.362  10.951  0.2934 -0.2247  0.4251
  121OSM   H15A12763   4.533   1.276  10.887  0.7175  1.2128 -1.6447
  121OSM   H15B12764   4.467   1.430  10.931 -0.7364 -1.1748  1.2796
  121OSM   H15C12765   4.533   1.319  11.049 -0.1640  0.1993  0.5430
  121OSM    C1412766   4.779   1.318  10.952  0.1315 -0.0412 -0.1331
  121OSM   H14A12767   4.751   1.249  10.874  0.7423  0.8827 -1.1971
  121OSM   H14B12768   4.776   1.282  11.054 -0.7299  0.6156  0.0794
  121OSM   H14C12769   4.879   1.356  10.936  0.1507  1.1508  2.5475
  121OSM    C1312770   4.686   1.466  10.789  0.4212  0.2336 -0.3417
  121OSM   H13A12771   4.699   1.377  10.731 -2.4201  0.2733 -1.1135
  121OSM   H13B12772   4.769   1.529  10.762  0.5535 -0.3987 -1.4044
  121OSM   H13C12773   4.595   1.516  10.759  0.4547  1.7940  2.0311
  121OSM    C1212774   4.692   1.546  11.036  0.2378  0.0203 -0.8827
  121OSM   H12A12775   4.698   1.491  11.129  0.8062 -1.6081 -1.8808
  121OSM   H12B12776   4.601   1.605  11.035  0.5917  0.7573  2.4092
  121OSM    C1112777   4.815   1.640  11.024 -0.0487  0.0884  0.6096
  121OSM   H11A12778   4.806   1.708  11.111  1.4175  1.3033 -0.1630
  121OSM   H11B12779   4.806   1.699  10.930  1.2821 -2.6782 -1.3144
  121OSM      P12780   5.078   1.632  11.047  0.0203  0.0146 -0.0951
  121OSM    O1312781   5.074   1.758  11.126  0.2062  0.1200 -0.4627
  121OSM    O1412782   5.164   1.523  11.094 -0.2097  0.3729  0.1939
  121OSM    O1112783   5.134   1.656  10.896 -0.0146  0.3366 -1.0707
  121OSM    O1212784   4.939   1.568  11.029  0.3233 -0.0398 -0.4561
  121OSM    C1S12785   5.153   1.532  10.828 -0.1953 -0.0612  0.5584
  121OSM    H1S12786   5.054   1.482  10.821 -0.1495 -0.0848  0.0815
  121OSM    H1T12787   5.228   1.462  10.871  0.2315 -0.7008 -1.2172
  121OSM     NF12788   5.237   1.410  10.632  0.1154 -0.1205  0.1965
  121OSM    HNF12789   5.330   1.381  10.650  0.7132  1.1150 -0.8345
  121OSM    C2S12790   5.210   1.540  10.684 -0.7964  0.4748  0.1281
  121OSM    H2S12791   5.136   1.591  10.618  0.2909  0.4208 -1.1425
  121OSM    C3S12792   5.339   1.625  10.683 -0.3964 -0.1592 -0.4010
  121OSM    H3S12793   5.426   1.557  10.697 -1.3699 -1.4372 -0.5106
  121OSM     O312794   5.342   1.742  10.764  0.2315 -0.0337 -0.6184
  121OSM    HO312795   5.272   1.733  10.829  1.2855 -0.4581  0.4753
  121OSM    C4S12796   5.361   1.670  10.538 -0.4468 -0.2120  0.4306
  121OSM    H4S12797   5.285   1.747  10.518 -1.7636 -1.1563  1.7004
  121OSM    C5S12798   5.443   1.617  10.441  0.4236 -0.0697 -0.0053
  121OSM    H5S12799   5.518   1.536  10.452 -0.5583 -1.0789 -0.5764
  121OSM    C6S12800   5.445   1.671  10.304 -0.2950 -0.2654 -0.0865
  121OSM    H6S12801   5.375   1.614  10.239  1.4515 -0.3008 -1.9937
  121OSM    H6T12802   5.550   1.664  10.268 -0.7435 -0.5177 -1.3774
  121OSM    C7S12803   5.391   1.824  10.288  0.4965  0.2262 -0.2601
  121OSM    H7S12804   5.450   1.892  10.352 -0.6136  0.3789  0.6230
  121OSM    H7T12805   5.285   1.824  10.320  1.1178  0.0588  1.8748
  121OSM    C8S12806   5.402   1.883  10.147  0.2590  0.6038 -0.1426
  121OSM    H8S12807   5.389   1.994  10.149  0.2173  0.5880  0.6028
  121OSM    H8T12808   5.311   1.851  10.092 -0.1727  0.0252  0.8883
  121OSM    C9S12809   5.516   1.841  10.059 -0.1156  0.2965  0.3566
  121OSM    H9S12810   5.509   1.731  10.046 -0.9976  0.4160 -0.2215
  121OSM    H9T12811   5.608   1.862  10.119  0.4453 -1.4188  0.1163
  121OSM   C10S12812   5.517   1.915   9.928  0.3798 -0.2208  0.1427
  121OSM   H10S12813   5.620   1.926   9.887 -0.1379  0.8226 -0.9177
  121OSM   H10T12814   5.477   2.018   9.942  0.6702  0.1180 -1.4300
  121OSM   C11S12815   5.435   1.857   9.810 -0.0749  0.2645 -0.0557
  121OSM   H11S12816   5.416   1.946   9.746  1.1582 -0.2973 -1.2484
  121OSM   H11T12817   5.336   1.815   9.839 -0.0165 -0.7899 -1.2981
  121OSM   C12S12818   5.501   1.744   9.725  0.0935 -0.0332  0.2349
  121OSM   H12S12819   5.434   1.703   9.647  0.2269  2.4760 -1.2611
  121OSM   H12T12820   5.520   1.655   9.788 -1.1577 -0.2654  0.2807
  121OSM   C13S12821   5.632   1.775   9.648  0.3801  0.4820 -0.5879
  121OSM   H13S12822   5.670   1.682   9.601 -0.8184  0.2930 -1.1924
  121OSM   H13T12823   5.713   1.799   9.721  0.3663  0.4015 -0.5454
  121OSM   C14S12824   5.622   1.895   9.559 -0.4496  0.2319 -0.3937
  121OSM   H14S12825   5.724   1.911   9.517 -0.3796  0.7278 -0.0400
  121OSM   H14T12826   5.591   1.984   9.618  1.3426 -0.4436  1.6704
  121OSM   C15S12827   5.524   1.891   9.444 -0.0574  0.6224 -0.0894
  121OSM   H15S12828   5.532   1.988   9.390  1.3856 -0.0019 -1.0454
  121OSM   H15T12829   5.418   1.875   9.471  0.2553 -2.0401 -0.3005
  121OSM   C16S12830   5.553   1.782   9.332 -0.0840 -0.2286  0.1176
  121OSM   H16S12831   5.545   1.688   9.389  2.4060  1.0595  2.7491
  121OSM   H16T12832   5.658   1.804   9.303 -0.8825  1.3206 -1.7126
  121OSM   C17S12833   5.461   1.796   9.210  0.4901 -0.1645  0.1787
  121OSM   H17S12834   5.475   1.898   9.169 -0.6104  1.0004  2.5871
  121OSM   H17T12835   5.355   1.791   9.244 -0.6573  1.5760 -2.9995
  121OSM   C18S12836   5.483   1.694   9.099  0.4249  0.4633  0.9123
  121OSM   H18S12837   5.491   1.591   9.141  0.0312 -0.5370 -1.3362
  121OSM   H18T12838   5.573   1.711   9.037  0.3473  3.2259  1.4983
  121OSM   H18U12839   5.404   1.695   9.020  2.2905 -1.2542 -1.0385
  121OSM    C1F12840   5.144   1.318  10.597  0.0489 -1.0070 -0.2623
  121OSM     OF12841   5.022   1.323  10.620 -0.0302  1.0220  0.5067
  121OSM    C2F12842   5.197   1.192  10.523 -0.6367 -0.7982  0.2279
  121OSM    H2F12843   5.288   1.154  10.573  0.9154  3.1208  0.5998
  121OSM    H2G12844   5.221   1.223  10.419  2.2250 -0.2135  1.0350
  121OSM    C3F12845   5.091   1.077  10.505  0.0220  0.3213  0.3577
  121OSM    H3F12846   4.998   1.124  10.465 -1.4668 -1.8073  1.2151
  121OSM    H3G12847   5.070   1.041  10.608 -2.3079 -1.6410 -0.7385
  121OSM    C4F12848   5.135   0.966  10.415 -0.1099  0.0396 -0.4360
  121OSM    H4F12849   5.051   0.894  10.404 -1.2012  1.2827 -0.3204
  121OSM    H4G12850   5.219   0.910  10.463  0.8857  1.1692 -0.8404
  121OSM    C5F12851   5.169   1.003  10.276 -0.0897 -0.1276  0.3760
  121OSM    H5F12852   5.248   1.082  10.279 -0.2991  0.0997 -0.0274
  121OSM    H5G12853   5.079   1.045  10.228 -1.0523  2.1585  4.0438
  121OSM    C6F12854   5.223   0.883  10.196  0.3621  0.0019  0.0435
  121OSM    H6F12855   5.145   0.804  10.199  0.7204 -0.3263  0.6893
  121OSM    H6G12856   5.320   0.851  10.239 -0.2292  0.4743  1.7670
  121OSM    C7F12857   5.259   0.930  10.052 -0.6751 -0.1998 -0.2568
  121OSM    H7F12858   5.337   1.008  10.066 -0.6448  0.0091 -1.4750
  121OSM    H7G12859   5.169   0.981  10.011 -0.7720  0.2875  0.5648
  121OSM    C8F12860   5.289   0.820   9.952 -0.2994 -0.5395 -0.6376
  121OSM    H8F12861   5.363   0.747   9.993 -0.7576  0.7416  2.5796
  121OSM    H8G12862   5.348   0.868   9.871  2.5753 -0.0921  1.6240
  121OSM    C9F12863   5.185   0.738   9.898 -0.0485  0.2501  0.2289
  121OSM    H9F12864   5.098   0.744   9.964 -0.4499  0.1144 -0.2858
  121OSM   C10F12865   5.183   0.667   9.781  0.3935  0.0730 -0.0289
  121OSM   H10F12866   5.096   0.604   9.760  0.6979 -0.7178  1.0282
  121OSM   C11F12867   5.291   0.657   9.685 -0.9660 -0.1124 -0.2590
  121OSM   H11F12868   5.270   0.575   9.612  3.6839  0.6204 -2.6386
  121OSM   H11G12869   5.386   0.636   9.739 -2.5224 -0.0383  2.5939
  121OSM   C12F12870   5.308   0.786   9.601  0.3657 -0.0973  0.2246
  121OSM   H12F12871   5.379   0.857   9.647  1.1574 -1.6667  1.4817
  121OSM   H12G12872   5.207   0.832   9.592 -0.1548 -1.4572 -1.2117
  121OSM   C13F12873   5.359   0.759   9.452 -0.4159  0.2553 -0.1405
  121OSM   H13F12874   5.303   0.675   9.406  1.7071 -0.8235 -0.8100
  121OSM   H13G12875   5.460   0.714   9.450 -1.3042 -1.6932 -2.3651
  121OSM   C14F12876   5.335   0.890   9.363 -0.6740 -1.2740 -1.0088
  121OSM   H14F12877   5.383   0.976   9.414 -0.2641 -1.5393 -0.9440
  121OSM   H14G12878   5.227   0.910   9.344 -0.2220  0.6041 -1.7037
  121OSM   C15F12879   5.403   0.873   9.219 -0.1843 -0.2451  0.6551
  121OSM   H15F12880   5.505   0.832   9.238  0.3315  0.5373 -0.4345
  121OSM   H15G12881   5.413   0.970   9.166 -1.6685  0.1602  1.0978
  121OSM   C16F12882   5.324   0.765   9.141 -0.8611  1.1383  0.6172
  121OSM   H16F12883   5.217   0.792   9.151 -0.3946  3.3887 -0.2481
  121OSM   H16G12884   5.322   0.666   9.191  0.2819  0.8378  0.0892
  121OSM   C17F12885   5.374   0.749   8.993 -0.5638 -0.5489  0.2457
  121OSM   H17F12886   5.484   0.762   8.989 -0.7824  1.3190 -0.2240
  121OSM   H17G12887   5.328   0.822   8.923  1.4202 -0.1665 -0.6764
  121OSM   C18F12888   5.345   0.607   8.932  0.4983  0.4537  0.2021
  121OSM   H18F12889   5.425   0.574   8.863  0.0622  0.3716 -0.2669
  121OSM   H18G12890   5.254   0.602   8.869  0.6101 -1.0540  0.1506
  121OSM   H18H12891   5.336   0.532   9.014  1.4818 -0.9387 -0.9385
  122OSM      N12892   5.359   6.448  10.823  0.2874 -0.3630  0.1967
  122OSM    C1512893   5.446   6.566  10.802  0.3649  0.4050 -1.0320
  122OSM   H15A12894   5.485   6.607  10.894 -1.3253 -1.1810  0.4434
  122OSM   H15B12895   5.377   6.638  10.759 -0.5623 -0.7414 -1.4687
  122OSM   H15C12896   5.530   6.544  10.739 -0.4746 -0.4376 -1.8561
  122OSM    C1412897   5.435   6.342  10.894 -0.0002 -0.1962 -0.3496
  122OSM   H14A12898   5.376   6.282  10.962  1.6289  0.4161  1.6849
  122OSM   H14B12899   5.499   6.393  10.965 -1.1691  1.7495 -0.6851
  122OSM   H14C12900   5.490   6.292  10.816  0.1019  2.5763 -2.1033
  122OSM    C1312901   5.238   6.491  10.913  0.1279  0.3046 -0.0266
  122OSM   H13A12902   5.159   6.536  10.854 -1.1080 -1.4690  0.2522
  122OSM   H13B12903   5.272   6.549  10.998 -1.9190  0.4648  0.7148
  122OSM   H13C12904   5.192   6.401  10.949  0.6669 -0.0274 -0.1591
  122OSM    C1212905   5.305   6.391  10.700 -0.1035  0.4624  0.5059
  122OSM   H12A12906   5.224   6.450  10.659  0.8138  0.5403 -1.2315
  122OSM   H12B12907   5.277   6.288  10.718  1.2497  0.0834  0.4641
  122OSM    C1112908   5.399   6.376  10.572  0.4376  0.2771  0.7254
  122OSM   H11A12909   5.438   6.477  10.546  0.0938  0.5251  1.1563
  122OSM   H11B12910   5.351   6.355  10.474  0.9589  1.4834  0.2008
  122OSM      P12911   5.658   6.323  10.590  0.0111 -0.1744  0.3816
  122OSM    O1312912   5.677   6.473  10.613  0.2707 -0.6028  0.7294
  122OSM    O1412913   5.735   6.231  10.678  0.1008  0.4243  0.2571
  122OSM    O1112914   5.688   6.293  10.437  0.3998  0.2330 -0.3818
  122OSM    O1212915   5.506   6.288  10.599  0.2471 -0.1485 -0.4391
  122OSM    C1S12916   5.828   6.311  10.403 -0.4070 -0.0725  0.4430
  122OSM    H1S12917   5.897   6.241  10.455 -0.9947  0.1692  1.5677
  122OSM    H1T12918   5.861   6.414  10.430  1.2988 -0.7405  0.9917
  122OSM     NF12919   5.994   6.330  10.219 -0.0494 -0.0093  0.6708
  122OSM    HNF12920   6.030   6.419  10.193 -1.9127  0.6745  0.3487
  122OSM    C2S12921   5.854   6.306  10.247  0.7565  0.1118  0.0553
  122OSM    H2S12922   5.830   6.202  10.215 -0.4750  0.2595  0.4566
  122OSM    C3S12923   5.767   6.409  10.180 -0.7875 -0.3491  0.5016
  122OSM    H3S12924   5.775   6.509  10.227 -1.9218 -0.2501  0.5127
  122OSM     O312925   5.627   6.373  10.186 -0.2963  0.0329  0.2712
  122OSM    HO312926   5.638   6.324  10.268 -0.7603  0.8737  0.8450
  122OSM    C4S12927   5.799   6.425  10.038  0.4136 -0.5242 -0.5319
  122OSM    H4S12928   5.855   6.344   9.989  0.1000  0.1564 -2.0600
  122OSM    C5S12929   5.783   6.536   9.963  0.0525  0.3240  0.3505
  122OSM    H5S12930   5.752   6.628  10.016  1.7509 -0.2493  2.4049
  122OSM    C6S12931   5.819   6.554   9.816  0.0907 -0.8072  0.2108
  122OSM    H6S12932   5.888   6.639   9.798 -1.8407  1.0198  1.1876
  122OSM    H6T12933   5.725   6.570   9.759  0.9829  1.5143 -0.6712
  122OSM    C7S12934   5.892   6.432   9.755 -0.2678 -0.1571  0.1504
  122OSM    H7S12935   5.833   6.340   9.774  2.3248 -2.1147 -0.8393
  122OSM    H7T12936   5.983   6.420   9.819 -0.0575  0.4887 -0.0228
  122OSM    C8S12937   5.946   6.445   9.613 -0.4913 -0.4224  0.7491
  122OSM    H8S12938   5.996   6.351   9.582 -1.2229 -0.6422  0.2237
  122OSM    H8T12939   6.020   6.528   9.610 -0.7195 -0.2552 -0.6796
  122OSM    C9S12940   5.851   6.490   9.503 -1.2769  0.1565 -0.0145
  122OSM    H9S12941   5.807   6.588   9.529 -0.8791 -0.4065  2.9390
  122OSM    H9T12942   5.775   6.409   9.504 -1.5061  0.3769  0.8255
  122OSM   C10S12943   5.917   6.494   9.366  0.1861 -0.4761  0.1638
  122OSM   H10S12944   5.958   6.394   9.340  1.0196  0.0352 -0.5327
  122OSM   H10T12945   6.005   6.562   9.378 -2.1256  2.0513  3.8700
  122OSM   C11S12946   5.821   6.544   9.255  0.1740  0.1403  0.3092
  122OSM   H11S12947   5.787   6.648   9.275  1.0626  0.7141 -1.0843
  122OSM   H11T12948   5.729   6.483   9.263  1.4344 -2.0157 -1.2545
  122OSM   C12S12949   5.881   6.538   9.111 -0.1737  0.0513 -0.2194
  122OSM   H12S12950   5.896   6.435   9.074 -3.2803 -0.3402 -0.5095
  122OSM   H12T12951   5.984   6.580   9.111  1.0522 -2.8362  1.3172
  122OSM   C13S12952   5.791   6.606   9.005 -0.8142 -0.7649  0.0968
  122OSM   H13S12953   5.844   6.606   8.908 -1.2762  2.8758 -0.2419
  122OSM   H13T12954   5.795   6.714   9.031  0.6438 -1.7120  4.1087
  122OSM   C14S12955   5.641   6.558   8.984 -0.2395 -0.2685  0.3273
  122OSM   H14S12956   5.574   6.589   9.067 -0.8575  0.4797 -0.4377
  122OSM   H14T12957   5.638   6.448   8.970  0.7770 -0.3992  1.1140
  122OSM   C15S12958   5.585   6.623   8.856  0.3538 -0.5416  0.4950
  122OSM   H15S12959   5.667   6.623   8.781 -0.6886 -0.6882 -0.6624
  122OSM   H15T12960   5.559   6.727   8.887  1.4232 -0.0004 -0.3788
  122OSM   C16S12961   5.457   6.562   8.791 -0.6717 -0.2841 -0.2731
  122OSM   H16S12962   5.443   6.608   8.691  1.0158  0.9562  0.0422
  122OSM   H16T12963   5.374   6.566   8.865  0.7413 -1.0743  1.3940
  122OSM   C17S12964   5.487   6.413   8.761  0.4883  0.6148  0.4190
  122OSM   H17S12965   5.389   6.375   8.724 -0.0304  1.4534  0.9302
  122OSM   H17T12966   5.511   6.341   8.842  0.9065  0.1119 -0.1496
  122OSM   C18S12967   5.594   6.399   8.657 -0.2008  0.1583 -0.3633
  122OSM   H18S12968   5.698   6.405   8.697 -0.8229  0.9461  1.1618
  122OSM   H18T12969   5.580   6.483   8.586  3.8866 -0.8396 -2.5442
  122OSM   H18U12970   5.584   6.300   8.607 -0.4003 -0.5575  1.0715
  122OSM    C1F12971   6.080   6.232  10.242 -0.4964 -0.2607  0.0176
  122OSM     OF12972   6.040   6.124  10.286 -0.0818 -0.3234 -0.1137
  122OSM    C2F12973   6.228   6.258  10.217  0.4726  0.1055 -0.3443
  122OSM    H2F12974   6.291   6.248  10.308  3.0233  0.5582 -1.9841
  122OSM    H2G12975   6.238   6.367  10.196 -2.3411  0.1785 -1.5365
  122OSM    C3F12976   6.282   6.169  10.102  0.4496 -0.1412 -0.0655
  122OSM    H3F12977   6.248   6.064  10.113  1.3021 -0.3062  1.0990
  122OSM    H3G12978   6.392   6.166  10.118  0.5004 -2.3070 -0.6534
  122OSM    C4F12979   6.233   6.205   9.968 -0.3825  0.9330  0.2805
  122OSM    H4F12980   6.240   6.315   9.952 -1.5954  0.9465 -0.2331
  122OSM    H4G12981   6.126   6.176   9.960  0.1810 -0.7751 -1.2130
  122OSM    C5F12982   6.304   6.123   9.857 -0.3688  0.8059 -0.4920
  122OSM    H5F12983   6.273   6.018   9.873 -2.1478  1.3001 -0.6080
  122OSM    H5G12984   6.415   6.125   9.864 -0.2624 -2.0012 -0.8497
  122OSM    C6F12985   6.272   6.177   9.722  0.1389 -0.0771 -0.1905
  122OSM    H6F12986   6.173   6.227   9.719  1.1584  2.0615  1.1206
  122OSM    H6G12987   6.287   6.101   9.642 -1.1209 -0.0591 -0.4548
  122OSM    C7F12988   6.353   6.306   9.684  0.2270 -0.2262 -0.5735
  122OSM    H7F12989   6.458   6.297   9.717  0.4131  0.7541 -0.8840
  122OSM    H7G12990   6.321   6.379   9.761 -1.3393 -0.3024 -1.1364
  122OSM    C8F12991   6.331   6.366   9.549 -0.0035 -0.0952 -0.0904
  122OSM    H8F12992   6.394   6.457   9.547  0.1425 -0.1797  0.4674
  122OSM    H8G12993   6.225   6.400   9.557 -0.1734 -0.8019  0.8669
  122OSM    C9F12994   6.363   6.280   9.435 -0.1381 -0.3656  0.1385
  122OSM    H9F12995   6.403   6.178   9.450  2.3851 -0.2930 -4.9942
  122OSM   C10F12996   6.347   6.320   9.308 -0.2381  0.5085 -0.0335
  122OSM   H10F12997   6.372   6.257   9.221 -1.3933  1.7002 -1.2454
  122OSM   C11F12998   6.287   6.450   9.272  0.4109 -0.5877  0.2827
  122OSM   H11F12999   6.298   6.531   9.347  0.8963 -1.4660  1.1806
  122OSM   H11G13000   6.179   6.431   9.260  0.8838 -2.7170 -0.8410
  122OSM   C12F13001   6.361   6.504   9.142  0.1409  0.6746 -0.2373
  122OSM   H12F13002   6.469   6.481   9.153 -0.3588 -0.6574  2.4013
  122OSM   H12G13003   6.349   6.615   9.137  0.7401  0.7590  0.0702
  122OSM   C13F13004   6.310   6.448   9.017  0.1825  0.6119  0.0721
  122OSM   H13F13005   6.202   6.473   9.005  0.1561  0.5192  0.1212
  122OSM   H13G13006   6.306   6.338   9.007 -0.8303  0.7277 -1.0267
  122OSM   C14F13007   6.379   6.485   8.889  0.2844  0.6924 -0.7395
  122OSM   H14F13008   6.482   6.444   8.901  0.0573  0.0886 -0.8603
  122OSM   H14G13009   6.390   6.595   8.879  2.7416  0.9755  3.7441
  122OSM   C15F13010   6.319   6.440   8.754  0.2041 -0.0947  0.0285
  122OSM   H15F13011   6.329   6.331   8.732  0.5990 -0.2090  0.7440
  122OSM   H15G13012   6.380   6.489   8.676  1.2373 -0.9846  0.2565
  122OSM   C16F13013   6.175   6.491   8.749  0.9533 -0.2123 -0.8301
  122OSM   H16F13014   6.160   6.584   8.809 -0.3754 -1.0901  0.2299
  122OSM   H16G13015   6.106   6.411   8.782 -1.4985  1.1053 -2.6169
  122OSM   C17F13016   6.130   6.529   8.613 -0.1164  0.4564  0.3106
  122OSM   H17F13017   6.135   6.437   8.552 -1.2130  0.8954 -0.4670
  122OSM   H17G13018   6.214   6.596   8.584 -0.6551  0.2182 -1.8372
  122OSM   C18F13019   5.984   6.583   8.610 -0.2282 -0.5204 -0.3159
  122OSM   H18F13020   5.963   6.629   8.511  0.7545 -1.5872 -1.0322
  122OSM   H18G13021   5.966   6.661   8.688  0.6478  0.2026 -0.8266
  122OSM   H18H13022   5.916   6.504   8.650 -0.1112 -0.3354  0.2564
  123OSM      N13023   4.935   4.196   6.044 -0.3427  0.1140 -0.2592
  123OSM    C1513024   5.053   4.262   6.099  0.1363  0.1130 -0.0867
  123OSM   H15A13025   5.057   4.369   6.090 -0.4574  0.1811  0.4854
  123OSM   H15B13026   5.136   4.210   6.052  0.4679  0.1583  0.4456
  123OSM   H15C13027   5.058   4.246   6.206 -1.3220  0.2922  0.0103
  123OSM    C1413028   4.918   4.248   5.904 -0.1205 -0.7812 -0.2426
  123OSM   H14A13029   5.013   4.242   5.852  1.1076  2.6115  1.4192
  123OSM   H14B13030   4.882   4.350   5.912  1.1085 -0.2235 -1.5183
  123OSM   H14C13031   4.847   4.183   5.856  0.6934 -0.4970 -1.8753
  123OSM    C1313032   4.958   4.048   6.038 -0.0591  0.2201 -0.8155
  123OSM   H13A13033   5.036   4.032   5.966  0.9557  0.7366  0.1522
  123OSM   H13B13034   4.865   4.001   6.009 -0.3911  0.8535 -0.7841
  123OSM   H13C13035   4.993   4.012   6.134  1.5171  2.4093 -0.5184
  123OSM    C1213036   4.815   4.215   6.134  0.6240  0.4185 -0.9730
  123OSM   H12A13037   4.821   4.162   6.228  0.0471  1.1803 -0.5117
  123OSM   H12B13038   4.731   4.173   6.081 -1.4975  1.2699  1.6284
  123OSM    C1113039   4.784   4.356   6.179  0.0728 -0.0902 -0.4467
  123OSM   H11A13040   4.881   4.395   6.217 -1.6649  2.2780  1.7506
  123OSM   H11B13041   4.716   4.347   6.267  0.2815  0.3078 -0.2438
  123OSM      P13042   4.581   4.473   6.080  0.7576  0.0602 -0.1566
  123OSM    O1313043   4.554   4.562   5.961  0.3978 -0.2891 -0.0647
  123OSM    O1413044   4.503   4.347   6.096 -0.2403  0.2083 -0.4164
  123OSM    O1113045   4.569   4.567   6.206  0.1462  0.5819  0.4450
  123OSM    O1213046   4.729   4.433   6.082 -0.1111 -0.2746  0.5966
  123OSM    C1S13047   4.438   4.597   6.262 -0.7034  0.2526 -0.6527
  123OSM    H1S13048   4.355   4.533   6.226 -0.9959 -0.6383  1.5413
  123OSM    H1T13049   4.399   4.698   6.239  0.5749  0.6484 -1.1549
  123OSM     NF13050   4.304   4.619   6.469  0.6910  0.0054 -0.0353
  123OSM    HNF13051   4.290   4.712   6.503  0.2961 -0.6178  1.5390
  123OSM    C2S13052   4.439   4.586   6.416 -0.1113  0.2913 -0.6628
  123OSM    H2S13053   4.468   4.482   6.443 -0.1244  0.2398 -0.8481
  123OSM    C3S13054   4.541   4.683   6.485 -0.3888  0.5426  0.4244
  123OSM    H3S13055   4.502   4.780   6.448 -1.3189  1.0748  2.6823
  123OSM     O313056   4.676   4.678   6.433 -0.1263 -0.1417  0.5330
  123OSM    HO313057   4.663   4.636   6.347  1.2892 -1.1017  0.7722
  123OSM    C4S13058   4.535   4.679   6.636  0.2511 -0.4617 -0.7871
  123OSM    H4S13059   4.467   4.756   6.674 -2.4837 -2.9476 -0.4559
  123OSM    C5S13060   4.596   4.589   6.726  0.3100 -0.7813  0.4444
  123OSM    H5S13061   4.663   4.515   6.680  0.7204  0.0123 -0.2520
  123OSM    C6S13062   4.590   4.591   6.880 -0.3057 -0.0962  0.1536
  123OSM    H6S13063   4.697   4.590   6.913 -0.1158  0.3086 -0.4472
  123OSM    H6T13064   4.538   4.498   6.911  0.6297  0.4361  3.5869
  123OSM    C7S13065   4.507   4.703   6.938 -1.0623 -0.2346 -0.2073
  123OSM    H7S13066   4.399   4.692   6.915 -1.0823  0.8567 -0.6459
  123OSM    H7T13067   4.556   4.796   6.902  2.6775 -1.2078  2.1439
  123OSM    C8S13068   4.524   4.703   7.093 -0.2444  0.5784  0.3753
  123OSM    H8S13069   4.632   4.697   7.118  0.3644  1.3189 -1.9566
  123OSM    H8T13070   4.485   4.604   7.125  0.4777  0.3606  0.5841
  123OSM    C9S13071   4.455   4.813   7.171 -0.5574  0.3571 -0.2643
  123OSM    H9S13072   4.349   4.829   7.141 -0.9224  4.1479  2.7125
  123OSM    H9T13073   4.500   4.911   7.145 -0.6611 -0.1126 -2.2594
  123OSM   C10S13074   4.444   4.798   7.326  0.0707  0.3001  0.6173
  123OSM   H10S13075   4.419   4.690   7.337  0.4632  0.1194 -0.2365
  123OSM   H10T13076   4.366   4.865   7.367 -0.0329  0.8899 -0.5231
  123OSM   C11S13077   4.575   4.828   7.404  0.0911 -0.7654  0.3041
  123OSM   H11S13078   4.588   4.937   7.391 -1.6737 -0.4576  1.0332
  123OSM   H11T13079   4.668   4.787   7.359  0.6330 -0.7658  1.4104
  123OSM   C12S13080   4.580   4.765   7.539  1.1639  0.0861 -0.2520
  123OSM   H12S13081   4.658   4.686   7.546  0.1781 -0.7581  1.6621
  123OSM   H12T13082   4.482   4.715   7.552  0.1140  2.1090 -0.2343
  123OSM   C13S13083   4.590   4.867   7.656 -0.0658 -0.3612  0.5241
  123OSM   H13S13084   4.506   4.941   7.661 -0.5742 -0.8812 -0.2159
  123OSM   H13T13085   4.688   4.918   7.656  0.0001 -0.4670 -0.9146
  123OSM   C14S13086   4.584   4.789   7.788 -0.6243 -0.1151  0.0030
  123OSM   H14S13087   4.650   4.699   7.788  1.6974  1.5436 -0.7215
  123OSM   H14T13088   4.481   4.747   7.796 -0.7944  0.2931 -0.0123
  123OSM   C15S13089   4.582   4.877   7.916  0.0842  0.1667 -0.6418
  123OSM   H15S13090   4.485   4.929   7.927 -0.7419 -1.4180 -0.3266
  123OSM   H15T13091   4.652   4.958   7.887  1.7359 -0.4303  1.5251
  123OSM   C16S13092   4.641   4.794   8.031  0.9743  0.0973  0.2848
  123OSM   H16S13093   4.728   4.738   7.992 -0.9740 -2.4685 -0.5780
  123OSM   H16T13094   4.563   4.724   8.068 -0.4052  1.5247  0.1529
  123OSM   C17S13095   4.696   4.889   8.145  0.5144  0.1004 -0.0263
  123OSM   H17S13096   4.783   4.948   8.107 -0.4311  1.0805 -0.7095
  123OSM   H17T13097   4.739   4.813   8.214  0.4500 -1.6835 -1.8936
  123OSM   C18S13098   4.597   4.983   8.213  0.0927 -0.8940  0.3474
  123OSM   H18S13099   4.586   5.074   8.150  1.6231 -1.4448 -0.7305
  123OSM   H18T13100   4.647   5.018   8.306 -0.4742  0.9288 -0.0108
  123OSM   H18U13101   4.498   4.942   8.243 -0.6443 -1.0572 -2.2318
  123OSM    C1F13102   4.190   4.554   6.443 -0.6990 -0.0913  0.5889
  123OSM     OF13103   4.195   4.443   6.391  0.4145  0.3406  0.3657
  123OSM    C2F13104   4.071   4.619   6.502 -0.2205  0.2709 -0.3855
  123OSM    H2F13105   4.070   4.720   6.454  0.3629  0.9998  1.1101
  123OSM    H2G13106   4.085   4.608   6.611  0.3021 -1.7246 -0.6422
  123OSM    C3F13107   3.935   4.557   6.468  0.5541 -0.0603 -0.3729
  123OSM    H3F13108   3.929   4.458   6.519 -0.0049  0.0038 -0.3166
  123OSM    H3G13109   3.928   4.540   6.358 -1.3996 -0.9558 -0.1434
  123OSM    C4F13110   3.816   4.645   6.525  0.4634 -0.8389  0.2722
  123OSM    H4F13111   3.732   4.577   6.497 -0.0062 -0.4973  0.8334
  123OSM    H4G13112   3.814   4.737   6.463 -0.0571 -1.5252 -0.7504
  123OSM    C5F13113   3.808   4.651   6.676  0.1357 -0.2030 -0.4468
  123OSM    H5F13114   3.907   4.689   6.708  0.5282 -1.5991  0.0165
  123OSM    H5G13115   3.793   4.544   6.703  2.0053 -0.3882 -0.1165
  123OSM    C6F13116   3.701   4.735   6.745 -0.3798  0.0135  0.3735
  123OSM    H6F13117   3.603   4.712   6.697 -0.6887  1.7317  0.1643
  123OSM    H6G13118   3.726   4.842   6.730  1.6664 -0.5655 -0.4382
  123OSM    C7F13119   3.683   4.694   6.895 -0.0045  0.1284 -0.4475
  123OSM    H7F13120   3.761   4.617   6.912 -1.6375 -1.4408  0.0348
  123OSM    H7G13121   3.587   4.638   6.894 -0.1154  0.3089  0.0087
  123OSM    C8F13122   3.694   4.817   6.988  0.0207  1.3798 -0.0654
  123OSM    H8F13123   3.791   4.860   6.955  0.1431  0.9816 -0.2307
  123OSM    H8G13124   3.715   4.778   7.090  0.9515  2.0305 -0.0077
  123OSM    C9F13125   3.566   4.900   6.986  0.8138  0.0831  0.5343
  123OSM    H9F13126   3.540   4.948   6.891 -2.3869 -4.8056 -1.2955
  123OSM   C10F13127   3.482   4.923   7.088 -0.1054 -0.3270 -0.4685
  123OSM   H10F13128   3.386   4.971   7.065 -0.9084 -2.1954 -1.1119
  123OSM   C11F13129   3.494   4.874   7.227 -0.0605 -0.8612 -0.2922
  123OSM   H11F13130   3.583   4.814   7.254  0.3577  0.2195  0.7657
  123OSM   H11G13131   3.406   4.813   7.255 -0.5615 -0.6020 -1.2787
  123OSM   C12F13132   3.491   4.993   7.328 -0.3044 -0.3222  0.4959
  123OSM   H12F13133   3.383   5.016   7.339 -0.1241  0.0050  1.6773
  123OSM   H12G13134   3.556   5.070   7.281  0.1343 -2.4541 -2.5322
  123OSM   C13F13135   3.527   4.946   7.468  0.2281  0.3700  0.1852
  123OSM   H13F13136   3.632   4.917   7.486  0.1962  0.4124  0.4409
  123OSM   H13G13137   3.463   4.871   7.519  0.3607  0.2612  0.1912
  123OSM   C14F13138   3.516   5.063   7.567 -0.0654 -0.1029  0.3648
  123OSM   H14F13139   3.406   5.071   7.578 -0.2458 -0.4453 -1.1267
  123OSM   H14G13140   3.533   5.155   7.507  0.7292 -0.9657 -0.7613
  123OSM   C15F13141   3.591   5.051   7.703 -0.0240 -0.8771  0.8145
  123OSM   H15F13142   3.590   5.148   7.757  1.2948 -1.6136  2.2196
  123OSM   H15G13143   3.699   5.026   7.693 -0.7945 -3.5156 -1.6530
  123OSM   C16F13144   3.534   4.946   7.795 -0.5121  0.0598 -0.7063
  123OSM   H16F13145   3.519   4.849   7.743  2.3313  0.6245 -2.6564
  123OSM   H16G13146   3.437   4.982   7.836  0.1577  1.1304 -0.0277
  123OSM   C17F13147   3.625   4.911   7.910 -0.3628  0.3594  0.6871
  123OSM   H17F13148   3.727   4.940   7.874  0.3373 -1.2050  1.3552
  123OSM   H17G13149   3.628   4.802   7.930 -2.5114  0.4823  1.8584
  123OSM   C18F13150   3.583   4.977   8.038  0.5607 -0.3949 -0.2548
  123OSM   H18F13151   3.554   5.084   8.029  0.8009 -0.2426  0.7666
  123OSM   H18G13152   3.664   4.974   8.114  1.7386 -0.8692 -1.5100
  123OSM   H18H13153   3.494   4.931   8.087  0.1017 -0.5906 -1.2561
  124OSM      N13154   6.481   3.060   6.189  0.3401 -0.3123 -0.2417
  124OSM    C1513155   6.516   2.926   6.224 -0.8024 -0.1207  0.0272
  124OSM   H15A13156   6.437   2.869   6.270 -2.1325  3.2369  2.1350
  124OSM   H15B13157   6.602   2.923   6.290 -0.4033 -2.8752 -0.5705
  124OSM   H15C13158   6.538   2.873   6.133 -0.4494  0.3864 -0.1823
  124OSM    C1413159   6.361   3.066   6.097  0.6108 -0.4230  0.0690
  124OSM   H14A13160   6.319   3.164   6.079 -1.1724 -1.2815 -0.5959
  124OSM   H14B13161   6.278   3.009   6.138  1.0973 -0.7087  0.6719
  124OSM   H14C13162   6.383   3.021   6.002  0.9287 -0.2821  0.0754
  124OSM    C1313163   6.445   3.137   6.312  0.5380 -0.1227 -0.4287
  124OSM   H13A13164   6.415   3.238   6.289  0.1801 -0.4356 -1.3490
  124OSM   H13B13165   6.534   3.139   6.373 -0.8266 -0.7363  1.6586
  124OSM   H13C13166   6.362   3.090   6.364 -0.5720  1.0573 -1.1104
  124OSM    C1213167   6.603   3.125   6.117 -0.0867  0.3809 -0.1882
  124OSM   H12A13168   6.571   3.225   6.093 -0.6846  1.0644  3.2696
  124OSM   H12B13169   6.626   3.068   6.028  1.3091 -0.4114  0.6529
  124OSM    C1113170   6.734   3.132   6.197 -0.2419 -0.6977  0.5607
  124OSM   H11A13171   6.716   3.198   6.284 -0.8106 -0.8060  0.5303
  124OSM   H11B13172   6.813   3.177   6.133 -1.7741 -0.6333 -1.3556
  124OSM      P13173   6.927   3.022   6.336  0.1256  0.3353  0.0176
  124OSM    O1313174   6.962   2.891   6.388 -0.6669  0.2487  0.3458
  124OSM    O1413175   7.030   3.085   6.258  0.2353 -0.2306  0.0905
  124OSM    O1113176   6.884   3.107   6.458 -0.1423 -0.4988 -0.4590
  124OSM    O1213177   6.787   3.010   6.253 -0.1614 -0.5542  0.5590
  124OSM    C1S13178   6.945   3.083   6.585  0.3118  0.2583  0.7668
  124OSM    H1S13179   7.054   3.105   6.582  0.5774 -0.9056  1.4914
  124OSM    H1T13180   6.930   2.977   6.614 -2.7738  0.6602  0.7569
  124OSM     NF13181   6.962   3.169   6.817  0.1282 -0.1891  0.6965
  124OSM    HNF13182   6.934   3.116   6.896  2.6137 -0.1972  1.6148
  124OSM    C2S13183   6.879   3.169   6.693  0.2878 -0.2501 -0.1965
  124OSM    H2S13184   6.869   3.269   6.647 -0.5426  1.1065  2.8424
  124OSM    C3S13185   6.731   3.121   6.711 -0.6336  0.1406 -0.1054
  124OSM    H3S13186   6.747   3.020   6.753  1.3960  0.4435 -0.0542
  124OSM     O313187   6.660   3.098   6.592  0.2699 -0.0107 -0.3715
  124OSM    HO313188   6.721   3.109   6.519  0.9889  0.3284  0.2604
  124OSM    C4S13189   6.656   3.216   6.794  0.1635 -0.6678 -0.3687
  124OSM    H4S13190   6.635   3.316   6.754 -3.1551 -0.9150  0.5634
  124OSM    C5S13191   6.587   3.180   6.908  0.6752 -0.4415  0.7746
  124OSM    H5S13192   6.582   3.072   6.928 -0.6890 -0.8185 -1.4583
  124OSM    C6S13193   6.514   3.269   7.000  0.4948 -0.1143 -0.2958
  124OSM    H6S13194   6.410   3.278   6.963  1.1334 -1.3533 -2.4730
  124OSM    H6T13195   6.565   3.368   7.008  1.6592 -0.8764  2.0540
  124OSM    C7S13196   6.505   3.211   7.142  0.7336  0.1193 -0.2948
  124OSM    H7S13197   6.486   3.301   7.205 -2.2092  0.0040 -0.9302
  124OSM    H7T13198   6.609   3.179   7.166  0.1183 -3.8094 -2.4254
  124OSM    C8S13199   6.408   3.089   7.153  0.0968 -0.1652  0.2038
  124OSM    H8S13200   6.442   3.011   7.081  0.5156  0.2800 -0.0857
  124OSM    H8T13201   6.308   3.129   7.126  1.1417  0.5224 -2.8827
  124OSM    C9S13202   6.403   3.040   7.297  0.0547 -0.0920 -1.5606
  124OSM    H9S13203   6.506   3.031   7.338  0.1203 -1.8551 -2.0603
  124OSM    H9T13204   6.373   2.933   7.293  1.4650 -0.6734  1.7824
  124OSM   C10S13205   6.301   3.103   7.395  0.5370 -0.4900 -0.5952
  124OSM   H10S13206   6.198   3.069   7.373  0.4113 -0.5559  0.0932
  124OSM   H10T13207   6.318   3.213   7.401 -2.4714 -0.0988  1.8608
  124OSM   C11S13208   6.338   3.060   7.537  0.6629 -0.1657  0.0691
  124OSM   H11S13209   6.436   3.105   7.564  0.6970  0.9562 -1.8876
  124OSM   H11T13210   6.345   2.949   7.534 -3.7774 -0.5438  0.2596
  124OSM   C12S13211   6.228   3.093   7.641  1.1457 -0.3915 -0.3754
  124OSM   H12S13212   6.137   3.031   7.628  0.3446  0.3864  1.3512
  124OSM   H12T13213   6.192   3.197   7.635 -0.5607 -0.7356  2.7060
  124OSM   C13S13214   6.266   3.069   7.783 -0.4180  0.7294 -0.2304
  124OSM   H13S13215   6.352   3.135   7.809  1.6641 -0.9595 -2.5714
  124OSM   H13T13216   6.311   2.968   7.789 -2.5581 -0.2734 -0.4886
  124OSM   C14S13217   6.149   3.088   7.873 -0.7002 -0.2469  0.2939
  124OSM   H14S13218   6.061   3.020   7.862 -0.7038 -0.1707 -0.1874
  124OSM   H14T13219   6.112   3.192   7.859  0.4545  0.2059  0.5574
  124OSM   C15S13220   6.206   3.083   8.014  0.7260 -0.2473 -0.0442
  124OSM   H15S13221   6.249   3.181   8.044  3.4781 -0.3800 -3.2976
  124OSM   H15T13222   6.285   3.006   8.018 -0.0698 -1.0078  1.5391
  124OSM   C16S13223   6.092   3.050   8.109  0.0007  0.3006 -0.3392
  124OSM   H16S13224   6.049   2.949   8.093  3.4995 -1.3117  0.0090
  124OSM   H16T13225   6.012   3.121   8.079 -0.7647 -0.5743 -0.3950
  124OSM   C17S13226   6.120   3.074   8.263  0.4172  0.7389 -0.1507
  124OSM   H17S13227   6.025   3.101   8.314  1.4329  4.7330 -0.1868
  124OSM   H17T13228   6.185   3.164   8.272 -1.1726  2.0148 -1.0960
  124OSM   C18S13229   6.184   2.955   8.335  0.3697  0.1685  0.7406
  124OSM   H18S13230   6.180   2.958   8.446 -2.0709 -1.1606  0.7451
  124OSM   H18T13231   6.283   2.934   8.289 -0.1172  1.0933 -0.7954
  124OSM   H18U13232   6.120   2.870   8.302 -0.9617 -0.2109  4.1463
  124OSM    C1F13233   7.075   3.234   6.820  0.3086 -0.5029 -0.6055
  124OSM     OF13234   7.099   3.330   6.746  0.2663  0.2006  0.3280
  124OSM    C2F13235   7.170   3.187   6.922 -0.5435  0.0432 -0.0903
  124OSM    H2F13236   7.253   3.135   6.869 -0.3585  0.1600  0.0863
  124OSM    H2G13237   7.116   3.122   6.993  0.2427  0.2616  0.7093
  124OSM    C3F13238   7.242   3.294   7.008  0.5404 -0.0681  0.8095
  124OSM    H3F13239   7.161   3.355   7.053  0.5770  0.1520  0.5766
  124OSM    H3G13240   7.300   3.358   6.938 -1.3602  2.0736  1.1506
  124OSM    C4F13241   7.317   3.230   7.117 -0.6076 -0.5793  0.0151
  124OSM    H4F13242   7.402   3.297   7.144 -1.1769 -0.2675  1.0416
  124OSM    H4G13243   7.345   3.132   7.073  1.4642 -0.4904  1.0683
  124OSM    C5F13244   7.235   3.212   7.243  0.1386 -0.1443 -0.7676
  124OSM    H5F13245   7.230   3.104   7.270 -2.0022  0.5973  2.0489
  124OSM    H5G13246   7.127   3.233   7.231  0.1003  0.6250  0.8188
  124OSM    C6F13247   7.285   3.292   7.367 -0.3524  0.5870  0.6341
  124OSM    H6F13248   7.262   3.400   7.349 -0.3178  0.5534  0.3920
  124OSM    H6G13249   7.396   3.294   7.367 -0.3380  0.7224 -0.8781
  124OSM    C7F13250   7.246   3.231   7.499  0.8168 -0.4951  0.1323
  124OSM    H7F13251   7.289   3.129   7.509 -0.4769 -0.9589  1.1262
  124OSM    H7G13252   7.135   3.232   7.511  0.9583 -0.8396  1.6265
  124OSM    C8F13253   7.299   3.317   7.622  0.3030 -0.3688  1.2645
  124OSM    H8F13254   7.261   3.419   7.599  2.6020  0.5911  1.6034
  124OSM    H8G13255   7.410   3.314   7.612  0.2321  2.1261 -0.8273
  124OSM    C9F13256   7.243   3.266   7.750  0.5379 -0.2033  0.4748
  124OSM    H9F13257   7.134   3.266   7.760  0.4856  0.7880  0.0041
  124OSM   C10F13258   7.311   3.233   7.859 -0.1305  0.5927  0.9657
  124OSM   H10F13259   7.257   3.196   7.948  1.3944 -0.8255  1.3251
  124OSM   C11F13260   7.461   3.245   7.881  0.2739 -0.0256 -0.1463
  124OSM   H11F13261   7.507   3.247   7.780  0.8364  0.0818  0.1062
  124OSM   H11G13262   7.515   3.158   7.926 -1.2591 -0.9560 -0.0550
  124OSM   C12F13263   7.489   3.367   7.978 -0.6416  0.2696 -0.3945
  124OSM   H12F13264   7.444   3.341   8.076 -1.3132  0.1009 -0.7502
  124OSM   H12G13265   7.454   3.464   7.937 -0.5712  0.2579 -0.4822
  124OSM   C13F13266   7.639   3.370   8.017  0.2231  0.3229  0.2376
  124OSM   H13F13267   7.698   3.389   7.925  0.4843  1.4358  0.6252
  124OSM   H13G13268   7.666   3.271   8.060  1.5910 -0.3393 -2.0578
  124OSM   C14F13269   7.675   3.477   8.119 -0.1431 -0.0022 -0.6266
  124OSM   H14F13270   7.629   3.444   8.215  0.3439  0.0466 -0.3767
  124OSM   H14G13271   7.640   3.577   8.087 -1.1923 -0.2803 -0.3512
  124OSM   C15F13272   7.829   3.491   8.135  0.0001 -0.6593 -0.0320
  124OSM   H15F13273   7.864   3.515   8.032  0.0974  1.3730  0.4477
  124OSM   H15G13274   7.869   3.390   8.159 -0.9893 -0.4307  2.8679
  124OSM   C16F13275   7.880   3.595   8.239  0.0007 -0.4039  0.1426
  124OSM   H16F13276   7.875   3.543   8.337  0.8184  1.5369  1.2396
  124OSM   H16G13277   7.812   3.682   8.227  1.1422  0.4758 -0.1199
  124OSM   C17F13278   8.018   3.654   8.233 -0.5949 -0.6566  0.2659
  124OSM   H17F13279   8.022   3.712   8.328  1.3004 -2.4388  1.3043
  124OSM   H17G13280   8.029   3.716   8.141 -1.0123  1.1448  1.3941
  124OSM   C18F13281   8.141   3.564   8.246 -1.1142  0.9094  0.1612
  124OSM   H18F13282   8.150   3.515   8.345  0.3218 -1.0345 -0.8896
  124OSM   H18G13283   8.228   3.624   8.211 -0.1615 -0.9475 -0.7601
  124OSM   H18H13284   8.137   3.484   8.169 -0.1340  1.1542 -0.1567
  125OSM      N13285   0.264   4.498   6.318 -0.5379  0.1808  0.0074
  125OSM    C1513286   0.338   4.422   6.221  0.2685 -0.3310 -0.1370
  125OSM   H15A13287   0.444   4.418   6.241  0.3279 -0.8669 -0.5417
  125OSM   H15B13288   0.332   4.477   6.128  1.5022  0.4292  0.2223
  125OSM   H15C13289   0.306   4.319   6.214 -1.4334  0.1258  0.5247
  125OSM    C1413290   0.278   4.434   6.449  0.9244  0.3200  0.0871
  125OSM   H14A13291   0.234   4.335   6.449  1.8047 -0.0979  1.4919
  125OSM   H14B13292   0.241   4.494   6.531  0.6731  0.5912 -0.2279
  125OSM   H14C13293   0.386   4.430   6.462  0.9470  0.8856  0.0927
  125OSM    C1313294   0.316   4.646   6.325  0.8002  0.1221 -0.0770
  125OSM   H13A13295   0.263   4.699   6.402 -1.8318 -0.8939 -1.1267
  125OSM   H13B13296   0.306   4.697   6.230 -0.2041  2.5860  1.3081
  125OSM   H13C13297   0.421   4.634   6.347  0.0648 -1.4521  2.7629
  125OSM    C1213298   0.120   4.496   6.278 -0.2996 -0.7618 -0.1934
  125OSM   H12A13299   0.062   4.499   6.368  0.3953 -0.6100  0.2575
  125OSM   H12B13300   0.097   4.399   6.238  0.6115 -1.4265  0.8745
  125OSM    C1113301   0.078   4.600   6.175  0.1881 -0.4310 -1.0191
  125OSM   H11A13302   0.140   4.582   6.085  3.5180 -1.0673  1.3400
  125OSM   H11B13303   0.093   4.703   6.213 -1.0395 -0.5191 -0.2489
  125OSM      P13304  -0.171   4.611   6.261  0.1944 -0.4155  0.4773
  125OSM    O1313305  -0.163   4.755   6.292  0.0720  0.4708 -0.1649
  125OSM    O1413306  -0.303   4.556   6.213 -0.3782 -1.3173 -0.2689
  125OSM    O1113307  -0.129   4.522   6.381 -0.0170  0.3389 -0.3292
  125OSM    O1213308  -0.059   4.577   6.154  0.1285  0.4108 -0.9417
  125OSM    C1S13309  -0.171   4.568   6.521 -1.2739  0.4256 -0.1167
  125OSM    H1S13310  -0.214   4.670   6.531 -0.8805  0.6552 -0.7614
  125OSM    H1T13311  -0.079   4.568   6.584 -1.9500 -2.4489  0.9458
  125OSM     NF13312  -0.316   4.529   6.715 -0.1449 -0.3327  0.5691
  125OSM    HNF13313  -0.259   4.523   6.797 -0.0972 -0.2715  0.5400
  125OSM    C2S13314  -0.265   4.464   6.597 -0.0537  0.5703  0.7733
  125OSM    H2S13315  -0.343   4.450   6.520 -0.3029 -0.8894  1.2729
  125OSM    C3S13316  -0.193   4.331   6.621  0.3407  0.1381 -0.2236
  125OSM    H3S13317  -0.099   4.351   6.677  1.8624 -1.8173 -2.0130
  125OSM     O313318  -0.165   4.267   6.494 -0.3276  0.2028 -0.1030
  125OSM    HO313319  -0.168   4.340   6.431  1.4358  3.2494  3.1728
  125OSM    C4S13320  -0.279   4.239   6.704  0.0239 -0.6516  0.3967
  125OSM    H4S13321  -0.362   4.197   6.646  1.1667  1.0244 -2.6202
  125OSM    C5S13322  -0.272   4.218   6.837 -0.6795  0.3954 -0.9086
  125OSM    H5S13323  -0.202   4.272   6.903  1.2543  1.2690 -3.5766
  125OSM    C6S13324  -0.372   4.128   6.904 -1.0792 -0.5834 -0.4574
  125OSM    H6S13325  -0.447   4.102   6.827 -1.2317  1.3344 -0.9924
  125OSM    H6T13326  -0.425   4.190   6.979  0.1100 -0.3968  0.2424
  125OSM    C7S13327  -0.342   4.003   6.988 -0.0954 -0.0123 -0.1798
  125OSM    H7S13328  -0.299   3.929   6.918  1.8924  0.0731  0.9199
  125OSM    H7T13329  -0.434   3.951   7.022 -0.1818  0.0567 -0.3076
  125OSM    C8S13330  -0.261   4.028   7.112 -0.0965  0.6428  0.5226
  125OSM    H8S13331  -0.336   4.061   7.187  1.6456 -0.0709  2.6264
  125OSM    H8T13332  -0.192   4.115   7.103 -1.0880  1.4637  0.6810
  125OSM    C9S13333  -0.176   3.910   7.166  0.4665 -0.9053 -0.0074
  125OSM    H9S13334  -0.085   3.912   7.103 -0.5116 -0.7879 -1.4347
  125OSM    H9T13335  -0.225   3.811   7.151  0.9432 -0.6921 -3.2862
  125OSM   C10S13336  -0.145   3.925   7.320 -0.3863 -0.5991 -0.9709
  125OSM   H10S13337  -0.112   4.031   7.324 -0.8642 -0.4618 -0.6649
  125OSM   H10T13338  -0.055   3.862   7.336  0.1094  0.1400 -0.7905
  125OSM   C11S13339  -0.259   3.903   7.413  0.3486  0.0816 -0.3727
  125OSM   H11S13340  -0.294   3.798   7.406  0.5691  0.0377 -0.8043
  125OSM   H11T13341  -0.344   3.967   7.381  1.0360 -0.2869 -3.0312
  125OSM   C12S13342  -0.218   3.949   7.559 -0.3958 -0.3687  0.2431
  125OSM   H12S13343  -0.151   4.038   7.559 -0.6837 -0.1137  2.2437
  125OSM   H12T13344  -0.162   3.859   7.593 -1.7898 -0.9139  1.1259
  125OSM   C13S13345  -0.336   3.978   7.659 -0.8379 -0.7897 -1.1333
  125OSM   H13S13346  -0.407   3.894   7.645 -2.0986  0.1314 -0.3742
  125OSM   H13T13347  -0.383   4.072   7.624  2.5511  1.1682 -0.6115
  125OSM   C14S13348  -0.287   3.979   7.804  0.1143  0.1310  0.0286
  125OSM   H14S13349  -0.231   4.072   7.828  0.8927 -1.2640  3.9315
  125OSM   H14T13350  -0.220   3.892   7.819 -0.6433 -0.8315 -2.0278
  125OSM   C15S13351  -0.408   3.991   7.899 -0.0344  0.2410  0.1867
  125OSM   H15S13352  -0.493   4.044   7.852  0.1734 -0.2908 -0.8234
  125OSM   H15T13353  -0.375   4.061   7.978  0.9696  0.7634 -0.6861
  125OSM   C16S13354  -0.450   3.857   7.967  0.8511  0.4172 -0.3139
  125OSM   H16S13355  -0.455   3.774   7.894 -0.0442 -2.2217  2.6130
  125OSM   H16T13356  -0.550   3.861   8.016  0.6956 -1.3343 -0.4392
  125OSM   C17S13357  -0.353   3.818   8.078  0.5864 -0.2882  0.3366
  125OSM   H17S13358  -0.324   3.908   8.138 -0.1853 -1.6231  2.7950
  125OSM   H17T13359  -0.266   3.770   8.030  0.5663 -0.5076  0.5192
  125OSM   C18S13360  -0.417   3.716   8.173  0.0460 -0.0759 -0.3588
  125OSM   H18S13361  -0.488   3.662   8.107  2.8783 -0.7138 -3.0066
  125OSM   H18T13362  -0.467   3.780   8.249  1.4432  0.0267  0.4898
  125OSM   H18U13363  -0.346   3.644   8.220 -0.4132 -2.0597 -2.6401
  125OSM    C1F13364  -0.403   4.634   6.701 -0.6394  0.8012  0.2383
  125OSM     OF13365  -0.485   4.621   6.613  0.3292 -0.4488 -0.4300
  125OSM    C2F13366  -0.392   4.752   6.791 -0.0427 -1.0137 -0.0196
  125OSM    H2F13367  -0.290   4.746   6.836  0.0796  0.1532 -0.1297
  125OSM    H2G13368  -0.472   4.727   6.864  2.6798 -2.5290  2.5479
  125OSM    C3F13369  -0.417   4.878   6.714  0.5065 -0.2852  0.4613
  125OSM    H3F13370  -0.517   4.895   6.669  1.8242  3.9870 -1.0946
  125OSM    H3G13371  -0.353   4.875   6.623 -0.6186  2.4986 -0.4730
  125OSM    C4F13372  -0.367   5.004   6.790 -0.3624  0.0634  0.0589
  125OSM    H4F13373  -0.350   5.082   6.713  1.3002  0.4234  0.7797
  125OSM    H4G13374  -0.270   4.977   6.837 -0.6842 -0.8023  0.2439
  125OSM    C5F13375  -0.451   5.045   6.914  0.7027 -0.5747 -0.0400
  125OSM    H5F13376  -0.501   4.956   6.958 -1.5412  0.8501  0.3469
  125OSM    H5G13377  -0.539   5.103   6.878  0.7339  1.4916  3.0356
  125OSM    C6F13378  -0.374   5.106   7.031 -0.4471  0.2301  0.9262
  125OSM    H6F13379  -0.328   5.201   6.996  0.9471 -0.4583  0.8574
  125OSM    H6G13380  -0.287   5.039   7.048 -1.7953 -2.2135 -1.5114
  125OSM    C7F13381  -0.460   5.132   7.153  0.2627 -0.3750  0.0967
  125OSM    H7F13382  -0.529   5.046   7.161  0.2435 -0.6084 -2.2972
  125OSM    H7G13383  -0.527   5.214   7.118 -0.7593 -0.8183  0.9908
  125OSM    C8F13384  -0.383   5.178   7.271 -0.1782  0.5606  0.6864
  125OSM    H8F13385  -0.299   5.246   7.243  1.0574 -1.3661 -0.3520
  125OSM    H8G13386  -0.326   5.088   7.301 -3.3557 -1.7008  0.1183
  125OSM    C9F13387  -0.480   5.216   7.381  0.1657  0.4709 -0.0162
  125OSM    H9F13388  -0.575   5.266   7.357 -2.3828 -3.4924  1.3342
  125OSM   C10F13389  -0.459   5.178   7.506 -0.4179 -0.1697  0.3747
  125OSM   H10F13390  -0.527   5.226   7.578 -1.5231 -0.8778 -0.1833
  125OSM   C11F13391  -0.343   5.104   7.568 -0.0174 -0.6932  0.1526
  125OSM   H11F13392  -0.311   5.153   7.663  1.8118  0.5671 -1.0891
  125OSM   H11G13393  -0.253   5.121   7.506  0.3889 -2.2523  0.2893
  125OSM   C12F13394  -0.375   4.958   7.610  0.4546 -0.1998  0.5194
  125OSM   H12F13395  -0.292   4.909   7.666 -0.5212 -1.4536  0.9000
  125OSM   H12G13396  -0.396   4.894   7.522  1.2441  0.2397  0.0146
  125OSM   C13F13397  -0.493   4.950   7.716  0.7597 -0.2645  0.6636
  125OSM   H13F13398  -0.497   4.848   7.761 -1.9989 -0.9825 -1.0798
  125OSM   H13G13399  -0.593   4.958   7.668  1.1339  3.0172  0.3394
  125OSM   C14F13400  -0.497   5.039   7.833 -0.0859  0.3117  0.3673
  125OSM   H14F13401  -0.511   5.146   7.807  2.1798  0.5946  0.2344
  125OSM   H14G13402  -0.406   5.047   7.896  1.0823  1.1858 -1.3647
  125OSM   C15F13403  -0.621   4.986   7.910  0.1098 -0.7639  0.4138
  125OSM   H15F13404  -0.630   4.875   7.908  2.0347 -0.9840  2.0882
  125OSM   H15G13405  -0.710   5.031   7.862  1.6343  0.8126 -0.9952
  125OSM   C16F13406  -0.612   5.020   8.054  0.3126 -0.4769 -0.2059
  125OSM   H16F13407  -0.612   5.132   8.059 -0.4949 -0.5047  0.5950
  125OSM   H16G13408  -0.515   4.987   8.096  0.7762 -0.4882 -1.2677
  125OSM   C17F13409  -0.737   4.960   8.117  0.4844 -0.2446 -0.2009
  125OSM   H17F13410  -0.749   4.851   8.097  1.5911 -0.4590  0.2906
  125OSM   H17G13411  -0.826   5.003   8.066  1.1009  2.3802  0.8915
  125OSM   C18F13412  -0.741   4.990   8.267  0.0082  0.2200 -0.0447
  125OSM   H18F13413  -0.836   4.960   8.316 -0.1274  1.8609  0.7155
  125OSM   H18G13414  -0.727   5.099   8.282 -0.8820  0.3478 -0.1173
  125OSM   H18H13415  -0.655   4.941   8.317 -0.1415  0.6577  0.6459
  126OSM      N13416   3.836   3.372   6.517 -0.2093  0.2925 -0.6094
  126OSM    C1513417   3.986   3.339   6.534 -0.0075 -1.1682  0.2095
  126OSM   H15A13418   4.005   3.278   6.621  2.4978 -0.2139  0.3718
  126OSM   H15B13419   4.044   3.429   6.547  0.1779 -0.7299 -3.1961
  126OSM   H15C13420   4.023   3.295   6.442 -1.7013 -2.2154  0.0128
  126OSM    C1413421   3.820   3.471   6.415 -0.0565 -0.2907  0.3755
  126OSM   H14A13422   3.723   3.465   6.368 -0.8215  0.0745  1.9014
  126OSM   H14B13423   3.901   3.479   6.344  0.5001  1.1623  1.1639
  126OSM   H14C13424   3.824   3.569   6.460 -2.9288  0.7212 -1.4205
  126OSM    C1313425   3.770   3.246   6.464 -0.4288 -0.8110 -0.4233
  126OSM   H13A13426   3.667   3.253   6.434 -0.1917 -2.5150 -1.7465
  126OSM   H13B13427   3.779   3.163   6.533 -1.1700  1.5625  2.6210
  126OSM   H13C13428   3.826   3.211   6.378 -0.0066 -1.0839 -0.0437
  126OSM    C1213429   3.778   3.419   6.645  0.2100 -0.0519 -0.0673
  126OSM   H12A13430   3.834   3.504   6.681  2.3975 -1.4977  0.0039
  126OSM   H12B13431   3.796   3.337   6.713 -1.1271  0.3551  0.8073
  126OSM    C1113432   3.631   3.462   6.657  0.3840  0.6148 -0.4449
  126OSM   H11A13433   3.600   3.466   6.763  2.3832 -0.1687  0.1944
  126OSM   H11B13434   3.568   3.376   6.626  0.7917 -0.1891  0.9085
  126OSM      P13435   3.646   3.718   6.647  0.1082  0.1962  0.1708
  126OSM    O1313436   3.702   3.807   6.546  0.6693  0.3842  0.6286
  126OSM    O1413437   3.528   3.762   6.722 -0.4812  0.3067  0.6480
  126OSM    O1113438   3.752   3.683   6.758 -0.6275  0.3871 -0.0735
  126OSM    O1213439   3.596   3.578   6.584 -0.1422 -0.6074 -0.2847
  126OSM    C1S13440   3.821   3.790   6.829  0.0738 -0.6261 -0.3372
  126OSM    H1S13441   3.746   3.856   6.877  1.1870  0.6395 -0.3090
  126OSM    H1T13442   3.891   3.850   6.767 -2.6637  2.6946 -0.3233
  126OSM     NF13443   3.961   3.828   7.039 -0.1724 -0.2495 -0.0639
  126OSM    HNF13444   4.057   3.854   7.035  0.0483 -0.1932  3.6571
  126OSM    C2S13445   3.911   3.729   6.948  0.5295  0.0701  0.1701
  126OSM    H2S13446   3.849   3.648   6.991 -0.7520  0.6838 -0.4994
  126OSM    C3S13447   4.031   3.643   6.895  1.0734 -0.6611 -0.0594
  126OSM    H3S13448   4.090   3.712   6.830  1.9916 -1.5703 -0.1905
  126OSM     O313449   3.983   3.552   6.801  0.2856 -0.3098  0.4794
  126OSM    HO313450   3.894   3.586   6.789  0.3000  0.0512  1.2916
  126OSM    C4S13451   4.104   3.574   6.998  0.1864  0.2909  0.0794
  126OSM    H4S13452   4.053   3.505   7.066  0.1871  0.0491 -0.1635
  126OSM    C5S13453   4.237   3.573   7.001  0.0919  0.4840 -0.0909
  126OSM    H5S13454   4.301   3.612   6.920  0.0019  1.0775  0.1216
  126OSM    C6S13455   4.305   3.496   7.101  0.4649 -0.4439 -0.2029
  126OSM    H6S13456   4.411   3.530   7.105 -0.3158  1.9610  0.8605
  126OSM    H6T13457   4.306   3.390   7.068  0.1969 -0.7866  0.8709
  126OSM    C7S13458   4.259   3.502   7.249  0.1915 -0.5008  0.5227
  126OSM    H7S13459   4.338   3.456   7.313  0.8614  1.1166  0.8937
  126OSM    H7T13460   4.162   3.448   7.258  0.5057 -1.8786 -3.3079
  126OSM    C8S13461   4.258   3.644   7.307  0.7313 -0.1496 -0.0224
  126OSM    H8S13462   4.201   3.716   7.244  1.1288  1.4204  1.3893
  126OSM    H8T13463   4.356   3.696   7.310 -1.0000  3.3899 -1.4192
  126OSM    C9S13464   4.179   3.655   7.445 -0.2313  0.0813 -0.2079
  126OSM    H9S13465   4.072   3.638   7.420 -0.3031 -1.3252  1.0046
  126OSM    H9T13466   4.190   3.758   7.484 -0.8457 -0.7140  2.1234
  126OSM   C10S13467   4.236   3.562   7.555 -0.0750 -0.5083 -0.5017
  126OSM   H10S13468   4.335   3.606   7.579  0.7477 -2.4597 -0.2353
  126OSM   H10T13469   4.252   3.457   7.522 -1.1359  0.0730 -2.9452
  126OSM   C11S13470   4.155   3.560   7.683  0.0546  0.6185  0.2422
  126OSM   H11S13471   4.223   3.535   7.766 -0.2530 -1.1927 -0.0312
  126OSM   H11T13472   4.074   3.487   7.662  1.9726 -1.3571 -0.4629
  126OSM   C12S13473   4.097   3.696   7.730 -0.6918  0.1070 -0.9098
  126OSM   H12S13474   4.033   3.738   7.649 -0.8412 -2.6593 -2.2593
  126OSM   H12T13475   4.187   3.761   7.735  0.2546 -1.2883  0.9439
  126OSM   C13S13476   4.032   3.714   7.871 -0.0918  0.2036  0.5303
  126OSM   H13S13477   3.953   3.636   7.863 -0.9542  0.9040  2.0643
  126OSM   H13T13478   3.984   3.813   7.883  1.2586  0.8502  0.6536
  126OSM   C14S13479   4.128   3.682   7.989  0.3581 -0.5014 -0.2938
  126OSM   H14S13480   4.228   3.723   7.964 -0.1729  1.2451  0.3731
  126OSM   H14T13481   4.149   3.573   7.985  1.1712 -0.2872 -2.6815
  126OSM   C15S13482   4.079   3.725   8.135 -0.7019  0.0653  0.1265
  126OSM   H15S13483   3.981   3.673   8.145 -0.3683 -0.7108 -0.6223
  126OSM   H15T13484   4.045   3.831   8.141  0.6788  0.7834 -3.5526
  126OSM   C16S13485   4.162   3.672   8.250  0.7572 -0.4896 -0.1419
  126OSM   H16S13486   4.265   3.714   8.246  0.2300  0.6994 -2.4682
  126OSM   H16T13487   4.183   3.564   8.232  0.0649 -0.4913 -0.9981
  126OSM   C17S13488   4.094   3.693   8.386  0.5031  1.5134  0.4729
  126OSM   H17S13489   4.015   3.616   8.402  0.2466  1.1232 -2.4010
  126OSM   H17T13490   4.042   3.790   8.391 -0.1457  1.2916 -1.5088
  126OSM   C18S13491   4.195   3.696   8.502 -0.3285 -0.5473 -0.5974
  126OSM   H18S13492   4.248   3.600   8.490  0.1548 -0.4236  0.5533
  126OSM   H18T13493   4.151   3.697   8.604  1.1298  0.0158  0.0439
  126OSM   H18U13494   4.251   3.792   8.493  0.8824 -1.0429  1.3332
  126OSM    C1F13495   3.881   3.867   7.139 -0.1654  0.5481  0.5854
  126OSM     OF13496   3.768   3.819   7.143 -0.0929  0.4981 -0.1650
  126OSM    C2F13497   3.938   3.936   7.253 -1.1756 -0.3162  0.2073
  126OSM    H2F13498   3.912   4.042   7.231  0.5352  0.1259  0.2560
  126OSM    H2G13499   4.049   3.933   7.254 -1.0167  3.4552  0.7973
  126OSM    C3F13500   3.879   3.910   7.391  0.8125 -0.4341 -0.5092
  126OSM    H3F13501   3.911   3.810   7.429  1.8113 -0.7365 -2.0635
  126OSM    H3G13502   3.769   3.917   7.390  0.6033 -2.5967  2.1844
  126OSM    C4F13503   3.919   4.005   7.508 -0.0891 -0.1917 -0.0865
  126OSM    H4F13504   3.908   4.113   7.486 -1.9517 -0.3518 -0.0401
  126OSM    H4G13505   4.024   3.981   7.535  0.6825 -0.4471 -3.1650
  126OSM    C5F13506   3.846   3.983   7.637 -0.5148 -0.6186  0.0890
  126OSM    H5F13507   3.844   3.874   7.660 -0.8602 -0.8413 -0.9839
  126OSM    H5G13508   3.741   4.014   7.620 -0.4396 -1.5185 -2.1965
  126OSM    C6F13509   3.908   4.045   7.751 -0.4686  0.1790 -0.9191
  126OSM    H6F13510   4.011   4.008   7.771 -1.6400 -1.2787  2.7003
  126OSM    H6G13511   3.848   4.032   7.843  1.4382  1.5938  0.5849
  126OSM    C7F13512   3.909   4.203   7.733  0.2339 -0.2332 -0.6542
  126OSM    H7F13513   3.808   4.235   7.698 -0.3707 -0.9168  0.4093
  126OSM    H7G13514   3.990   4.222   7.660  0.0421 -0.7326 -0.9986
  126OSM    C8F13515   3.914   4.286   7.867  0.1314  0.0719  0.3479
  126OSM    H8F13516   4.005   4.253   7.922  0.4902 -0.3428 -0.4866
  126OSM    H8G13517   3.825   4.247   7.920 -1.5248 -0.1281 -2.5076
  126OSM    C9F13518   3.924   4.438   7.855  0.0893 -0.1346 -0.6893
  126OSM    H9F13519   3.980   4.471   7.766  0.8644  0.8880  0.1716
  126OSM   C10F13520   3.862   4.526   7.931 -0.2507  0.3219  0.5989
  126OSM   H10F13521   3.889   4.631   7.918 -2.2504  0.6521 -1.0100
  126OSM   C11F13522   3.774   4.498   8.046  1.3519 -0.0046 -0.2624
  126OSM   H11F13523   3.814   4.415   8.107  0.3988  0.9496  1.7215
  126OSM   H11G13524   3.674   4.462   8.013  1.6866 -0.3997 -0.8558
  126OSM   C12F13525   3.765   4.620   8.145 -0.1653 -0.0767 -0.1574
  126OSM   H12F13526   3.715   4.702   8.089  0.2298  0.8858  0.8933
  126OSM   H12G13527   3.867   4.661   8.161  0.2407 -1.1857  0.1156
  126OSM   C13F13528   3.703   4.595   8.281 -0.2536 -0.0191 -1.0111
  126OSM   H13F13529   3.763   4.531   8.349  0.7321  2.4744  0.5422
  126OSM   H13G13530   3.609   4.538   8.267  0.1526 -0.1608 -3.3297
  126OSM   C14F13531   3.682   4.729   8.363 -0.6423 -0.3256  0.2516
  126OSM   H14F13532   3.666   4.703   8.470 -0.2677  1.5196  0.7682
  126OSM   H14G13533   3.592   4.768   8.310  0.5730  0.9234 -0.9238
  126OSM   C15F13534   3.795   4.831   8.362  0.1586 -0.5190 -0.0909
  126OSM   H15F13535   3.816   4.858   8.256 -2.8521 -0.8868 -0.8231
  126OSM   H15G13536   3.886   4.790   8.410 -0.1049  0.6961  1.4792
  126OSM   C16F13537   3.762   4.963   8.433 -0.3526 -0.0581  0.2961
  126OSM   H16F13538   3.728   4.949   8.538  0.3976  0.6020  0.6345
  126OSM   H16G13539   3.680   5.009   8.374  0.2401  0.0223 -0.4745
  126OSM   C17F13540   3.885   5.058   8.440  0.4758  0.0600 -0.0436
  126OSM   H17F13541   3.936   5.085   8.345 -0.2045 -0.7565 -0.6450
  126OSM   H17G13542   3.958   5.007   8.507 -3.2455 -2.8969  1.9623
  126OSM   C18F13543   3.834   5.192   8.504 -0.0034 -0.1751 -0.1871
  126OSM   H18F13544   3.785   5.155   8.596  0.4659 -2.1491 -0.6900
  126OSM   H18G13545   3.754   5.239   8.444  0.5330 -0.8643 -1.4783
  126OSM   H18H13546   3.910   5.266   8.536  1.2536 -0.9163 -1.3884
  127OSM      N13547   5.734   2.066   5.966  0.0313  0.4899 -0.4671
  127OSM    C1513548   5.824   2.085   5.849 -0.6212  0.2363 -0.6545
  127OSM   H15A13549   5.892   2.002   5.839  0.4847  1.0955 -0.4310
  127OSM   H15B13550   5.876   2.178   5.868  1.1237 -0.8588  0.0466
  127OSM   H15C13551   5.780   2.099   5.751  2.1883 -0.8870 -2.1256
  127OSM    C1413552   5.644   2.183   5.974 -0.0846  0.2431  0.0844
  127OSM   H14A13553   5.573   2.199   5.894  0.1748  1.6063  0.1155
  127OSM   H14B13554   5.704   2.273   5.968 -0.7085  0.8240  2.1206
  127OSM   H14C13555   5.596   2.186   6.071 -0.7007  1.1195 -0.2415
  127OSM    C1313556   5.654   1.936   5.952 -0.7140  0.2749 -0.1650
  127OSM   H13A13557   5.580   1.918   6.029 -1.0932 -0.5129 -0.7054
  127OSM   H13B13558   5.722   1.852   5.951 -0.9184  0.1053 -0.0425
  127OSM   H13C13559   5.619   1.933   5.850 -0.2526 -1.3073 -0.2966
  127OSM    C1213560   5.824   2.056   6.089  0.4910  0.4774  0.6283
  127OSM   H12A13561   5.862   2.155   6.107 -0.0439  0.3348  2.6320
  127OSM   H12B13562   5.908   1.991   6.069 -0.0880 -0.3596  0.8874
  127OSM    C1113563   5.745   2.018   6.221  0.1785  0.1346 -0.4724
  127OSM   H11A13564   5.820   2.012   6.302 -2.7043 -0.3689  2.2566
  127OSM   H11B13565   5.715   1.912   6.209 -2.3438  0.7684 -0.0288
  127OSM      P13566   5.487   2.060   6.278  0.1212 -0.4419 -0.0167
  127OSM    O1313567   5.422   2.173   6.357  0.7022 -0.1274 -0.3670
  127OSM    O1413568   5.420   2.012   6.155 -0.2161 -0.4719  0.0389
  127OSM    O1113569   5.498   1.926   6.360  1.0044 -0.1053 -0.1550
  127OSM    O1213570   5.636   2.106   6.263 -0.5328  0.4505 -0.4008
  127OSM    C1S13571   5.570   1.935   6.486  0.2334 -0.0684  0.2686
  127OSM    H1S13572   5.524   2.012   6.552 -2.0083  0.4346 -1.8096
  127OSM    H1T13573   5.672   1.973   6.463 -0.0812  0.9272  0.5014
  127OSM     NF13574   5.606   1.809   6.700  0.5211 -0.4354  0.3951
  127OSM    HNF13575   5.703   1.821   6.722  0.1152  1.7224  1.1036
  127OSM    C2S13576   5.586   1.792   6.557  0.4742  0.5538  1.1121
  127OSM    H2S13577   5.491   1.735   6.551  0.7306  0.1057  1.3467
  127OSM    C3S13578   5.693   1.709   6.478  0.5775 -0.3062 -0.6892
  127OSM    H3S13579   5.792   1.758   6.481 -0.8235  2.5260  1.0559
  127OSM     O313580   5.671   1.699   6.335  0.4877  0.1977  0.0376
  127OSM    HO313581   5.612   1.773   6.315  1.8749  0.1476 -4.9069
  127OSM    C4S13582   5.705   1.574   6.539  0.1489  0.3624 -0.2808
  127OSM    H4S13583   5.618   1.512   6.513 -0.1010  0.7723 -0.4334
  127OSM    C5S13584   5.811   1.518   6.606 -0.4312  0.3479  0.9124
  127OSM    H5S13585   5.912   1.563   6.600  0.4983 -1.8182 -0.1897
  127OSM    C6S13586   5.810   1.375   6.663  0.2966 -0.4001  0.5311
  127OSM    H6S13587   5.918   1.348   6.670  0.2263 -0.4101  1.6904
  127OSM    H6T13588   5.774   1.306   6.584 -1.5543 -0.9222  1.7932
  127OSM    C7S13589   5.730   1.370   6.794 -0.2996  0.0512  0.2769
  127OSM    H7S13590   5.714   1.261   6.811  1.8283 -0.4910 -1.1164
  127OSM    H7T13591   5.629   1.410   6.771  0.8747  2.2128 -1.2595
  127OSM    C8S13592   5.795   1.423   6.918  0.3495 -0.4857  0.3557
  127OSM    H8S13593   5.800   1.533   6.900 -3.9264  0.1797  2.6384
  127OSM    H8T13594   5.898   1.379   6.921 -0.2963 -2.4422 -3.2489
  127OSM    C9S13595   5.720   1.385   7.046 -0.4986 -0.5042  0.0750
  127OSM    H9S13596   5.698   1.278   7.066 -0.7086 -0.3586  0.6488
  127OSM    H9T13597   5.623   1.438   7.037  0.0773  0.3499 -1.3478
  127OSM   C10S13598   5.807   1.430   7.167  0.0513 -0.0809 -0.3621
  127OSM   H10S13599   5.832   1.536   7.143 -0.1368 -0.4252 -2.1212
  127OSM   H10T13600   5.903   1.374   7.175 -1.1870 -2.2593 -0.2949
  127OSM   C11S13601   5.729   1.429   7.296 -0.1467  0.7014  0.3799
  127OSM   H11S13602   5.670   1.337   7.317  0.4035  0.3022  0.1823
  127OSM   H11T13603   5.650   1.499   7.265 -0.3220 -0.8057 -2.7398
  127OSM   C12S13604   5.823   1.471   7.409  0.2317  0.4600 -0.3448
  127OSM   H12S13605   5.756   1.516   7.486  1.6624 -1.3027  1.9565
  127OSM   H12T13606   5.891   1.549   7.369  0.0484 -0.8605 -3.3731
  127OSM   C13S13607   5.911   1.362   7.468 -0.6512 -0.1987 -0.6871
  127OSM   H13S13608   5.999   1.419   7.504  0.2558 -2.5391  0.9634
  127OSM   H13T13609   5.952   1.286   7.399  0.7178  0.0058 -0.1121
  127OSM   C14S13610   5.846   1.301   7.592 -0.3369  0.3824  0.3096
  127OSM   H14S13611   5.905   1.207   7.605  1.8231  1.7026  0.2965
  127OSM   H14T13612   5.737   1.286   7.581 -0.2570  0.2418 -0.3069
  127OSM   C15S13613   5.850   1.385   7.725 -0.4936  0.5489 -0.0284
  127OSM   H15S13614   5.777   1.468   7.711 -3.1261 -2.1347 -3.2497
  127OSM   H15T13615   5.954   1.419   7.743 -0.6667  0.8746  0.3682
  127OSM   C16S13616   5.798   1.303   7.845  0.1806  0.5860  0.0367
  127OSM   H16S13617   5.879   1.230   7.866 -0.3642 -0.2036 -0.5694
  127OSM   H16T13618   5.709   1.252   7.804  0.6247  0.5497 -0.9170
  127OSM   C17S13619   5.777   1.391   7.971  0.2706  0.1666 -0.7158
  127OSM   H17S13620   5.698   1.463   7.940  0.0297  0.5412  0.7113
  127OSM   H17T13621   5.873   1.433   8.005  0.0664  0.3106 -0.3116
  127OSM   C18S13622   5.738   1.309   8.103  0.1533  0.0284 -0.0306
  127OSM   H18S13623   5.795   1.215   8.120 -0.5655 -0.0337  2.2062
  127OSM   H18T13624   5.630   1.285   8.093  0.3238 -0.2776 -1.2692
  127OSM   H18U13625   5.757   1.371   8.193  0.5308  1.1841 -0.8786
  127OSM    C1F13626   5.507   1.827   6.787 -0.3692  0.1505 -0.0113
  127OSM     OF13627   5.390   1.830   6.756 -0.3892  0.5753  0.0894
  127OSM    C2F13628   5.549   1.815   6.931  0.3887 -0.0676  0.2205
  127OSM    H2F13629   5.649   1.861   6.945  0.7555  0.1364 -2.8562
  127OSM    H2G13630   5.552   1.706   6.954 -0.9611 -0.6000 -2.0489
  127OSM    C3F13631   5.451   1.877   7.035  0.3995 -0.9192  0.3778
  127OSM    H3F13632   5.349   1.834   7.031 -0.6256  1.4161  0.5976
  127OSM    H3G13633   5.453   1.986   7.012 -3.0617 -1.0160 -0.7857
  127OSM    C4F13634   5.501   1.875   7.180 -0.3035  0.6528  0.2869
  127OSM    H4F13635   5.449   1.955   7.237 -0.0546  1.9142 -1.2344
  127OSM    H4G13636   5.610   1.892   7.178 -0.0663 -0.4447  2.6391
  127OSM    C5F13637   5.461   1.745   7.251 -0.8360  0.0361  0.7939
  127OSM    H5F13638   5.511   1.684   7.173 -0.2435 -1.6152  2.4360
  127OSM    H5G13639   5.351   1.728   7.259 -0.6994 -0.7783  0.9657
  127OSM    C6F13640   5.529   1.720   7.384  0.3228 -0.6862  0.0618
  127OSM    H6F13641   5.638   1.736   7.369 -0.2163 -0.0617 -3.8606
  127OSM    H6G13642   5.520   1.612   7.407  1.8530 -0.9525 -0.5488
  127OSM    C7F13643   5.465   1.800   7.499  0.3778 -0.2170 -0.6629
  127OSM    H7F13644   5.358   1.776   7.510  0.6795 -1.2112  0.1389
  127OSM    H7G13645   5.452   1.907   7.473  0.8996  0.1069  0.3773
  127OSM    C8F13646   5.533   1.782   7.630  0.2215 -0.5787  0.6180
  127OSM    H8F13647   5.511   1.874   7.687  3.0820 -0.5800  1.8433
  127OSM    H8G13648   5.643   1.773   7.619 -0.0230 -0.7361 -1.8607
  127OSM    C9F13649   5.487   1.658   7.697  0.3166  0.7008 -0.7369
  127OSM    H9F13650   5.490   1.567   7.635 -1.0707 -0.0116  0.1945
  127OSM   C10F13651   5.434   1.647   7.819  0.3749 -0.1394  0.1404
  127OSM   H10F13652   5.404   1.546   7.854  1.9223 -0.8922 -0.6694
  127OSM   C11F13653   5.411   1.759   7.910 -0.9229 -0.1010  0.2055
  127OSM   H11F13654   5.307   1.748   7.948 -1.1768  0.0363 -0.4262
  127OSM   H11G13655   5.413   1.862   7.868 -0.3556 -0.1275  0.1648
  127OSM   C12F13656   5.520   1.757   8.023 -0.3651  0.4306 -0.6107
  127OSM   H12F13657   5.499   1.846   8.086  1.7087  0.5709 -0.0932
  127OSM   H12G13658   5.623   1.770   7.984  0.0030  0.3052  0.3105
  127OSM   C13F13659   5.511   1.638   8.124  0.8714  0.0473 -0.3407
  127OSM   H13F13660   5.595   1.646   8.195  0.1528  1.4750  0.3695
  127OSM   H13G13661   5.519   1.546   8.063  1.5603 -0.6423  0.7706
  127OSM   C14F13662   5.383   1.629   8.198 -0.3930 -0.1306 -0.3892
  127OSM   H14F13663   5.299   1.595   8.133 -1.2104 -0.4472  0.8000
  127OSM   H14G13664   5.348   1.730   8.229 -0.0218 -0.7057  2.0231
  127OSM   C15F13665   5.395   1.539   8.322  0.1418  0.0669  0.5450
  127OSM   H15F13666   5.439   1.440   8.300  1.2603  0.8911 -1.0203
  127OSM   H15G13667   5.295   1.521   8.367  0.4101  0.4593  1.3038
  127OSM   C16F13668   5.479   1.594   8.440  0.0927  0.2516 -0.2163
  127OSM   H16F13669   5.438   1.684   8.491 -3.5398 -1.2497 -0.3793
  127OSM   H16G13670   5.581   1.612   8.400 -0.2993 -2.2546 -2.4926
  127OSM   C17F13671   5.500   1.483   8.550  0.0479  0.0918 -0.1044
  127OSM   H17F13672   5.552   1.398   8.501 -1.1324  0.0946 -1.3685
  127OSM   H17G13673   5.400   1.442   8.576 -0.5056  1.2609 -0.3413
  127OSM   C18F13674   5.573   1.525   8.677  0.4568  0.4928 -0.2736
  127OSM   H18F13675   5.669   1.567   8.641 -0.6563  3.9908  0.6877
  127OSM   H18G13676   5.585   1.440   8.747 -1.2391 -0.4820 -1.1374
  127OSM   H18H13677   5.518   1.595   8.742  0.5897  0.0488  0.3225
  128OSM      N13678   1.365   5.448   6.085  0.2486  0.2754 -0.0407
  128OSM    C1513679   1.398   5.589   6.128  0.6611 -0.6466  0.1403
  128OSM   H15A13680   1.475   5.607   6.202  1.2135  1.0430 -0.8202
  128OSM   H15B13681   1.311   5.647   6.155 -1.0467 -1.5906 -3.0761
  128OSM   H15C13682   1.431   5.640   6.039  1.0912  1.4182  1.4504
  128OSM    C1413683   1.272   5.458   5.967 -0.3282 -0.3557  0.1972
  128OSM   H14A13684   1.250   5.361   5.925 -1.2006 -0.3142  0.5547
  128OSM   H14B13685   1.322   5.518   5.892 -1.4018  0.9205  0.4823
  128OSM   H14C13686   1.188   5.515   6.003 -1.4729 -0.4353 -2.2242
  128OSM    C1313687   1.489   5.378   6.052  0.3441  0.0283 -0.9082
  128OSM   H13A13688   1.547   5.411   5.967  2.0351 -0.2990  0.1007
  128OSM   H13B13689   1.460   5.274   6.043 -2.3228  0.6513 -0.0967
  128OSM   H13C13690   1.565   5.376   6.129 -0.4125 -2.0434 -0.1792
  128OSM    C1213691   1.302   5.382   6.207  0.4241 -0.5918  0.0552
  128OSM   H12A13692   1.208   5.434   6.214  1.8249  2.0549 -0.3539
  128OSM   H12B13693   1.353   5.402   6.300 -2.5444 -0.4051  1.6813
  128OSM    C1113694   1.266   5.223   6.206  0.0683 -0.3658  0.5541
  128OSM   H11A13695   1.230   5.187   6.304  1.7795  1.3143  1.8449
  128OSM   H11B13696   1.363   5.173   6.186 -0.7854 -1.7303 -0.2247
  128OSM      P13697   1.022   5.165   6.124  0.1012  0.4411 -0.5982
  128OSM    O1313698   0.947   5.223   6.015  0.3195 -0.2467 -0.7428
  128OSM    O1413699   1.009   5.022   6.155  0.3561  0.6293  0.4390
  128OSM    O1113700   0.990   5.253   6.250  0.5149 -0.1168 -0.4645
  128OSM    O1213701   1.175   5.185   6.099  0.0739 -0.5050 -0.2524
  128OSM    C1S13702   0.928   5.194   6.367  0.1707 -1.2259  0.2049
  128OSM    H1S13703   0.979   5.111   6.421  0.2979  0.3062  2.5300
  128OSM    H1T13704   0.825   5.158   6.348  0.2071 -1.4904  0.5158
  128OSM     NF13705   0.849   5.236   6.596  0.0204 -0.7166 -0.1957
  128OSM    HNF13706   0.750   5.223   6.603 -0.0197  0.3161  1.3113
  128OSM    C2S13707   0.912   5.305   6.488 -0.1030  0.5175 -0.2002
  128OSM    H2S13708   1.008   5.349   6.524  0.3909 -0.9512  0.3082
  128OSM    C3S13709   0.806   5.417   6.441  0.2549  0.3601  0.2148
  128OSM    H3S13710   0.705   5.375   6.422  0.4335 -0.2958  0.6829
  128OSM     O313711   0.843   5.473   6.315  0.0328 -0.0198 -0.6798
  128OSM    HO313712   0.907   5.410   6.281  0.4265 -0.0067  0.0310
  128OSM    C4S13713   0.802   5.527   6.545  0.1257 -0.1018  0.3432
  128OSM    H4S13714   0.742   5.500   6.633 -0.1177  0.7627  0.4499
  128OSM    C5S13715   0.858   5.654   6.533  0.1129 -0.1143 -0.5173
  128OSM    H5S13716   0.915   5.675   6.441  0.9479 -0.0761  0.0076
  128OSM    C6S13717   0.848   5.762   6.641  0.3816  0.0650  0.0930
  128OSM    H6S13718   0.776   5.840   6.609  1.8558  0.2295 -3.0790
  128OSM    H6T13719   0.944   5.818   6.643 -0.4590  1.5401  0.1859
  128OSM    C7S13720   0.811   5.730   6.784  0.7659 -0.3144 -0.3475
  128OSM    H7S13721   0.897   5.672   6.825  0.2519 -0.1888  0.9192
  128OSM    H7T13722   0.714   5.675   6.789 -0.8782  2.4343 -0.9980
  128OSM    C8S13723   0.801   5.856   6.873 -0.4367  0.3451  0.5487
  128OSM    H8S13724   0.720   5.929   6.855 -0.5320 -0.3900 -2.1311
  128OSM    H8T13725   0.896   5.913   6.867  0.6377 -1.6799 -2.7143
  128OSM    C9S13726   0.772   5.808   7.020 -0.1606  0.1242 -0.2539
  128OSM    H9S13727   0.853   5.742   7.059  0.7478  1.8272  0.8204
  128OSM    H9T13728   0.685   5.738   7.024  0.9631 -1.2938 -0.1049
  128OSM   C10S13729   0.780   5.914   7.127  0.6500  0.0092  0.3275
  128OSM   H10S13730   0.676   5.953   7.129 -0.8188 -3.7242 -0.0934
  128OSM   H10T13731   0.851   5.997   7.106  0.1327  0.6273  0.9840
  128OSM   C11S13732   0.808   5.854   7.262 -0.7118  0.1894 -0.0878
  128OSM   H11S13733   0.903   5.797   7.259 -0.6212  0.3022  0.6278
  128OSM   H11T13734   0.726   5.780   7.275 -1.1565  0.9231  1.4013
  128OSM   C12S13735   0.804   5.944   7.381  0.3368  0.0171  0.5219
  128OSM   H12S13736   0.701   5.984   7.390 -0.0710 -0.5024 -1.5177
  128OSM   H12T13737   0.868   6.032   7.361  3.2061 -2.3768 -1.3674
  128OSM   C13S13738   0.843   5.860   7.503  0.8062  0.5099 -0.0907
  128OSM   H13S13739   0.950   5.832   7.495  0.6230 -0.3007  0.2651
  128OSM   H13T13740   0.788   5.764   7.505  0.4757  0.7075  2.4478
  128OSM   C14S13741   0.803   5.923   7.641  0.9518  0.1493 -0.0603
  128OSM   H14S13742   0.692   5.917   7.636  0.9651  0.4332 -0.7428
  128OSM   H14T13743   0.816   6.033   7.650 -2.4357  0.6569 -0.5923
  128OSM   C15S13744   0.854   5.834   7.754 -0.1821  0.2176 -0.3246
  128OSM   H15S13745   0.963   5.850   7.763 -0.0707 -1.2433  1.2877
  128OSM   H15T13746   0.833   5.728   7.728 -2.2645  0.1969  1.2776
  128OSM   C16S13747   0.778   5.867   7.882 -0.2217 -0.3780 -0.3726
  128OSM   H16S13748   0.676   5.827   7.861 -1.6538  3.1336 -0.4023
  128OSM   H16T13749   0.763   5.976   7.897 -0.0269 -0.7272  2.7688
  128OSM   C17S13750   0.836   5.802   8.012  0.8002  0.5043 -0.5716
  128OSM   H17S13751   0.937   5.840   8.038  0.2273 -0.4466  3.3999
  128OSM   H17T13752   0.841   5.694   7.988 -0.9427  0.6106 -1.5103
  128OSM   C18S13753   0.743   5.816   8.137 -0.1930 -0.4033 -0.0972
  128OSM   H18S13754   0.719   5.923   8.155 -1.8286 -0.5758 -1.1140
  128OSM   H18T13755   0.769   5.760   8.229  0.2367  0.9538  0.6287
  128OSM   H18U13756   0.645   5.775   8.105  0.6039 -1.2595 -1.4863
  128OSM    C1F13757   0.918   5.151   6.674  0.5412  0.6714  0.8724
  128OSM     OF13758   1.039   5.165   6.672 -0.1613  0.7701  0.2689
  128OSM    C2F13759   0.853   5.047   6.756  0.5790  0.4727 -0.3896
  128OSM    H2F13760   0.923   4.962   6.770  0.3908  0.3834 -0.0119
  128OSM    H2G13761   0.762   5.009   6.705 -0.0331 -0.8570  1.6830
  128OSM    C3F13762   0.824   5.111   6.892 -0.1836 -0.4673  0.2891
  128OSM    H3F13763   0.737   5.179   6.888  0.0906 -0.1419 -0.1075
  128OSM    H3G13764   0.919   5.159   6.925 -0.2089 -2.3167  3.2348
  128OSM    C4F13765   0.783   5.014   7.004  0.5627 -0.0475 -0.7069
  128OSM    H4F13766   0.831   4.914   6.996  5.0013  1.9811 -0.7905
  128OSM    H4G13767   0.677   4.981   6.999  0.6951 -0.6487  0.2114
  128OSM    C5F13768   0.821   5.068   7.140  0.3084  0.2726 -0.1442
  128OSM    H5F13769   0.773   5.167   7.155 -1.6404 -0.5805 -0.5430
  128OSM    H5G13770   0.932   5.067   7.151  0.7261  0.8847 -3.7319
  128OSM    C6F13771   0.776   4.978   7.254 -0.5002  0.0680  0.6946
  128OSM    H6F13772   0.847   4.892   7.256 -0.7655 -0.2135 -0.8980
  128OSM    H6G13773   0.674   4.935   7.252 -0.5029  0.0980 -0.2459
  128OSM    C7F13774   0.800   5.052   7.384  0.5619 -0.6653  0.1599
  128OSM    H7F13775   0.710   5.116   7.399  2.6394  1.8367  2.4956
  128OSM    H7G13776   0.887   5.120   7.375  0.4401 -0.3556  1.2319
  128OSM    C8F13777   0.796   4.961   7.509 -0.1549 -0.4054 -0.2951
  128OSM    H8F13778   0.731   4.873   7.485 -0.8534 -0.2937  1.1222
  128OSM    H8G13779   0.745   5.017   7.590 -0.1050  1.0874 -1.2749
  128OSM    C9F13780   0.938   4.917   7.542  0.8267  1.5048 -0.0529
  128OSM    H9F13781   1.014   4.920   7.462  1.4746 -0.1585  0.4917
  128OSM   C10F13782   0.976   4.877   7.668 -0.1125  0.4561  0.6290
  128OSM   H10F13783   1.081   4.848   7.685 -0.0191  0.0476 -0.6455
  128OSM   C11F13784   0.882   4.864   7.786 -0.4644  0.4722 -0.1960
  128OSM   H11F13785   0.918   4.783   7.852 -2.2174 -0.6843 -0.6373
  128OSM   H11G13786   0.785   4.825   7.749  0.3834  0.4889 -2.5461
  128OSM   C12F13787   0.869   4.992   7.878 -0.2492 -0.1341 -0.4813
  128OSM   H12F13788   0.791   4.971   7.954  1.0163 -1.6347  0.4293
  128OSM   H12G13789   0.835   5.077   7.815 -0.7477  1.3483  1.7359
  128OSM   C13F13790   1.003   5.036   7.941 -0.4945 -0.4189  0.7955
  128OSM   H13F13791   1.070   5.084   7.867 -1.5962 -1.5106 -0.9308
  128OSM   H13G13792   1.049   4.948   7.990 -0.6134 -0.9273 -0.0083
  128OSM   C14F13793   0.982   5.135   8.058  0.2732  0.2979  0.2972
  128OSM   H14F13794   1.072   5.136   8.124 -0.6710 -0.9012  1.6192
  128OSM   H14G13795   0.893   5.108   8.117  0.4367  0.9289  0.8321
  128OSM   C15F13796   0.956   5.280   8.023 -0.7621 -0.3647  0.1985
  128OSM   H15F13797   0.854   5.299   7.982 -0.9572  0.2721  0.9642
  128OSM   H15G13798   1.030   5.320   7.950  0.3366 -2.4491  0.1451
  128OSM   C16F13799   0.951   5.369   8.149 -0.0409  0.3034 -0.0938
  128OSM   H16F13800   0.946   5.475   8.116 -0.8887  0.2631 -0.0983
  128OSM   H16G13801   1.052   5.353   8.191  0.9417  0.9800 -2.1024
  128OSM   C17F13802   0.837   5.349   8.246  0.1871 -0.3669 -0.5926
  128OSM   H17F13803   0.849   5.243   8.279  0.2439 -0.4269 -0.8070
  128OSM   H17G13804   0.739   5.353   8.193 -1.7082 -1.1416  2.6807
  128OSM   C18F13805   0.834   5.445   8.362 -0.1054 -1.3661  0.2008
  128OSM   H18F13806   0.792   5.539   8.320 -0.1095 -0.4994  2.0789
  128OSM   H18G13807   0.936   5.468   8.401 -1.0907 -1.2236  2.7851
  128OSM   H18H13808   0.772   5.409   8.447  2.0932  1.2657  3.0575
  129OSM      N13809   4.829   2.213   6.175 -0.4207  0.3625 -0.3529
  129OSM    C1513810   4.747   2.327   6.119 -0.0197  0.8219  0.4794
  129OSM   H15A13811   4.805   2.417   6.132  0.9945  0.1939  0.4403
  129OSM   H15B13812   4.651   2.336   6.167  0.2709 -0.5210  1.3539
  129OSM   H15C13813   4.733   2.314   6.013 -1.3354  0.2669  0.7081
  129OSM    C1413814   4.960   2.215   6.100 -1.0860  1.5205  0.5756
  129OSM   H14A13815   5.016   2.130   6.135 -1.0606  1.7710  1.1494
  129OSM   H14B13816   5.010   2.309   6.118 -0.1342  1.0424  0.4491
  129OSM   H14C13817   4.938   2.213   5.994 -0.6605  0.8190  0.5036
  129OSM    C1313818   4.856   2.233   6.326  0.3050 -0.2802 -0.0150
  129OSM   H13A13819   4.908   2.152   6.374 -1.3566  0.0074  2.3353
  129OSM   H13B13820   4.765   2.242   6.383  1.6767  0.6726  2.0967
  129OSM   H13C13821   4.910   2.325   6.346  0.3203 -0.5616  1.2709
  129OSM    C1213822   4.743   2.088   6.157 -0.2118 -0.2017  0.2756
  129OSM   H12A13823   4.716   2.068   6.054  2.9843 -2.1896 -0.2437
  129OSM   H12B13824   4.645   2.100   6.201 -1.4393  1.1728 -2.6955
  129OSM    C1113825   4.812   1.955   6.198 -0.3195  0.2977 -0.1137
  129OSM   H11A13826   4.738   1.875   6.177 -0.7057  0.4880  0.5194
  129OSM   H11B13827   4.834   1.956   6.307  0.6772  1.7911 -0.3051
  129OSM      P13828   4.992   1.781   6.117 -0.1518  0.0350 -0.0679
  129OSM    O1313829   4.891   1.694   6.056  1.4048  0.1443  0.7022
  129OSM    O1413830   5.122   1.778   6.051  0.1960 -0.3177  0.0915
  129OSM    O1113831   5.012   1.738   6.272 -0.0203 -0.4604 -0.2555
  129OSM    O1213832   4.932   1.924   6.123 -0.0334  0.0449 -0.0977
  129OSM    C1S13833   5.103   1.815   6.357  0.1263 -0.5564 -0.2454
  129OSM    H1S13834   5.083   1.924   6.353  3.9314  0.2381  0.4817
  129OSM    H1T13835   5.205   1.812   6.312 -0.6355 -1.1680 -1.9633
  129OSM     NF13836   5.165   1.875   6.596  0.3419 -0.0152  0.2967
  129OSM    HNF13837   5.248   1.850   6.645 -0.2186 -0.5855  0.9723
  129OSM    C2S13838   5.102   1.776   6.510 -0.1539  0.2377  0.6586
  129OSM    H2S13839   4.994   1.765   6.536  0.0336  1.1451  1.8582
  129OSM    C3S13840   5.178   1.636   6.521 -0.0827  0.3473  0.0947
  129OSM    H3S13841   5.281   1.638   6.479  0.7246 -2.5965  1.7847
  129OSM     O313842   5.116   1.541   6.434  0.4514  0.4302  0.2469
  129OSM    HO313843   5.082   1.602   6.369 -0.3767  0.2343  0.4905
  129OSM    C4S13844   5.176   1.580   6.665 -0.1545 -0.1732  0.3347
  129OSM    H4S13845   5.078   1.585   6.715  0.4002  2.0104  1.3138
  129OSM    C5S13846   5.282   1.538   6.742  0.5707  1.3005  0.2770
  129OSM    H5S13847   5.383   1.540   6.698  0.4766  1.6885  0.0704
  129OSM    C6S13848   5.269   1.498   6.882  0.2304 -0.1036 -0.0342
  129OSM    H6S13849   5.197   1.563   6.937  1.3260  0.4338  0.7950
  129OSM    H6T13850   5.369   1.526   6.921  1.4029 -2.0805 -1.5604
  129OSM    C7S13851   5.232   1.347   6.889  0.4632 -0.1383 -0.0607
  129OSM    H7S13852   5.304   1.283   6.834  0.4863 -1.2876  1.3156
  129OSM    H7T13853   5.136   1.337   6.833 -1.0144 -0.2856  2.4652
  129OSM    C8S13854   5.230   1.292   7.027  0.0477 -0.0419  0.4457
  129OSM    H8S13855   5.176   1.195   7.022 -1.6311  0.8630  0.7138
  129OSM    H8T13856   5.159   1.355   7.085 -0.1857  0.3110 -0.2183
  129OSM    C9S13857   5.362   1.285   7.106  0.7216 -0.1088 -0.3231
  129OSM    H9S13858   5.385   1.391   7.130 -3.2176  0.7745 -0.0336
  129OSM    H9T13859   5.439   1.247   7.035 -0.1780 -0.2453 -1.2451
  129OSM   C10S13860   5.350   1.205   7.237  0.9554  0.0324  0.0337
  129OSM   H10S13861   5.439   1.226   7.300  0.6917 -0.6775  0.6545
  129OSM   H10T13862   5.355   1.097   7.210 -1.2589 -0.1156  0.1732
  129OSM   C11S13863   5.230   1.247   7.325 -0.2545  0.7053  0.5166
  129OSM   H11S13864   5.137   1.198   7.287  1.7872  0.3583 -4.3764
  129OSM   H11T13865   5.217   1.357   7.316 -0.7921  0.4310 -2.4308
  129OSM   C12S13866   5.250   1.205   7.472  0.1273  0.0915 -0.0374
  129OSM   H12S13867   5.298   1.105   7.473 -0.2147 -0.0710  0.1704
  129OSM   H12T13868   5.151   1.199   7.523 -0.7576 -0.5451 -1.7735
  129OSM   C13S13869   5.346   1.305   7.544  0.3597 -0.0720 -0.0710
  129OSM   H13S13870   5.286   1.399   7.550 -0.8244 -0.8418  0.3226
  129OSM   H13T13871   5.435   1.316   7.479 -0.1855 -1.9090 -1.1560
  129OSM   C14S13872   5.401   1.274   7.682  0.6540  0.5371 -0.8331
  129OSM   H14S13873   5.479   1.346   7.715  0.4874  0.6088 -0.5960
  129OSM   H14T13874   5.440   1.170   7.678  0.0051  0.2040  1.1175
  129OSM   C15S13875   5.295   1.270   7.790 -1.0875 -0.6387  0.5008
  129OSM   H15S13876   5.209   1.211   7.751 -0.7703  0.5695 -2.1230
  129OSM   H15T13877   5.258   1.374   7.800  0.8280 -0.0449  1.6313
  129OSM   C16S13878   5.340   1.198   7.918  0.4037 -0.0424  1.4332
  129OSM   H16S13879   5.451   1.206   7.916  0.2134  2.5896 -0.1605
  129OSM   H16T13880   5.306   1.092   7.921  1.9467 -0.6132 -0.4354
  129OSM   C17S13881   5.300   1.272   8.049 -0.5200 -0.7280  0.1610
  129OSM   H17S13882   5.317   1.380   8.035  0.2151 -1.0326 -1.4187
  129OSM   H17T13883   5.363   1.241   8.135  0.0890 -1.8014 -0.6557
  129OSM   C18S13884   5.156   1.247   8.099  0.4437 -0.6974 -0.2591
  129OSM   H18S13885   5.151   1.136   8.110 -1.3640 -0.5043  0.9964
  129OSM   H18T13886   5.083   1.274   8.020  3.0688  1.5429 -2.0422
  129OSM   H18U13887   5.136   1.295   8.196  0.0458  0.5533 -0.9497
  129OSM    C1F13888   5.112   1.993   6.622  0.7000 -0.3466  0.0776
  129OSM     OF13889   4.995   2.014   6.588 -0.2205 -0.0379 -0.1734
  129OSM    C2F13890   5.207   2.086   6.699  0.3773  0.2166 -0.3255
  129OSM    H2F13891   5.284   2.133   6.634  1.1670 -1.1007 -0.3709
  129OSM    H2G13892   5.264   2.034   6.780 -0.0456  0.6185  0.2342
  129OSM    C3F13893   5.129   2.195   6.775  0.5766  0.4615 -0.2589
  129OSM    H3F13894   5.054   2.151   6.845  0.3634 -0.8032 -1.2556
  129OSM    H3G13895   5.074   2.233   6.687  1.3792  0.3407 -0.8131
  129OSM    C4F13896   5.209   2.304   6.850 -0.4815 -0.0616  0.6489
  129OSM    H4F13897   5.138   2.388   6.854  0.0356  0.4313 -0.2393
  129OSM    H4G13898   5.295   2.332   6.784 -1.1773  0.4625 -0.0461
  129OSM    C5F13899   5.258   2.273   6.994 -0.1821 -0.4819 -0.3698
  129OSM    H5F13900   5.296   2.369   7.035  1.1313 -0.8447 -0.7112
  129OSM    H5G13901   5.346   2.205   6.987  2.6947  2.7493  2.3574
  129OSM    C6F13902   5.165   2.214   7.095  0.5230  0.3249 -0.6620
  129OSM    H6F13903   5.127   2.117   7.056 -2.3986  0.3215  1.9344
  129OSM    H6G13904   5.076   2.280   7.110  0.4598 -0.1397  1.1382
  129OSM    C7F13905   5.224   2.187   7.231 -0.3632 -0.2521  0.0069
  129OSM    H7F13906   5.226   2.282   7.288 -0.5554 -1.0688  1.3980
  129OSM    H7G13907   5.330   2.153   7.219 -0.8278 -2.9341  2.7621
  129OSM    C8F13908   5.152   2.081   7.323 -0.6587 -0.0386 -0.1489
  129OSM    H8F13909   5.217   2.055   7.409 -1.6901 -0.7852  0.4149
  129OSM    H8G13910   5.133   1.990   7.262  2.6181 -1.2480  0.4966
  129OSM    C9F13911   5.024   2.137   7.377 -0.4092  0.8127  0.1617
  129OSM    H9F13912   4.958   2.172   7.297  0.8666 -0.8756 -1.6642
  129OSM   C10F13913   4.981   2.168   7.501 -0.7194  0.0238 -0.6154
  129OSM   H10F13914   4.880   2.208   7.515 -1.4028 -1.3618 -1.5117
  129OSM   C11F13915   5.069   2.143   7.621 -0.6078  1.1352  0.3308
  129OSM   H11F13916   5.111   2.041   7.607  2.1539  2.0417  1.5467
  129OSM   H11G13917   5.016   2.144   7.718 -0.5650  3.0685  0.3480
  129OSM   C12F13918   5.190   2.244   7.624  0.4801  0.4447 -0.6603
  129OSM   H12F13919   5.148   2.345   7.607  2.2236  1.2123 -0.5748
  129OSM   H12G13920   5.249   2.233   7.531  3.1135  1.7356  0.7954
  129OSM   C13F13921   5.265   2.246   7.751 -0.1920  0.6489  0.2449
  129OSM   H13F13922   5.349   2.319   7.747 -0.2335  0.6288 -2.0303
  129OSM   H13G13923   5.311   2.148   7.775  0.5431  0.8499 -0.3202
  129OSM   C14F13924   5.190   2.284   7.881  0.3053  0.2367 -0.3080
  129OSM   H14F13925   5.122   2.209   7.927 -0.3889  0.2083 -1.3477
  129OSM   H14G13926   5.124   2.371   7.861  0.0731 -0.2251 -1.6141
  129OSM   C15F13927   5.293   2.327   7.988 -0.0865  0.0266  0.0934
  129OSM   H15F13928   5.363   2.399   7.941  0.5902 -0.2843  0.6065
  129OSM   H15G13929   5.361   2.247   8.024 -2.2356 -1.2640  1.3865
  129OSM   C16F13930   5.234   2.396   8.110 -0.0466 -0.1997 -0.4451
  129OSM   H16F13931   5.238   2.334   8.201  1.0310  2.2329  1.2376
  129OSM   H16G13932   5.128   2.426   8.094 -0.2892  0.1501  1.7538
  129OSM   C17F13933   5.316   2.521   8.161 -0.1289 -0.9017  0.8578
  129OSM   H17F13934   5.314   2.598   8.080  1.5828 -1.9618 -0.2018
  129OSM   H17G13935   5.417   2.483   8.185 -0.2335  0.5967  3.9268
  129OSM   C18F13936   5.265   2.587   8.289  0.3186 -0.6034 -0.1691
  129OSM   H18F13937   5.162   2.628   8.285  0.7761  0.8096  1.8722
  129OSM   H18G13938   5.328   2.676   8.305 -0.0615 -0.2788 -0.4638
  129OSM   H18H13939   5.278   2.518   8.375 -0.4638 -0.9106 -0.2876
  130OSM      N13940   0.916   3.889   6.337 -0.7389  0.3224  0.3133
  130OSM    C1513941   0.846   3.902   6.202 -0.5406 -0.4973  0.8277
  130OSM   H15A13942   0.756   3.844   6.193 -1.5625  0.2380  4.9331
  130OSM   H15B13943   0.917   3.881   6.124 -1.0118  2.1706 -0.3676
  130OSM   H15C13944   0.813   4.005   6.201 -1.1283 -0.6175  3.1930
  130OSM    C1413945   0.830   3.939   6.447 -0.2249 -0.2855  0.7319
  130OSM   H14A13946   0.830   4.047   6.445 -2.2745 -0.2831 -0.2701
  130OSM   H14B13947   0.855   3.900   6.544  0.5379  0.0108  0.6624
  130OSM   H14C13948   0.726   3.916   6.432  0.6800 -3.4084 -1.1429
  130OSM    C1313949   0.940   3.746   6.363  0.0197 -0.1239  0.9046
  130OSM   H13A13950   0.998   3.709   6.279  0.1066 -0.0025  0.9106
  130OSM   H13B13951   0.849   3.690   6.374 -1.6423  2.2960 -0.1122
  130OSM   H13C13952   0.999   3.724   6.451 -0.1308 -0.5996  0.8885
  130OSM    C1213953   1.049   3.965   6.343 -0.0636  0.8519  0.7443
  130OSM   H12A13954   1.090   3.947   6.245  0.0130 -3.8732  1.5082
  130OSM   H12B13955   1.127   3.929   6.409  1.1272 -1.0951 -1.6347
  130OSM    C1113956   1.045   4.117   6.371  0.5173  0.0714  0.3731
  130OSM   H11A13957   1.148   4.158   6.363  0.4940 -0.3091 -2.1722
  130OSM   H11B13958   1.014   4.137   6.476 -0.5127 -1.2944  0.3454
  130OSM      P13959   1.005   4.283   6.175 -0.2092  0.1376  0.2976
  130OSM    O1313960   1.099   4.219   6.081 -0.1526  0.6581  0.2018
  130OSM    O1413961   0.887   4.346   6.113 -0.1219  0.2825 -0.3177
  130OSM    O1113962   1.069   4.398   6.269  0.7666 -0.8090  0.1409
  130OSM    O1213963   0.956   4.182   6.278 -0.1297 -0.7658  0.4685
  130OSM    C1S13964   0.991   4.488   6.343  0.6639  0.8680 -0.3973
  130OSM    H1S13965   0.886   4.491   6.306  0.9202 -0.2973 -1.2173
  130OSM    H1T13966   1.022   4.595   6.337  1.9650  0.5983  0.9840
  130OSM     NF13967   0.923   4.540   6.586 -0.2532  0.3657  0.1984
  130OSM    HNF13968   0.971   4.582   6.663 -0.1071 -1.1369  0.9493
  130OSM    C2S13969   1.008   4.449   6.499  0.4882  0.8564 -0.4674
  130OSM    H2S13970   0.960   4.350   6.514  0.3882  0.7873 -1.2351
  130OSM    C3S13971   1.161   4.453   6.535  1.1208  0.2545  0.9334
  130OSM    H3S13972   1.185   4.561   6.536  0.7642  0.3677 -0.5611
  130OSM     O313973   1.254   4.405   6.436  0.4586 -0.1195 -0.3626
  130OSM    HO313974   1.200   4.392   6.357 -1.4857 -2.0132  1.2249
  130OSM    C4S13975   1.177   4.389   6.673 -0.0935 -0.0662  0.0286
  130OSM    H4S13976   1.103   4.314   6.703 -0.2098  0.3803  0.8804
  130OSM    C5S13977   1.271   4.432   6.761  0.9657  0.3760  0.4476
  130OSM    H5S13978   1.345   4.507   6.729  2.3225 -1.2081 -0.1845
  130OSM    C6S13979   1.287   4.379   6.902 -0.0315  0.7508 -0.6038
  130OSM    H6S13980   1.385   4.328   6.905  0.3448  1.4788 -0.5083
  130OSM    H6T13981   1.204   4.307   6.919 -2.2153  2.8265 -2.1280
  130OSM    C7S13982   1.294   4.488   7.017 -0.4414 -0.1853 -0.4834
  130OSM    H7S13983   1.232   4.577   6.991 -0.3903  0.3283  1.0994
  130OSM    H7T13984   1.398   4.525   7.011 -1.0353  1.6501  0.3299
  130OSM    C8S13985   1.266   4.426   7.150  0.4890  0.0398 -0.2899
  130OSM    H8S13986   1.334   4.341   7.175 -0.1466 -0.3010  0.2966
  130OSM    H8T13987   1.157   4.408   7.153  0.1134  2.4271  1.2404
  130OSM    C9S13988   1.281   4.538   7.261 -0.1339  0.4594 -0.2083
  130OSM    H9S13989   1.204   4.617   7.244  0.5888  1.2957  0.3420
  130OSM    H9T13990   1.381   4.586   7.254  0.3392 -0.0728  2.3655
  130OSM   C10S13991   1.266   4.481   7.396 -0.1181  0.4798  0.3132
  130OSM   H10S13992   1.346   4.405   7.412 -0.9641 -0.2931  0.8727
  130OSM   H10T13993   1.160   4.454   7.415 -0.4005  0.7770 -0.7817
  130OSM   C11S13994   1.296   4.583   7.506  0.6178 -0.0040 -1.0382
  130OSM   H11S13995   1.222   4.666   7.502  0.4900  0.0766  1.6157
  130OSM   H11T13996   1.394   4.634   7.491 -0.2030  2.1674  0.7255
  130OSM   C12S13997   1.302   4.518   7.645 -0.2527 -0.0198 -0.9498
  130OSM   H12S13998   1.397   4.467   7.671 -2.0424 -2.4635  1.0566
  130OSM   H12T13999   1.226   4.438   7.655  3.8725 -3.7915  1.7486
  130OSM   C13S14000   1.278   4.625   7.754 -0.1898 -0.5875  0.8604
  130OSM   H13S14001   1.179   4.672   7.733 -1.2905 -2.4279  1.7714
  130OSM   H13T14002   1.357   4.703   7.745 -0.5200 -0.2127  1.1612
  130OSM   C14S14003   1.274   4.557   7.892 -0.3968  0.3425 -0.1149
  130OSM   H14S14004   1.365   4.504   7.926 -1.5524 -1.3393  0.4017
  130OSM   H14T14005   1.197   4.477   7.894  0.1798 -0.2018  1.6666
  130OSM   C15S14006   1.229   4.658   7.996  0.1476  0.1564 -0.5683
  130OSM   H15S14007   1.141   4.711   7.955  0.6404  0.7697 -0.8498
  130OSM   H15T14008   1.312   4.732   8.002  1.9056 -1.7802 -0.1860
  130OSM   C16S14009   1.214   4.595   8.134 -0.5518  0.1609 -0.5024
  130OSM   H16S14010   1.213   4.662   8.223  3.2101 -0.2095 -0.0639
  130OSM   H16T14011   1.305   4.532   8.149  0.0043  1.1989  0.5795
  130OSM   C17S14012   1.094   4.503   8.149 -0.0162  0.5661  0.3000
  130OSM   H17S14013   1.086   4.427   8.068 -0.7144 -0.0945  0.9748
  130OSM   H17T14014   0.997   4.558   8.151 -0.1628  0.2537  2.5051
  130OSM   C18S14015   1.099   4.426   8.286 -0.3155  0.8866 -0.0196
  130OSM   H18S14016   1.198   4.379   8.300 -0.5465  0.4494  0.1500
  130OSM   H18T14017   1.020   4.348   8.285  0.9955 -0.4815  1.1700
  130OSM   H18U14018   1.071   4.493   8.371 -1.7209  1.0375 -0.5791
  130OSM    C1F14019   0.794   4.539   6.582  0.1144 -0.8110 -0.8774
  130OSM     OF14020   0.741   4.468   6.500  0.4338  0.4108 -0.0886
  130OSM    C2F14021   0.730   4.603   6.704 -0.8353 -0.0996 -0.2976
  130OSM    H2F14022   0.769   4.706   6.704 -0.6985 -0.1372 -1.9461
  130OSM    H2G14023   0.767   4.558   6.799  0.0960  2.2096  0.4493
  130OSM    C3F14024   0.572   4.611   6.688 -0.0954 -0.2801 -0.0504
  130OSM    H3F14025   0.535   4.511   6.655 -1.5100  0.1710  0.1733
  130OSM    H3G14026   0.555   4.688   6.610 -3.8319  0.9743  1.9344
  130OSM    C4F14027   0.496   4.663   6.811  0.4700 -0.1664 -0.1334
  130OSM    H4F14028   0.387   4.665   6.791  0.7219 -0.8547 -1.6128
  130OSM    H4G14029   0.530   4.766   6.836 -0.9025  0.0980  0.7114
  130OSM    C5F14030   0.521   4.571   6.933  0.3133  0.0418 -0.0097
  130OSM    H5F14031   0.624   4.584   6.972  0.3269  1.8393 -0.5998
  130OSM    H5G14032   0.511   4.466   6.899 -0.1817 -0.1888  0.8340
  130OSM    C6F14033   0.427   4.593   7.048 -0.3834  0.1387 -0.6449
  130OSM    H6F14034   0.431   4.499   7.107 -2.8417 -0.2710 -1.0846
  130OSM    H6G14035   0.325   4.598   7.004  0.3509 -2.7570 -2.8911
  130OSM    C7F14036   0.464   4.711   7.139 -0.3061 -0.2877 -0.1158
  130OSM    H7F14037   0.428   4.795   7.075 -1.8755 -1.1589 -0.4091
  130OSM    H7G14038   0.571   4.720   7.165 -0.1747 -0.6234 -0.5246
  130OSM    C8F14039   0.375   4.708   7.264 -0.0209 -0.0945 -0.2307
  130OSM    H8F14040   0.383   4.609   7.312  1.7771  0.7728  1.3109
  130OSM    H8G14041   0.274   4.712   7.217  0.6688 -0.6417 -1.7728
  130OSM    C9F14042   0.404   4.827   7.359  0.9046  0.6822  0.0670
  130OSM    H9F14043   0.391   4.933   7.334  0.3583  0.9039  1.2632
  130OSM   C10F14044   0.446   4.808   7.490  1.0368  0.0990 -0.5522
  130OSM   H10F14045   0.467   4.899   7.548 -0.0032  0.3307 -0.5322
  130OSM   C11F14046   0.473   4.682   7.555  0.5142  0.1450 -0.1957
  130OSM   H11F14047   0.573   4.682   7.603 -0.9168  0.6530  2.9242
  130OSM   H11G14048   0.471   4.598   7.482 -1.9127  2.0861 -2.4345
  130OSM   C12F14049   0.373   4.640   7.660  0.2306 -0.5858 -0.1305
  130OSM   H12F14050   0.413   4.541   7.689  0.1403 -0.4870  0.3278
  130OSM   H12G14051   0.278   4.631   7.604  0.1476 -2.2372  0.2594
  130OSM   C13F14052   0.359   4.724   7.781 -0.8495 -0.3222 -0.6599
  130OSM   H13F14053   0.345   4.834   7.774  1.5469  0.3090  3.0085
  130OSM   H13G14054   0.461   4.713   7.825 -0.7196  1.2278 -0.5466
  130OSM   C14F14055   0.284   4.652   7.901 -0.7141  0.6080  0.7174
  130OSM   H14F14056   0.336   4.554   7.900 -1.3920  0.2533 -0.3299
  130OSM   H14G14057   0.180   4.627   7.870 -0.0596 -1.7940  0.3977
  130OSM   C15F14058   0.298   4.721   8.028  0.1090  0.1920 -0.6248
  130OSM   H15F14059   0.247   4.820   8.028  1.2745  0.8581  2.0839
  130OSM   H15G14060   0.407   4.738   8.043  0.4136 -0.0814 -2.3919
  130OSM   C16F14061   0.243   4.636   8.144  0.2958  0.4067  0.0363
  130OSM   H16F14062   0.297   4.540   8.157 -1.1013 -0.6012 -1.4029
  130OSM   H16G14063   0.141   4.613   8.106  0.6432 -2.5313  0.7986
  130OSM   C17F14064   0.229   4.703   8.279  0.5476  0.3770 -0.1699
  130OSM   H17F14065   0.162   4.789   8.259  0.7980  0.3257 -1.2709
  130OSM   H17G14066   0.323   4.744   8.321  0.7492  0.5571 -0.7989
  130OSM   C18F14067   0.155   4.606   8.375  0.2503  0.1876  0.4905
  130OSM   H18F14068   0.104   4.668   8.451 -0.5476 -0.7675  0.7392
  130OSM   H18G14069   0.241   4.559   8.429  0.5896  0.5678  0.2843
  130OSM   H18H14070   0.077   4.538   8.334 -1.0854  1.0413  1.5905
  131OSM      N14071   6.083   6.685   5.629 -0.2906 -0.1727  0.1185
  131OSM    C1514072   6.062   6.822   5.674 -0.2395 -0.8021 -0.0124
  131OSM   H15A14073   6.123   6.884   5.610  0.7416 -1.4416  0.2880
  131OSM   H15B14074   6.103   6.842   5.772 -0.7165  0.9010 -0.1464
  131OSM   H15C14075   5.957   6.844   5.670 -0.2056 -0.6003  0.1458
  131OSM    C1414076   6.013   6.654   5.498 -0.2316 -0.4339 -0.0729
  131OSM   H14A14077   6.042   6.731   5.429  0.7285 -0.5980  0.1371
  131OSM   H14B14078   5.908   6.675   5.510 -0.3507 -1.9532  1.7781
  131OSM   H14C14079   6.042   6.559   5.455  0.1758  0.4925 -1.8714
  131OSM    C1314080   6.225   6.671   5.610  0.2447 -0.2242 -0.1735
  131OSM   H13A14081   6.255   6.743   5.535  0.0571  0.1856  0.1377
  131OSM   H13B14082   6.257   6.574   5.575  1.4684 -0.4241  1.4493
  131OSM   H13C14083   6.275   6.685   5.705 -2.0413 -0.4570  1.0927
  131OSM    C1214084   6.027   6.591   5.735 -0.2213  0.5971 -0.5421
  131OSM   H12A14085   6.068   6.492   5.725  0.1749  0.6815  0.1729
  131OSM   H12B14086   5.921   6.595   5.716 -0.2718  0.3169 -0.3126
  131OSM    C1114087   6.046   6.639   5.886  0.3245  0.7845  0.6400
  131OSM   H11A14088   6.155   6.658   5.888  0.9175 -2.2153 -0.5534
  131OSM   H11B14089   6.017   6.562   5.960 -2.5506  3.5277  2.5401
  131OSM      P14090   5.804   6.745   5.933 -0.1423  0.7130 -0.5021
  131OSM    O1314091   5.736   6.864   5.882 -0.4330  0.2708  0.7848
  131OSM    O1414092   5.752   6.613   5.885  0.0786 -0.1259 -0.5225
  131OSM    O1114093   5.804   6.757   6.093  0.1397 -0.3103 -0.2908
  131OSM    O1214094   5.960   6.753   5.904  0.7081 -0.5544  0.3272
  131OSM    C1S14095   5.787   6.884   6.153  0.5264 -0.1489  0.1440
  131OSM    H1S14096   5.681   6.914   6.143  0.2983 -0.6698  0.9280
  131OSM    H1T14097   5.863   6.959   6.124  1.0121 -1.3472 -1.7710
  131OSM     NF14098   5.795   6.998   6.366 -0.1235 -0.3952  0.2714
  131OSM    HNF14099   5.862   7.070   6.353 -0.2805 -0.4280 -0.7571
  131OSM    C2S14100   5.826   6.873   6.298  0.0987  0.1984 -0.1312
  131OSM    H2S14101   5.769   6.790   6.345 -1.3576 -0.4053 -2.9128
  131OSM    C3S14102   5.974   6.835   6.314  0.1372 -0.7021 -0.1947
  131OSM    H3S14103   6.045   6.901   6.258  2.3097 -3.8812 -1.3610
  131OSM     O314104   6.013   6.724   6.250  0.3998  0.5167 -0.0634
  131OSM    HO314105   5.944   6.720   6.183  1.4372  0.0689 -1.1198
  131OSM    C4S14106   6.015   6.818   6.456 -0.8806  0.7336 -0.0682
  131OSM    H4S14107   5.949   6.747   6.509 -1.2983 -0.9507 -2.7398
  131OSM    C5S14108   6.119   6.877   6.516 -0.1493 -0.3610 -0.5566
  131OSM    H5S14109   6.178   6.940   6.448 -0.3985  0.2331 -0.2242
  131OSM    C6S14110   6.168   6.856   6.660  0.0173  0.1999 -0.0965
  131OSM    H6S14111   6.144   6.948   6.717  0.2517  0.5974 -0.6435
  131OSM    H6T14112   6.277   6.841   6.671 -0.3764 -1.6173  1.6293
  131OSM    C7S14113   6.093   6.739   6.733 -0.3168  1.2154 -0.1187
  131OSM    H7S14114   6.126   6.642   6.690  2.6083  2.9978 -2.0644
  131OSM    H7T14115   5.985   6.750   6.708 -0.3793 -2.8223 -1.9511
  131OSM    C8S14116   6.121   6.750   6.884 -0.1943 -0.2621 -0.4837
  131OSM    H8S14117   6.138   6.856   6.913  0.4987 -0.3364 -0.6289
  131OSM    H8T14118   6.213   6.697   6.915 -0.7879 -0.4046  1.0486
  131OSM    C9S14119   6.004   6.702   6.972 -0.9400  0.2227  0.4099
  131OSM    H9S14120   5.995   6.597   6.939  0.4158  0.0750  0.4612
  131OSM    H9T14121   5.909   6.753   6.946  0.8755  2.7068 -1.6080
  131OSM   C10S14122   6.016   6.706   7.127 -0.6305  0.4938 -0.4081
  131OSM   H10S14123   6.082   6.622   7.155 -0.6176  0.5986 -0.1170
  131OSM   H10T14124   5.912   6.686   7.159 -0.3854 -1.5482 -0.8408
  131OSM   C11S14125   6.074   6.832   7.196 -0.3409 -0.3561  0.4191
  131OSM   H11S14126   6.006   6.917   7.174 -0.9557 -0.6293  1.2502
  131OSM   H11T14127   6.174   6.849   7.148  0.2568 -1.3548  1.3091
  131OSM   C12S14128   6.072   6.804   7.343 -0.8059  0.3855  0.8476
  131OSM   H12S14129   6.118   6.704   7.359  0.1187  0.4788 -1.0989
  131OSM   H12T14130   5.966   6.793   7.375 -0.6034 -0.2219  1.3220
  131OSM   C13S14131   6.146   6.903   7.425 -0.3156 -0.9565 -0.0398
  131OSM   H13S14132   6.091   6.998   7.433 -0.9140 -1.2299 -0.8971
  131OSM   H13T14133   6.245   6.925   7.379 -0.1499  1.0874  1.2293
  131OSM   C14S14134   6.177   6.848   7.567 -0.9180  0.6426 -0.1450
  131OSM   H14S14135   6.255   6.771   7.550 -1.4241  0.2635 -0.7563
  131OSM   H14T14136   6.098   6.804   7.632 -0.6942 -1.6753 -1.3915
  131OSM   C15S14137   6.253   6.957   7.642 -0.1067 -0.3264  0.1061
  131OSM   H15S14138   6.180   7.040   7.654  2.1164  2.0556 -2.2143
  131OSM   H15T14139   6.348   6.983   7.590 -0.5856 -0.0325 -0.6215
  131OSM   C16S14140   6.308   6.925   7.777  0.0860  0.2103 -0.8209
  131OSM   H16S14141   6.388   6.848   7.773 -0.6152 -0.5306 -0.7932
  131OSM   H16T14142   6.230   6.874   7.838  0.5854  0.6230  0.1773
  131OSM   C17S14143   6.362   7.047   7.840  0.7095 -0.2114 -0.5542
  131OSM   H17S14144   6.283   7.125   7.849  1.2101  0.2188  0.1950
  131OSM   H17T14145   6.428   7.094   7.763  0.5288 -2.1017 -1.8842
  131OSM   C18S14146   6.434   7.042   7.977  0.6059  0.7299  0.1522
  131OSM   H18S14147   6.375   6.977   8.045 -1.1602  1.4581 -0.6594
  131OSM   H18T14148   6.432   7.145   8.018 -1.4482 -0.0783  2.2211
  131OSM   H18U14149   6.539   7.007   7.967  0.2635 -0.7785  1.5741
  131OSM    C1F14150   5.671   7.032   6.393  0.0554  0.2530 -0.4247
  131OSM     OF14151   5.580   6.960   6.361  0.0217  0.4254 -0.1544
  131OSM    C2F14152   5.653   7.163   6.464 -0.2854 -0.2370 -0.1193
  131OSM    H2F14153   5.573   7.219   6.411 -1.3485 -1.1447  0.5133
  131OSM    H2G14154   5.748   7.220   6.466  0.5380 -1.6089  0.7013
  131OSM    C3F14155   5.629   7.134   6.614 -0.0975 -0.0352 -0.3321
  131OSM    H3F14156   5.710   7.071   6.656 -1.1719 -1.5672 -0.4920
  131OSM    H3G14157   5.536   7.077   6.632 -0.7632  0.7089 -1.3518
  131OSM    C4F14158   5.613   7.266   6.697 -1.0159  0.0339  0.5585
  131OSM    H4F14159   5.520   7.244   6.753  0.1661  1.3990  3.1420
  131OSM    H4G14160   5.596   7.356   6.633  1.6197 -1.4473 -2.3527
  131OSM    C5F14161   5.727   7.297   6.794 -0.5074  0.7390  0.4616
  131OSM    H5F14162   5.702   7.394   6.841  0.6892  1.2191  0.1104
  131OSM    H5G14163   5.829   7.300   6.751 -0.3813 -0.1758  0.6895
  131OSM    C6F14164   5.728   7.195   6.909 -0.6462 -0.8711  0.6117
  131OSM    H6F14165   5.718   7.087   6.884 -1.2843 -0.7197  0.2088
  131OSM    H6G14166   5.646   7.229   6.976 -0.8859  0.7776 -0.4939
  131OSM    C7F14167   5.852   7.216   6.990  0.3995 -0.7563 -0.3887
  131OSM    H7F14168   5.872   7.325   6.990 -0.4791 -0.5721 -2.1044
  131OSM    H7G14169   5.931   7.161   6.934  0.5510 -1.5336  0.5905
  131OSM    C8F14170   5.846   7.172   7.132 -0.8736 -0.6437  0.0865
  131OSM    H8F14171   5.836   7.063   7.150 -0.2682 -0.8048 -0.5566
  131OSM    H8G14172   5.757   7.219   7.180  0.6848  2.7548 -0.2156
  131OSM    C9F14173   5.967   7.213   7.208  0.1119  0.0025  0.1121
  131OSM    H9F14174   6.054   7.157   7.171  0.6269  0.0069  1.3037
  131OSM   C10F14175   5.989   7.300   7.312 -0.4332  0.8857  0.3961
  131OSM   H10F14176   6.093   7.316   7.342 -1.1454  1.1563  2.8375
  131OSM   C11F14177   5.881   7.377   7.394  0.9025  0.6729 -0.5883
  131OSM   H11F14178   5.781   7.356   7.350  0.9117 -2.7956  0.9352
  131OSM   H11G14179   5.896   7.487   7.391  1.1641  0.6590  0.2252
  131OSM   C12F14180   5.891   7.350   7.547 -0.3606  0.7456  0.0928
  131OSM   H12F14181   5.856   7.249   7.575 -2.8002  1.9294  1.4351
  131OSM   H12G14182   5.821   7.413   7.606  0.0296 -0.2598  1.6465
  131OSM   C13F14183   6.035   7.369   7.609  0.3871  0.6072  0.6555
  131OSM   H13F14184   6.065   7.473   7.585  0.5030  0.6995  1.1798
  131OSM   H13G14185   6.099   7.301   7.549  1.4619  3.5081 -1.5655
  131OSM   C14F14186   6.041   7.347   7.768  0.8835  0.1358  0.8083
  131OSM   H14F14187   6.034   7.239   7.789 -2.2307 -0.2603 -1.7967
  131OSM   H14G14188   5.943   7.388   7.800 -0.6604 -1.5428 -1.6384
  131OSM   C15F14189   6.148   7.420   7.835 -0.5509  0.0150 -0.2175
  131OSM   H15F14190   6.170   7.518   7.789  0.6542  0.8608  2.1059
  131OSM   H15G14191   6.244   7.364   7.831 -0.3523  0.3687 -0.4080
  131OSM   C16F14192   6.128   7.435   7.988  0.0188  0.2207 -0.2730
  131OSM   H16F14193   6.077   7.344   8.026  1.0031  0.0777  0.7069
  131OSM   H16G14194   6.053   7.514   8.010 -0.1093  0.5815 -1.9098
  131OSM   C17F14195   6.256   7.459   8.067  0.6158  0.2662  0.0261
  131OSM   H17F14196   6.283   7.564   8.044 -2.8241  1.2711  0.2437
  131OSM   H17G14197   6.343   7.399   8.032 -0.5046 -1.7899  0.6909
  131OSM   C18F14198   6.246   7.444   8.213 -0.1833 -0.3398 -0.4862
  131OSM   H18F14199   6.349   7.431   8.251 -0.0216 -0.0236 -0.8111
  131OSM   H18G14200   6.186   7.352   8.232  0.5825 -0.6420  0.4438
  131OSM   H18H14201   6.196   7.534   8.253  0.3375 -0.7461  1.0833
  132OSM      N14202   0.450   2.646   6.234 -0.2723  0.0430 -0.6914
  132OSM    C1514203   0.465   2.782   6.170 -0.5533 -0.1221 -0.5032
  132OSM   H15A14204   0.563   2.794   6.128 -0.5676 -2.6574 -1.3507
  132OSM   H15B14205   0.450   2.866   6.235 -1.6309 -0.1617 -0.6764
  132OSM   H15C14206   0.391   2.793   6.091 -0.5227 -1.0118 -0.6672
  132OSM    C1414207   0.308   2.625   6.278  0.5236  0.0426 -0.3750
  132OSM   H14A14208   0.292   2.529   6.325  1.3776  0.1766  0.1931
  132OSM   H14B14209   0.247   2.623   6.189  0.9726 -1.6524 -0.6604
  132OSM   H14C14210   0.266   2.691   6.353  3.4103  0.8341  0.6247
  132OSM    C1314211   0.498   2.557   6.123  0.1866 -0.3363 -0.4036
  132OSM   H13A14212   0.592   2.589   6.081 -0.1994  1.3931  0.0243
  132OSM   H13B14213   0.438   2.557   6.033 -0.6849 -1.8934  0.1622
  132OSM   H13C14214   0.508   2.455   6.158  3.2593  0.6412  1.8327
  132OSM    C1214215   0.540   2.624   6.352  0.0158 -0.0772  0.4528
  132OSM   H12A14216   0.504   2.678   6.438 -0.8191  0.8898 -0.4842
  132OSM   H12B14217   0.635   2.666   6.320 -0.3650  0.5739  0.1502
  132OSM    C1114218   0.551   2.485   6.407  0.0749 -0.6694 -0.3479
  132OSM   H11A14219   0.448   2.444   6.410 -0.2446  0.1397 -0.0965
  132OSM   H11B14220   0.582   2.498   6.513  0.4278  0.5333 -0.5836
  132OSM      P14221   0.788   2.411   6.327  0.1312 -0.0004 -0.4208
  132OSM    O1314222   0.848   2.308   6.242 -0.5662  0.0639 -0.3951
  132OSM    O1414223   0.815   2.550   6.293  0.2710  0.2824  0.6409
  132OSM    O1114224   0.809   2.386   6.476  0.5161 -0.0983  0.1025
  132OSM    O1214225   0.633   2.395   6.325 -0.4078  0.0480 -0.1581
  132OSM    C1S14226   0.776   2.252   6.530 -0.3044 -0.0689 -0.0530
  132OSM    H1S14227   0.815   2.166   6.471  1.1661  0.4376  0.1552
  132OSM    H1T14228   0.665   2.244   6.529 -0.3850  1.0259 -0.6999
  132OSM     NF14229   0.771   2.104   6.733 -0.0395 -0.0171  0.0897
  132OSM    HNF14230   0.709   2.114   6.811 -1.1064  0.8205 -0.8473
  132OSM    C2S14231   0.827   2.227   6.681 -0.2849 -0.0403  0.4851
  132OSM    H2S14232   0.938   2.223   6.676 -0.3258  0.5968 -1.0435
  132OSM    C3S14233   0.806   2.350   6.774  0.0140  0.2582 -1.4434
  132OSM    H3S14234   0.697   2.368   6.778  0.0849  0.8869 -2.0737
  132OSM     O314235   0.886   2.463   6.733  0.3036 -0.2369  0.6667
  132OSM    HO314236   0.891   2.437   6.641  2.5581 -1.3448  1.0793
  132OSM    C4S14237   0.856   2.315   6.914  0.4955 -0.8165  0.6207
  132OSM    H4S14238   0.963   2.289   6.916  0.2193 -2.1415 -0.6086
  132OSM    C5S14239   0.786   2.303   7.026  0.4493  0.2652 -0.4511
  132OSM    H5S14240   0.678   2.324   7.027  0.3901 -0.0260 -0.4144
  132OSM    C6S14241   0.844   2.264   7.155  0.5986 -0.4291  0.4451
  132OSM    H6S14242   0.954   2.253   7.145  0.6463 -0.1452  0.6600
  132OSM    H6T14243   0.812   2.160   7.179 -0.9019 -0.8197 -2.9561
  132OSM    C7S14244   0.813   2.363   7.267 -0.2177 -0.0767  1.0370
  132OSM    H7S14245   0.702   2.355   7.276 -0.3629 -1.9069 -1.6442
  132OSM    H7T14246   0.841   2.467   7.243  3.7589 -1.1191  0.7952
  132OSM    C8S14247   0.878   2.317   7.396 -0.2891  0.6070 -0.2642
  132OSM    H8S14248   0.989   2.324   7.388 -0.3262  1.1170 -0.3726
  132OSM    H8T14249   0.866   2.210   7.426 -0.1605  0.8939  0.8283
  132OSM    C9S14250   0.833   2.408   7.502 -0.7221 -0.6277 -0.2682
  132OSM    H9S14251   0.724   2.425   7.510 -0.4731  0.6124  0.6251
  132OSM    H9T14252   0.879   2.509   7.496 -0.2541 -0.8413 -0.3343
  132OSM   C10S14253   0.878   2.358   7.644  0.3382  0.8261  0.1148
  132OSM   H10S14254   0.989   2.357   7.652  0.4884 -0.8605 -1.9210
  132OSM   H10T14255   0.851   2.257   7.679  2.8533  0.6275  1.5459
  132OSM   C11S14256   0.818   2.448   7.756  0.9852 -0.2106  0.3489
  132OSM   H11S14257   0.713   2.456   7.719  0.7100  0.4226  1.2454
  132OSM   H11T14258   0.853   2.553   7.757 -0.9351  0.4594 -0.0094
  132OSM   C12S14259   0.833   2.377   7.888  0.7569  0.5930 -0.3669
  132OSM   H12S14260   0.938   2.348   7.912  0.8754  1.2570 -0.0745
  132OSM   H12T14261   0.762   2.293   7.875 -1.1175  2.0901 -0.0500
  132OSM   C13S14262   0.778   2.468   7.992 -0.2043  0.4250  0.2383
  132OSM   H13S14263   0.684   2.518   7.960 -0.7723 -0.7658  0.0331
  132OSM   H13T14264   0.852   2.550   8.002 -0.5571  1.0615 -2.0203
  132OSM   C14S14265   0.752   2.396   8.123  0.0946  0.8165 -0.3378
  132OSM   H14S14266   0.848   2.347   8.151 -1.1289 -1.3597  0.1987
  132OSM   H14T14267   0.683   2.310   8.108  2.8145 -1.7823  1.5321
  132OSM   C15S14268   0.700   2.489   8.231 -0.1590  0.1768  0.3075
  132OSM   H15S14269   0.594   2.517   8.216 -0.5915 -1.6127 -0.2004
  132OSM   H15T14270   0.757   2.583   8.237  0.0438  0.1177 -0.6690
  132OSM   C16S14271   0.712   2.416   8.361  0.9217 -0.2788 -0.0035
  132OSM   H16S14272   0.818   2.401   8.389  0.5402 -0.8956  1.1627
  132OSM   H16T14273   0.670   2.314   8.349  0.4037  0.0073 -0.6622
  132OSM   C17S14274   0.637   2.492   8.478 -0.4003  0.8141  0.3717
  132OSM   H17S14275   0.532   2.517   8.453  0.2308  4.8770  1.2569
  132OSM   H17T14276   0.683   2.589   8.509  0.1732  0.9847 -0.9998
  132OSM   C18S14277   0.644   2.398   8.601 -0.0229  0.0590 -0.8900
  132OSM   H18S14278   0.589   2.305   8.577 -1.0097 -0.0361  1.5873
  132OSM   H18T14279   0.592   2.444   8.688  0.3918 -3.1426  1.1250
  132OSM   H18U14280   0.748   2.374   8.631 -0.9408  0.4466  2.7953
  132OSM    C1F14281   0.804   1.983   6.677 -0.1573 -0.0620 -0.2503
  132OSM     OF14282   0.886   1.985   6.585 -0.0766  0.2745 -0.0482
  132OSM    C2F14283   0.740   1.860   6.720 -0.4561 -0.6864 -0.1094
  132OSM    H2F14284   0.780   1.776   6.659 -2.8122 -2.9672  1.4255
  132OSM    H2G14285   0.629   1.870   6.717 -0.1722  4.3409  0.7703
  132OSM    C3F14286   0.771   1.816   6.860  0.2743 -0.1212  0.6825
  132OSM    H3F14287   0.881   1.803   6.871  0.3877  0.9711  0.8369
  132OSM    H3G14288   0.728   1.714   6.865 -2.5461  1.1137  3.4842
  132OSM    C4F14289   0.696   1.898   6.974  0.0763 -0.0664 -0.2575
  132OSM    H4F14290   0.588   1.907   6.948  0.2488  0.4471 -0.8006
  132OSM    H4G14291   0.740   1.998   6.991 -1.1119  0.1614  1.6177
  132OSM    C5F14292   0.684   1.815   7.105 -0.4797  0.0762  0.2195
  132OSM    H5F14293   0.784   1.774   7.132 -0.3902  1.3734  1.8945
  132OSM    H5G14294   0.609   1.735   7.087 -2.5200  2.0583 -0.1993
  132OSM    C6F14295   0.652   1.902   7.226 -0.3846 -0.1834 -0.3347
  132OSM    H6F14296   0.728   1.982   7.239 -0.7819 -0.0195  1.1076
  132OSM    H6G14297   0.651   1.841   7.319  0.1491  0.7889  0.3312
  132OSM    C7F14298   0.520   1.976   7.213  0.4944  0.4585 -0.0197
  132OSM    H7F14299   0.449   1.906   7.163  2.2618 -1.9324  0.7161
  132OSM    H7G14300   0.540   2.059   7.143  0.4677  1.0043  0.6133
  132OSM    C8F14301   0.472   2.026   7.349 -0.4433 -0.2447  0.1818
  132OSM    H8F14302   0.461   1.939   7.417 -0.1854 -0.1146  0.3978
  132OSM    H8G14303   0.369   2.065   7.334 -1.1555 -2.5889 -1.2042
  132OSM    C9F14304   0.567   2.124   7.417  0.2483 -0.3595  0.1785
  132OSM    H9F14305   0.595   2.217   7.365  0.7474 -0.1758  0.7747
  132OSM   C10F14306   0.605   2.114   7.546  0.4007  0.5654 -0.6996
  132OSM   H10F14307   0.672   2.193   7.581  0.6566  0.4818 -0.9990
  132OSM   C11F14308   0.565   2.014   7.658 -0.1077  0.2294  0.0856
  132OSM   H11F14309   0.651   1.950   7.687 -1.6662 -2.7010 -1.5174
  132OSM   H11G14310   0.477   1.948   7.643 -0.1631 -0.2063  2.1746
  132OSM   C12F14311   0.525   2.100   7.780  0.1696 -0.0685  0.6293
  132OSM   H12F14312   0.439   2.166   7.754 -0.9465 -2.0759 -0.9691
  132OSM   H12G14313   0.612   2.161   7.812  0.3435  0.5206 -0.9552
  132OSM   C13F14314   0.480   2.005   7.888  0.5390 -0.7236  0.1003
  132OSM   H13F14315   0.544   1.914   7.885  0.6586 -0.6898  1.1951
  132OSM   H13G14316   0.377   1.967   7.872 -0.1512  0.6913  1.0026
  132OSM   C14F14317   0.499   2.086   8.018 -0.4230  0.7399 -0.0056
  132OSM   H14F14318   0.512   2.195   8.005 -0.9340  0.7558 -0.4220
  132OSM   H14G14319   0.587   2.040   8.067 -1.6577 -2.5710 -0.7843
  132OSM   C15F14320   0.385   2.061   8.116  0.0982  0.1714  0.8222
  132OSM   H15F14321   0.358   1.953   8.116 -2.4989  0.7593 -1.3544
  132OSM   H15G14322   0.298   2.121   8.080  1.5694  0.5125 -2.3906
  132OSM   C16F14323   0.419   2.109   8.263  0.7421  0.2752  0.9400
  132OSM   H16F14324   0.450   2.215   8.248 -0.6134  0.3266 -1.8677
  132OSM   H16G14325   0.504   2.053   8.308 -0.4823 -2.7918 -0.4291
  132OSM   C17F14326   0.285   2.098   8.340  0.2100 -0.2003 -0.2345
  132OSM   H17F14327   0.204   2.108   8.265 -1.0033 -0.0432  1.0884
  132OSM   H17G14328   0.273   2.181   8.412 -1.1310 -1.7780  1.4141
  132OSM   C18F14329   0.277   1.961   8.410 -0.5503  0.0068 -0.1463
  132OSM   H18F14330   0.330   1.952   8.507 -1.8510 -0.3830  0.5304
  132OSM   H18G14331   0.315   1.894   8.330 -0.4321  0.4753 -0.4889
  132OSM   H18H14332   0.173   1.925   8.425 -1.1322  0.7463 -2.1864
  133OSM      N14333   1.117   1.567   5.850 -0.1662  0.2586 -0.3504
  133OSM    C1514334   0.965   1.556   5.835 -0.3655 -0.5279 -0.0543
  133OSM   H15A14335   0.919   1.536   5.930 -3.2793 -0.3614 -1.3754
  133OSM   H15B14336   0.934   1.471   5.776  1.9508 -1.2424 -0.2797
  133OSM   H15C14337   0.930   1.652   5.799 -0.3978 -0.7402 -0.6009
  133OSM    C1414338   1.167   1.425   5.870  0.3128 -0.1928  0.9379
  133OSM   H14A14339   1.118   1.354   5.805 -2.0633  1.3575  0.9556
  133OSM   H14B14340   1.145   1.405   5.974  3.5803 -2.2043  1.3280
  133OSM   H14C14341   1.274   1.428   5.861  0.5155  0.2293  3.1418
  133OSM    C1314342   1.174   1.620   5.716 -0.0747 -0.1877 -0.0104
  133OSM   H13A14343   1.140   1.567   5.628  1.0981  1.4394 -1.4918
  133OSM   H13B14344   1.282   1.616   5.719 -0.0658  0.3998  0.5507
  133OSM   H13C14345   1.131   1.718   5.700  1.1874  0.5320  0.8472
  133OSM    C1214346   1.164   1.648   5.967  0.5442  0.0784  0.7954
  133OSM   H12A14347   1.138   1.752   5.959  1.0066 -0.0137 -2.7530
  133OSM   H12B14348   1.272   1.644   5.966  0.5254 -0.8086  1.2717
  133OSM    C1114349   1.118   1.600   6.109 -0.1363  0.5418 -0.1796
  133OSM   H11A14350   1.008   1.586   6.115 -0.0903  0.1816 -0.1706
  133OSM   H11B14351   1.143   1.682   6.179  2.2609 -0.0722 -0.2718
  133OSM      P14352   1.337   1.464   6.198  0.0925  0.1254 -0.1260
  133OSM    O1314353   1.373   1.321   6.197  0.0702 -0.5485 -0.3608
  133OSM    O1414354   1.413   1.564   6.121 -0.1185  0.0574 -0.1672
  133OSM    O1114355   1.326   1.501   6.350  0.0065 -0.1536  0.1891
  133OSM    O1214356   1.181   1.474   6.151  0.0474  0.2626  0.2682
  133OSM    C1S14357   1.209   1.462   6.424 -0.6748 -0.0148  1.1401
  133OSM    H1S14358   1.215   1.353   6.440  2.9488 -0.0200  0.2056
  133OSM    H1T14359   1.111   1.480   6.375 -0.1984 -3.1735 -1.0973
  133OSM     NF14360   1.137   1.464   6.650  0.0444 -0.1236 -0.5814
  133OSM    HNF14361   1.038   1.468   6.647  0.0557 -0.6238 -2.1068
  133OSM    C2S14362   1.206   1.537   6.559  0.5047 -0.0720 -0.4029
  133OSM    H2S14363   1.306   1.536   6.608  0.2219 -4.1982  0.2194
  133OSM    C3S14364   1.164   1.680   6.516  1.6094  0.6249  0.7228
  133OSM    H3S14365   1.063   1.668   6.471  0.5550  0.0293  3.1450
  133OSM     O314366   1.245   1.742   6.421  0.9362 -0.1721  0.1487
  133OSM    HO314367   1.292   1.672   6.375 -1.5400 -2.5592  1.1201
  133OSM    C4S14368   1.153   1.764   6.637 -0.2663  0.3499  0.8721
  133OSM    H4S14369   1.050   1.775   6.673 -0.0096 -1.0963  2.0913
  133OSM    C5S14370   1.249   1.827   6.704  0.3865 -0.7230 -0.3826
  133OSM    H5S14371   1.352   1.817   6.665  0.3597  0.2454 -0.7247
  133OSM    C6S14372   1.236   1.919   6.827  0.4092  0.1629 -0.2652
  133OSM    H6S14373   1.203   2.023   6.804 -0.3363 -0.3293 -1.4418
  133OSM    H6T14374   1.343   1.937   6.852  0.4585  2.2301 -1.8084
  133OSM    C7S14375   1.167   1.856   6.950 -0.6601 -0.1770 -0.0715
  133OSM    H7S14376   1.213   1.762   6.986 -0.1777  0.3418  0.6735
  133OSM    H7T14377   1.069   1.827   6.907 -0.6470 -2.8721  1.5707
  133OSM    C8S14378   1.155   1.959   7.062  0.3274 -0.0134 -0.3687
  133OSM    H8S14379   1.083   2.039   7.036 -0.9720 -1.3436 -0.9298
  133OSM    H8T14380   1.255   1.999   7.087  0.6561 -1.3170  0.4464
  133OSM    C9S14381   1.105   1.893   7.185  0.0980  0.1321  1.3376
  133OSM    H9S14382   1.171   1.809   7.217 -0.7730 -1.8976 -1.9962
  133OSM    H9T14383   0.999   1.866   7.170  0.2421 -0.0787  0.6736
  133OSM   C10S14384   1.088   1.982   7.315  0.0327 -0.4152  0.3304
  133OSM   H10S14385   1.004   2.050   7.292 -0.1682 -0.9420 -0.5083
  133OSM   H10T14386   1.172   2.054   7.329 -0.6110  0.1156  1.4609
  133OSM   C11S14387   1.056   1.900   7.436  0.3586 -0.1432 -0.2022
  133OSM   H11S14388   1.126   1.814   7.448 -1.5209 -1.6859 -0.0410
  133OSM   H11T14389   0.955   1.857   7.453  0.4337  0.6878  2.6116
  133OSM   C12S14390   1.084   1.999   7.555  0.6408  0.6502  0.3085
  133OSM   H12S14391   1.006   2.076   7.532  0.6819  1.0720  1.5379
  133OSM   H12T14392   1.179   2.053   7.536  0.0700  1.3182 -0.7235
  133OSM   C13S14393   1.077   1.945   7.698  0.5921  0.3467  0.3735
  133OSM   H13S14394   1.164   1.875   7.702 -1.4403 -2.3643 -1.0334
  133OSM   H13T14395   0.988   1.879   7.704 -0.4584  1.8540  1.4951
  133OSM   C14S14396   1.076   2.051   7.812  0.9286  0.4204  0.8341
  133OSM   H14S14397   0.982   2.111   7.815  0.1308 -0.6428 -1.6319
  133OSM   H14T14398   1.159   2.121   7.790 -0.5774  2.3917  1.1991
  133OSM   C15S14399   1.074   1.987   7.949 -0.1598 -0.5324  0.5958
  133OSM   H15S14400   1.162   1.922   7.960 -0.7909 -1.5181 -0.1241
  133OSM   H15T14401   0.981   1.928   7.967 -2.0730  2.4279  0.9464
  133OSM   C16S14402   1.074   2.091   8.063 -0.8597  0.1113  0.0306
  133OSM   H16S14403   1.068   2.042   8.163 -1.5760  0.5683  0.2117
  133OSM   H16T14404   0.980   2.149   8.053 -0.9137 -0.2499 -1.6237
  133OSM   C17S14405   1.195   2.176   8.070 -0.3545  0.2700  0.3704
  133OSM   H17S14406   1.226   2.229   7.977 -0.0094  1.4216  1.1265
  133OSM   H17T14407   1.280   2.109   8.095  0.8897  0.7158 -2.4377
  133OSM   C18S14408   1.188   2.288   8.174 -0.1850  0.3390  0.7372
  133OSM   H18S14409   1.087   2.333   8.162 -0.8033 -1.2260 -0.1318
  133OSM   H18T14410   1.265   2.366   8.157 -0.0938 -0.2711 -1.9003
  133OSM   H18U14411   1.190   2.247   8.277  1.7367  0.2520  0.6833
  133OSM    C1F14412   1.184   1.356   6.713  0.3117 -0.5660 -0.4734
  133OSM     OF14413   1.305   1.330   6.725  0.0260 -0.4645 -0.1400
  133OSM    C2F14414   1.088   1.269   6.792 -0.1284  0.0139 -0.3874
  133OSM    H2F14415   1.001   1.257   6.723  0.8952  0.5756 -1.8064
  133OSM    H2G14416   1.059   1.338   6.874 -1.3183 -0.4918 -0.3750
  133OSM    C3F14417   1.132   1.125   6.820  0.3788  0.2160 -0.1822
  133OSM    H3F14418   1.231   1.134   6.869 -0.3459  0.4100  1.2645
  133OSM    H3G14419   1.146   1.086   6.716 -0.1255 -0.8157  0.1272
  133OSM    C4F14420   1.030   1.043   6.903  0.2335  0.6718 -0.6717
  133OSM    H4F14421   1.081   0.945   6.917  0.5523  1.0447  0.9437
  133OSM    H4G14422   0.938   1.030   6.844  0.7945 -3.5183 -0.7417
  133OSM    C5F14423   0.988   1.093   7.041 -0.2003  0.5013 -0.0776
  133OSM    H5F14424   0.944   1.192   7.018 -2.3904 -0.7335 -1.3627
  133OSM    H5G14425   1.077   1.117   7.103  0.4485 -0.8940 -0.4472
  133OSM    C6F14426   0.886   1.002   7.108  0.0114  0.4001 -0.3002
  133OSM    H6F14427   0.936   0.904   7.128  1.0421  1.3769  2.1195
  133OSM    H6G14428   0.797   0.997   7.041 -0.9557  2.1998  0.8146
  133OSM    C7F14429   0.852   1.062   7.240  0.5030  0.2383  0.3190
  133OSM    H7F14430   0.838   1.171   7.223 -1.7727 -0.3423 -1.8938
  133OSM    H7G14431   0.927   1.029   7.315  1.8736  2.2689 -0.1408
  133OSM    C8F14432   0.712   1.005   7.282  0.1039 -0.0872 -1.5318
  133OSM    H8F14433   0.719   0.894   7.289 -1.1912 -0.2093 -2.0829
  133OSM    H8G14434   0.646   1.034   7.198 -4.3143 -1.8229  1.1548
  133OSM    C9F14435   0.682   1.070   7.411 -0.1767 -0.0131 -0.3320
  133OSM    H9F14436   0.660   1.177   7.396 -2.1787 -0.2375  0.8123
  133OSM   C10F14437   0.668   1.017   7.538  0.3363 -0.0048 -0.0037
  133OSM   H10F14438   0.645   1.080   7.625  2.2179  1.4802 -0.5551
  133OSM   C11F14439   0.694   0.867   7.573 -0.2542  0.4257  0.2214
  133OSM   H11F14440   0.755   0.807   7.502 -1.2808 -0.4684  0.0769
  133OSM   H11G14441   0.602   0.807   7.589  0.0280 -0.7783 -2.3830
  133OSM   C12F14442   0.793   0.856   7.692 -0.1637  0.2005  0.2297
  133OSM   H12F14443   0.749   0.911   7.778  0.2733 -0.3085  0.7877
  133OSM   H12G14444   0.890   0.900   7.661 -2.0825  2.4646 -2.8421
  133OSM   C13F14445   0.804   0.712   7.746 -0.1302 -0.4650 -0.9877
  133OSM   H13F14446   0.881   0.701   7.825  0.7614 -2.3905 -2.0958
  133OSM   H13G14447   0.834   0.633   7.675  3.2872 -1.2210  1.1397
  133OSM   C14F14448   0.667   0.663   7.813  0.3136 -0.8569  1.2510
  133OSM   H14F14449   0.591   0.640   7.736  1.2129 -1.4912  0.5452
  133OSM   H14G14450   0.628   0.743   7.881 -2.3674  1.3089 -2.6574
  133OSM   C15F14451   0.698   0.531   7.891  0.0430 -0.5937  0.0811
  133OSM   H15F14452   0.761   0.560   7.978 -0.9285  2.5706 -0.1784
  133OSM   H15G14453   0.767   0.466   7.833  3.2457  1.9480  0.9183
  133OSM   C16F14454   0.583   0.446   7.939 -0.4216  0.5549  0.0480
  133OSM   H16F14455   0.618   0.347   7.976 -4.0265 -0.6235  0.5330
  133OSM   H16G14456   0.527   0.413   7.849  0.7562 -0.3759 -0.3491
  133OSM   C17F14457   0.471   0.518   8.015  0.2528  0.1323 -0.0046
  133OSM   H17F14458   0.452   0.618   7.970 -2.2161 -1.2624 -2.1998
  133OSM   H17G14459   0.502   0.533   8.121 -1.1533 -2.8688  0.8657
  133OSM   C18F14460   0.336   0.441   8.027  0.1598 -0.3166 -0.1130
  133OSM   H18F14461   0.359   0.333   8.038 -1.0950 -0.5615  0.0898
  133OSM   H18G14462   0.278   0.462   7.935 -0.4418 -0.6551  0.1871
  133OSM   H18H14463   0.267   0.475   8.107  1.1056 -0.0864  0.6185
  134OSM      N14464   2.295   5.039   6.550 -0.4514 -0.2692 -0.1996
  134OSM    C1514465   2.359   5.101   6.666 -0.0632 -0.1943  0.1438
  134OSM   H15A14466   2.354   5.209   6.659 -1.6035 -0.1841  1.0000
  134OSM   H15B14467   2.464   5.083   6.680  0.0672  0.2342 -0.2640
  134OSM   H15C14468   2.312   5.077   6.760 -1.6644 -0.6420 -0.7437
  134OSM    C1414469   2.333   5.114   6.423  0.3649  0.3034  0.0607
  134OSM   H14A14470   2.431   5.089   6.387 -0.3996 -0.8452 -1.2431
  134OSM   H14B14471   2.331   5.221   6.441  0.0402  0.2343  0.4527
  134OSM   H14C14472   2.264   5.086   6.345  1.1609  0.6018 -0.7543
  134OSM    C1314473   2.339   4.896   6.532  0.1367  0.4501 -0.2900
  134OSM   H13A14474   2.447   4.893   6.533  0.0957 -1.0144  1.8527
  134OSM   H13B14475   2.299   4.861   6.438  1.2401 -1.4917 -0.0742
  134OSM   H13C14476   2.311   4.832   6.614  0.9115  2.0552  1.2713
  134OSM    C1214477   2.140   5.041   6.552 -0.6852  0.1371  0.1453
  134OSM   H12A14478   2.108   4.980   6.469  2.0265 -0.5279 -0.4810
  134OSM   H12B14479   2.129   5.147   6.538  2.0873  0.4245 -0.2115
  134OSM    C1114480   2.074   4.989   6.682 -0.2237  0.4286 -0.5001
  134OSM   H11A14481   1.973   5.037   6.687  0.1315  1.0913  0.4857
  134OSM   H11B14482   2.127   5.024   6.773 -0.5605 -2.0799  0.6983
  134OSM      P14483   1.963   4.759   6.618 -0.2605 -0.3842  0.4714
  134OSM    O1314484   1.888   4.836   6.520  0.2499  0.2613 -0.1813
  134OSM    O1414485   2.042   4.645   6.563  0.2447 -0.6741  0.5680
  134OSM    O1114486   1.866   4.704   6.727 -0.1618 -0.3789 -0.5388
  134OSM    O1214487   2.065   4.845   6.694  0.4894  0.5376  0.2298
  134OSM    C1S14488   1.916   4.657   6.855  0.2517  0.2724 -0.4626
  134OSM    H1S14489   1.925   4.750   6.917 -0.2950  0.7455 -1.0837
  134OSM    H1T14490   2.013   4.604   6.852 -0.3825 -0.9410  0.3019
  134OSM     NF14491   1.873   4.541   7.060 -0.0493 -0.0888 -0.7801
  134OSM    HNF14492   1.941   4.468   7.068  0.0792 -0.0153 -1.2020
  134OSM    C2S14493   1.817   4.563   6.930  0.2821 -0.3169 -0.0447
  134OSM    H2S14494   1.711   4.596   6.939 -0.3056 -1.5106 -2.2155
  134OSM    C3S14495   1.810   4.419   6.848 -0.0002 -0.0440 -0.2599
  134OSM    H3S14496   1.915   4.381   6.844 -0.7155 -2.0717  0.1055
  134OSM     O314497   1.770   4.438   6.716 -0.2641 -0.3223  0.6737
  134OSM    HO314498   1.801   4.528   6.698 -1.3032 -0.5823 -2.8283
  134OSM    C4S14499   1.717   4.324   6.913  0.7687  0.4129 -0.2791
  134OSM    H4S14500   1.611   4.354   6.913  1.1782  1.9003 -0.0282
  134OSM    C5S14501   1.741   4.202   6.966  0.3459 -0.6871  0.1296
  134OSM    H5S14502   1.844   4.162   6.972  0.2484 -1.0195 -0.3435
  134OSM    C6S14503   1.639   4.107   7.026  0.1128 -0.0473 -0.6162
  134OSM    H6S14504   1.630   4.010   6.972 -0.2133 -0.1354 -0.4074
  134OSM    H6T14505   1.536   4.146   7.006  1.2174  2.2228 -2.1520
  134OSM    C7S14506   1.667   4.081   7.180  0.4348  0.1927  0.5301
  134OSM    H7S14507   1.756   4.016   7.196 -0.5784 -1.6946 -1.2376
  134OSM    H7T14508   1.580   4.026   7.221  0.4328 -0.8213 -0.7907
  134OSM    C8S14509   1.691   4.202   7.263 -0.0137 -0.0756 -0.1450
  134OSM    H8S14510   1.617   4.282   7.241  0.0839  0.1030  0.1853
  134OSM    H8T14511   1.796   4.235   7.249 -0.1401  0.0141 -0.9396
  134OSM    C9S14512   1.669   4.180   7.414 -0.3144 -0.2993 -0.0242
  134OSM    H9S14513   1.603   4.090   7.415  1.4972 -1.6640 -0.8099
  134OSM    H9T14514   1.619   4.270   7.456  0.2451 -0.3591  0.7838
  134OSM   C10S14515   1.798   4.139   7.482  0.0214 -1.1142  0.1319
  134OSM   H10S14516   1.880   4.212   7.495  0.5476 -1.5695 -0.5514
  134OSM   H10T14517   1.853   4.059   7.428  1.8892  0.3311 -0.1473
  134OSM   C11S14518   1.758   4.096   7.624  0.4721 -0.8200  0.0423
  134OSM   H11S14519   1.700   4.001   7.629 -1.5268  0.3072 -1.2310
  134OSM   H11T14520   1.691   4.172   7.670  0.5644 -1.6256  1.5623
  134OSM   C12S14521   1.881   4.072   7.721  0.1025 -0.2230 -0.9079
  134OSM   H12S14522   1.968   4.138   7.700  0.7425 -0.5925  0.4871
  134OSM   H12T14523   1.927   3.971   7.723 -1.9982 -1.2191  3.0665
  134OSM   C13S14524   1.837   4.082   7.868 -0.2312 -0.5484 -0.4483
  134OSM   H13S14525   1.760   4.005   7.891  0.8214 -1.0958  1.2795
  134OSM   H13T14526   1.787   4.178   7.894  0.4300 -1.0814  2.9279
  134OSM   C14S14527   1.955   4.060   7.970  0.5702  0.0700  0.3627
  134OSM   H14S14528   2.014   4.154   7.976 -0.2972  0.9209 -3.2294
  134OSM   H14T14529   2.015   3.970   7.946  0.8456  0.2335  0.4387
  134OSM   C15S14530   1.892   4.046   8.113 -0.6553 -0.1757 -0.0993
  134OSM   H15S14531   1.835   3.951   8.121 -1.1304  0.3005  2.7344
  134OSM   H15T14532   1.829   4.137   8.124  0.7326  0.9207 -1.1504
  134OSM   C16S14533   2.005   4.048   8.224 -0.0562 -0.6437  0.5806
  134OSM   H16S14534   2.061   4.144   8.222  0.9405 -1.2232 -1.1789
  134OSM   H16T14535   2.077   3.967   8.196 -1.8104 -2.5029  1.3007
  134OSM   C17S14536   1.955   4.027   8.364 -0.1617  0.0619  0.0488
  134OSM   H17S14537   1.864   4.088   8.383  0.6137  1.0255  0.7378
  134OSM   H17T14538   2.039   4.051   8.433  1.1534  1.5367 -1.9951
  134OSM   C18S14539   1.907   3.881   8.388 -0.2117 -0.3095  0.7509
  134OSM   H18S14540   1.814   3.847   8.338 -0.4698  0.4422  0.7114
  134OSM   H18T14541   1.911   3.860   8.497 -1.4207 -1.6706  0.5478
  134OSM   H18U14542   1.982   3.810   8.346  0.0596 -0.3507  1.2918
  134OSM    C1F14543   1.849   4.626   7.162 -0.6952 -0.2412  0.5708
  134OSM     OF14544   1.788   4.727   7.144 -0.0257  0.1060  0.6624
  134OSM    C2F14545   1.912   4.588   7.294 -0.1254  0.0360  0.8176
  134OSM    H2F14546   2.019   4.570   7.273 -0.1487 -0.0117  0.7382
  134OSM    H2G14547   1.876   4.497   7.347  2.2568 -1.2765  0.2715
  134OSM    C3F14548   1.896   4.696   7.411  0.0128 -0.0126  0.0202
  134OSM    H3F14549   1.922   4.794   7.365  0.8225 -1.1665 -2.0711
  134OSM    H3G14550   1.966   4.690   7.496 -0.0883  0.1179  0.1136
  134OSM    C4F14551   1.755   4.714   7.473 -0.2129  0.1271 -0.4799
  134OSM    H4F14552   1.699   4.749   7.384  0.0840 -0.3736 -0.8650
  134OSM    H4G14553   1.752   4.796   7.548 -0.1169  1.1680 -1.6127
  134OSM    C5F14554   1.687   4.590   7.529  0.1666  0.2516  0.6470
  134OSM    H5F14555   1.677   4.519   7.445  0.4987  1.0372 -0.0575
  134OSM    H5G14556   1.583   4.619   7.556 -0.3822 -1.3068  0.2739
  134OSM    C6F14557   1.760   4.526   7.646  0.4087 -0.4587 -0.2601
  134OSM    H6F14558   1.858   4.500   7.600  0.3145  0.1037 -0.7969
  134OSM    H6G14559   1.704   4.434   7.672 -1.1976  1.2958  2.7005
  134OSM    C7F14560   1.779   4.611   7.772 -0.1955  0.0845  0.5093
  134OSM    H7F14561   1.682   4.656   7.803 -0.3085  0.5639 -0.5191
  134OSM    H7G14562   1.837   4.706   7.775 -1.2443  0.7240  1.0083
  134OSM    C8F14563   1.830   4.527   7.889  0.0183 -0.6528 -0.4874
  134OSM    H8F14564   1.934   4.490   7.870  0.1111 -0.5652 -0.1557
  134OSM    H8G14565   1.765   4.437   7.887 -0.3712 -0.4778  2.7541
  134OSM    C9F14566   1.835   4.590   8.026 -0.3673 -0.3259 -0.2125
  134OSM    H9F14567   1.933   4.627   8.059 -0.0038 -0.4141 -1.1855
  134OSM   C10F14568   1.734   4.601   8.110 -0.1715 -1.0028  0.1464
  134OSM   H10F14569   1.755   4.651   8.206 -1.8573 -0.2429  0.1393
  134OSM   C11F14570   1.588   4.563   8.097  0.2157  0.6808  0.3809
  134OSM   H11F14571   1.574   4.555   7.987  0.6840  0.2647  0.3479
  134OSM   H11G14572   1.522   4.645   8.132 -2.1747 -0.1903 -1.8696
  134OSM   C12F14573   1.552   4.440   8.179  0.4777 -0.4072 -0.0063
  134OSM   H12F14574   1.630   4.361   8.166 -0.5321 -1.6780  1.3871
  134OSM   H12G14575   1.455   4.397   8.147  1.1211 -2.5660  0.8034
  134OSM   C13F14576   1.534   4.478   8.326 -0.4499  0.0107 -0.0745
  134OSM   H13F14577   1.464   4.564   8.334  1.6974  2.2110 -3.3309
  134OSM   H13G14578   1.630   4.525   8.355  0.6462 -3.1809  1.7009
  134OSM   C14F14579   1.497   4.359   8.412  0.9283 -0.1347  0.5116
  134OSM   H14F14580   1.582   4.289   8.416  0.1468 -1.0932  0.4501
  134OSM   H14G14581   1.419   4.305   8.354  1.9917 -0.6867 -0.4269
  134OSM   C15F14582   1.434   4.401   8.544  0.1482 -1.3004 -0.1557
  134OSM   H15F14583   1.337   4.450   8.524  1.1897  0.6054 -0.6899
  134OSM   H15G14584   1.487   4.472   8.611  0.6169 -1.1995 -0.6235
  134OSM   C16F14585   1.403   4.270   8.618 -0.0718 -0.5242 -0.2696
  134OSM   H16F14586   1.493   4.204   8.615 -1.1865 -2.1391  0.6685
  134OSM   H16G14587   1.329   4.211   8.560 -0.9016 -1.0442  1.2641
  134OSM   C17F14588   1.356   4.303   8.760  0.1720  0.1980 -0.0854
  134OSM   H17F14589   1.259   4.357   8.764 -0.8164 -1.5771  0.6398
  134OSM   H17G14590   1.441   4.361   8.804  0.4258 -0.7668  0.7130
  134OSM   C18F14591   1.318   4.177   8.843  0.0072  1.3154  0.2151
  134OSM   H18F14592   1.235   4.126   8.789  0.2318  1.8752 -0.6658
  134OSM   H18G14593   1.311   4.203   8.951 -1.4161  2.0315 -0.0350
  134OSM   H18H14594   1.403   4.107   8.832 -1.0410  0.1975 -0.9795
  135OSM      N14595   1.402   4.705   6.231 -0.1584  0.0560  0.7376
  135OSM    C1514596   1.442   4.851   6.204 -0.7667  0.8732 -0.3481
  135OSM   H15A14597   1.468   4.881   6.103  3.2557 -0.1738  0.3082
  135OSM   H15B14598   1.530   4.866   6.265 -0.2118 -2.4820 -0.2553
  135OSM   H15C14599   1.370   4.919   6.248 -0.6646  0.7563 -0.0008
  135OSM    C1414600   1.276   4.679   6.154  0.0516  0.0194  0.5996
  135OSM   H14A14601   1.291   4.711   6.052  0.3808  1.5109  1.1002
  135OSM   H14B14602   1.190   4.736   6.187  0.5270  0.9727  0.2080
  135OSM   H14C14603   1.266   4.572   6.162 -1.5851  0.2591  2.1352
  135OSM    C1314604   1.509   4.626   6.172  0.2144  0.1955 -0.0426
  135OSM   H13A14605   1.602   4.662   6.215 -0.1142  2.6898 -1.3135
  135OSM   H13B14606   1.511   4.639   6.065 -0.5383 -0.3426 -0.1201
  135OSM   H13C14607   1.501   4.522   6.199  0.8626  0.2695  0.4532
  135OSM    C1214608   1.402   4.679   6.384 -0.1018  0.0840  0.1046
  135OSM   H12A14609   1.368   4.576   6.387  2.0634 -0.6314  0.6680
  135OSM   H12B14610   1.322   4.739   6.424  2.3942  2.4629  1.6674
  135OSM    C1114611   1.526   4.719   6.467  0.1687  0.2479 -0.3875
  135OSM   H11A14612   1.616   4.662   6.434 -0.8108 -0.4968 -1.8329
  135OSM   H11B14613   1.510   4.693   6.574  1.0680 -2.0238 -0.7796
  135OSM      P14614   1.469   4.970   6.522 -0.4952 -0.1882 -0.0379
  135OSM    O1314615   1.536   5.099   6.498 -0.2750  0.5382  0.5881
  135OSM    O1414616   1.330   4.955   6.469 -0.9816  0.6082  0.1406
  135OSM    O1114617   1.483   4.931   6.671 -0.0965 -0.2255  0.2945
  135OSM    O1214618   1.550   4.857   6.454 -0.4860  0.3955 -0.7411
  135OSM    C1S14619   1.601   4.920   6.747 -0.3697  0.0233 -0.8542
  135OSM    H1S14620   1.668   5.000   6.710  0.5703 -0.7810 -0.9074
  135OSM    H1T14621   1.650   4.823   6.724 -1.0770  0.0864 -2.7117
  135OSM     NF14622   1.691   4.963   6.972 -0.4270  0.3383  0.5788
  135OSM    HNF14623   1.713   4.904   7.049 -0.6844 -0.5541 -0.0277
  135OSM    C2S14624   1.569   4.943   6.897 -0.2930 -0.4862 -0.2539
  135OSM    H2S14625   1.506   5.031   6.919  2.7611  1.6377  0.2538
  135OSM    C3S14626   1.481   4.823   6.948  0.3658 -0.5115  0.4119
  135OSM    H3S14627   1.542   4.730   6.937  1.7982  0.2593  1.5497
  135OSM     O314628   1.364   4.797   6.869 -0.1561  0.2441 -0.3955
  135OSM    HO314629   1.379   4.849   6.790  0.9650 -1.4551 -1.3333
  135OSM    C4S14630   1.451   4.853   7.091  0.0624 -0.2584  0.2632
  135OSM    H4S14631   1.533   4.833   7.161 -0.2631 -2.1711  0.1235
  135OSM    C5S14632   1.333   4.905   7.133  0.3339  0.6888 -0.2117
  135OSM    H5S14633   1.252   4.910   7.058 -0.7037  1.5210  0.9466
  135OSM    C6S14634   1.302   4.938   7.277  0.3600 -0.1882 -0.1312
  135OSM    H6S14635   1.231   4.859   7.311 -0.3054  0.5729  0.2562
  135OSM    H6T14636   1.261   5.041   7.278  0.8523  0.0040  1.4558
  135OSM    C7S14637   1.416   4.941   7.384  0.4000 -0.9453  0.3088
  135OSM    H7S14638   1.488   5.017   7.347 -2.6415  0.7142 -2.3533
  135OSM    H7T14639   1.468   4.842   7.380  2.2684  0.0234 -0.2343
  135OSM    C8S14640   1.366   5.001   7.521 -0.2513 -0.0561  0.0966
  135OSM    H8S14641   1.273   4.946   7.549 -2.0212  2.8984  0.1472
  135OSM    H8T14642   1.344   5.109   7.520  0.2975  0.0534 -0.5714
  135OSM    C9S14643   1.467   4.973   7.625  0.2496  0.2742 -0.3299
  135OSM    H9S14644   1.569   5.006   7.596 -0.2645  3.2499  1.0416
  135OSM    H9T14645   1.471   4.862   7.626 -0.2557  0.2537  0.7635
  135OSM   C10S14646   1.428   5.024   7.760 -0.2156 -0.4536 -0.1891
  135OSM   H10S14647   1.319   5.044   7.769 -0.2504 -0.8061  0.1550
  135OSM   H10T14648   1.483   5.120   7.763  0.7577 -0.9893 -0.8463
  135OSM   C11S14649   1.484   4.938   7.869  0.8899 -0.4995  0.0349
  135OSM   H11S14650   1.581   4.903   7.828  0.1717 -0.8249 -1.4083
  135OSM   H11T14651   1.425   4.844   7.874  1.6608 -0.9542  0.7246
  135OSM   C12S14652   1.502   4.998   8.004 -0.8999  0.4566  0.5552
  135OSM   H12S14653   1.559   5.093   7.997  0.8662 -0.4607  1.8680
  135OSM   H12T14654   1.555   4.925   8.069  0.1192  1.8798  1.3471
  135OSM   C13S14655   1.364   5.030   8.071  0.3717 -0.3067  0.1948
  135OSM   H13S14656   1.288   4.953   8.047  1.2380 -1.6667  1.7463
  135OSM   H13T14657   1.331   5.127   8.027 -1.1378  0.3414  2.7018
  135OSM   C14S14658   1.370   5.041   8.226  0.0369 -0.5660 -0.3007
  135OSM   H14S14659   1.286   5.105   8.261  1.1078  0.2083  0.8878
  135OSM   H14T14660   1.463   5.099   8.245 -0.7236  0.3391  0.6819
  135OSM   C15S14661   1.370   4.908   8.298  0.2145  0.0557  0.1914
  135OSM   H15S14662   1.456   4.854   8.251  1.1572  2.1904 -0.6136
  135OSM   H15T14663   1.275   4.856   8.271  0.4195 -0.7080  0.9164
  135OSM   C16S14664   1.397   4.918   8.454 -0.0189  0.2535  0.0869
  135OSM   H16S14665   1.338   5.009   8.477  2.5545  1.8768  0.4720
  135OSM   H16T14666   1.507   4.929   8.463 -0.1145  0.4109  1.0860
  135OSM   C17S14667   1.331   4.810   8.547  0.1339 -0.6433 -0.4484
  135OSM   H17S14668   1.367   4.827   8.651 -0.6457 -0.0687 -0.2571
  135OSM   H17T14669   1.371   4.712   8.516  0.4622 -1.0626  1.2799
  135OSM   C18S14670   1.179   4.798   8.540  0.1657  0.1887 -0.7143
  135OSM   H18S14671   1.130   4.897   8.529 -0.1197  0.3271  1.5908
  135OSM   H18T14672   1.132   4.757   8.632  1.5789 -0.6751 -0.3553
  135OSM   H18U14673   1.143   4.738   8.453 -4.0182  2.5572 -0.7492
  135OSM    C1F14674   1.766   5.070   6.949  0.1140 -0.2565  0.1749
  135OSM     OF14675   1.730   5.173   6.888  0.4245 -0.0418  0.3030
  135OSM    C2F14676   1.908   5.045   7.005  0.7377  0.2743  0.8742
  135OSM    H2F14677   1.969   4.995   6.927 -3.5187 -0.3166 -2.2680
  135OSM    H2G14678   1.903   4.962   7.079 -0.1815 -0.7814 -0.3489
  135OSM    C3F14679   1.971   5.168   7.066  0.5654  0.2247  0.4043
  135OSM    H3F14680   1.980   5.244   6.985  2.2077 -1.2415 -0.8284
  135OSM    H3G14681   2.073   5.144   7.103  0.7598  1.3483  0.6158
  135OSM    C4F14682   1.896   5.226   7.181  0.3965 -0.3177 -0.2480
  135OSM    H4F14683   1.793   5.251   7.147  0.1414  1.1215  1.4880
  135OSM    H4G14684   1.948   5.320   7.211  0.5887 -0.1670 -1.0592
  135OSM    C5F14685   1.897   5.153   7.311 -0.8488  0.1188  0.2526
  135OSM    H5F14686   1.998   5.147   7.358 -1.3236  0.6034  1.3650
  135OSM    H5G14687   1.844   5.057   7.294 -0.3744 -0.0095 -0.5267
  135OSM    C6F14688   1.812   5.213   7.420 -0.0300 -0.1132  0.1735
  135OSM    H6F14689   1.703   5.220   7.402 -0.0266 -0.4111  0.0402
  135OSM    H6G14690   1.853   5.316   7.429 -0.8897  0.0320  2.8346
  135OSM    C7F14691   1.836   5.129   7.543 -0.2821 -0.8315 -0.7439
  135OSM    H7F14692   1.944   5.107   7.558 -0.1540 -1.1677 -2.0421
  135OSM    H7G14693   1.776   5.036   7.532 -1.6134 -0.6272  3.8818
  135OSM    C8F14694   1.787   5.194   7.679  0.4954  0.3476  0.2923
  135OSM    H8F14695   1.681   5.226   7.675 -0.9919 -4.2839 -1.3866
  135OSM    H8G14696   1.838   5.292   7.690 -2.0886  1.5374  2.0310
  135OSM    C9F14697   1.796   5.099   7.796  0.4961 -0.1193  0.2655
  135OSM    H9F14698   1.748   5.002   7.778 -0.7358 -0.0108  2.6722
  135OSM   C10F14699   1.853   5.117   7.916  0.0385  0.2162 -0.5720
  135OSM   H10F14700   1.829   5.041   7.992  2.4110  0.7463  0.7594
  135OSM   C11F14701   1.905   5.252   7.952  0.1121  0.7758  0.6021
  135OSM   H11F14702   1.851   5.328   7.892  1.3029  1.2810  0.1475
  135OSM   H11G14703   2.016   5.257   7.943 -0.0371  0.0651 -1.8207
  135OSM   C12F14704   1.882   5.287   8.105  0.8245 -0.6081 -0.1179
  135OSM   H12F14705   1.905   5.395   8.115  1.4156 -0.5944 -1.4033
  135OSM   H12G14706   1.965   5.238   8.161  1.3170  1.5343  1.0828
  135OSM   C13F14707   1.743   5.267   8.167  0.6091 -0.4819  0.0823
  135OSM   H13F14708   1.705   5.167   8.140 -0.9835 -0.3639  1.7841
  135OSM   H13G14709   1.681   5.344   8.116 -1.5758 -0.1339  3.1023
  135OSM   C14F14710   1.747   5.292   8.315 -0.9209  0.3845 -0.3068
  135OSM   H14F14711   1.651   5.280   8.370 -0.8287 -1.1448 -0.4515
  135OSM   H14G14712   1.776   5.396   8.339  0.1836 -0.0186  0.1803
  135OSM   C15F14713   1.847   5.220   8.402  0.5090  0.8287  0.1479
  135OSM   H15F14714   1.805   5.224   8.505 -2.2874 -1.0609 -0.8524
  135OSM   H15G14715   1.949   5.260   8.416 -0.0729  1.8841  1.4805
  135OSM   C16F14716   1.856   5.069   8.368  0.9290  0.2975 -0.6832
  135OSM   H16F14717   1.908   5.051   8.271  0.8611 -0.4497 -0.5809
  135OSM   H16G14718   1.753   5.031   8.355  0.6646  0.8355 -0.1552
  135OSM   C17F14719   1.925   5.002   8.487  0.0570 -0.5453 -0.1030
  135OSM   H17F14720   1.859   4.997   8.577 -1.7135 -2.8549 -1.4700
  135OSM   H17G14721   2.013   5.061   8.520 -1.0502  0.9095  0.3365
  135OSM   C18F14722   1.975   4.865   8.449  0.6271 -0.0840 -0.0018
  135OSM   H18F14723   2.025   4.812   8.533  2.1832  1.5569  0.1208
  135OSM   H18G14724   2.051   4.875   8.368  2.0032  1.4765  1.4549
  135OSM   H18H14725   1.882   4.810   8.421  0.2094  1.8368 -2.5858
  136OSM      N14726   6.582   5.447   6.040  0.6126  0.4105  0.1719
  136OSM    C1514727   6.629   5.566   5.967 -0.7706 -0.6837 -0.2075
  136OSM   H15A14728   6.669   5.538   5.871 -0.9689  0.3591 -0.5899
  136OSM   H15B14729   6.697   5.618   6.033 -1.9841  0.3510  0.2331
  136OSM   H15C14730   6.544   5.631   5.957  0.1369  0.9307  2.0873
  136OSM    C1414731   6.488   5.377   5.942 -0.0035  0.8118 -0.3192
  136OSM   H14A14732   6.534   5.361   5.846  0.4330  1.4365 -0.2212
  136OSM   H14B14733   6.395   5.429   5.928 -1.2265 -1.1100  0.4462
  136OSM   H14C14734   6.458   5.282   5.983  0.6543  0.1644 -1.3141
  136OSM    C1314735   6.701   5.357   6.058 -0.2825  0.9483  0.1068
  136OSM   H13A14736   6.674   5.260   6.098  0.5946  0.9410  0.6846
  136OSM   H13B14737   6.782   5.407   6.108  0.3907 -0.4088  0.4126
  136OSM   H13C14738   6.750   5.334   5.964 -0.1709 -0.8785  0.5925
  136OSM    C1214739   6.525   5.476   6.175  0.8177 -0.0751 -0.2478
  136OSM   H12A14740   6.509   5.381   6.224  0.1581 -0.4556 -1.1867
  136OSM   H12B14741   6.428   5.521   6.162  1.0358  0.3336 -0.4894
  136OSM    C1114742   6.605   5.563   6.278  0.7475  0.2393 -0.4180
  136OSM   H11A14743   6.702   5.518   6.307 -0.5341 -1.4533  1.3810
  136OSM   H11B14744   6.548   5.557   6.373  2.3319 -0.1788  0.5030
  136OSM      P14745   6.507   5.792   6.238 -0.1010 -0.0446 -0.3844
  136OSM    O1314746   6.545   5.938   6.214 -0.1734  0.0736 -0.7966
  136OSM    O1414747   6.407   5.737   6.147 -0.0229 -0.2258 -0.1962
  136OSM    O1114748   6.458   5.778   6.385 -0.1601 -0.0304  0.0482
  136OSM    O1214749   6.629   5.699   6.236  0.0095 -0.1023 -0.4192
  136OSM    C1S14750   6.340   5.697   6.409  0.2766 -0.1902 -0.4748
  136OSM    H1S14751   6.349   5.596   6.364 -0.6197 -0.6107  0.2673
  136OSM    H1T14752   6.247   5.751   6.380 -0.6106 -1.6537 -0.4406
  136OSM     NF14753   6.193   5.614   6.588 -0.9121  0.6110  0.2952
  136OSM    HNF14754   6.133   5.666   6.648  0.8554  4.0941 -0.8242
  136OSM    C2S14755   6.320   5.688   6.562 -0.3216 -0.2439 -0.2925
  136OSM    H2S14756   6.405   5.630   6.604 -0.0863  0.6755  0.5053
  136OSM    C3S14757   6.328   5.829   6.635 -0.3475  0.4671 -0.5492
  136OSM    H3S14758   6.268   5.902   6.578  0.7435  1.8643  0.0522
  136OSM     O314759   6.466   5.874   6.642 -0.7342  0.2248  0.6435
  136OSM    HO314760   6.508   5.805   6.589 -1.1224  0.2065  0.3609
  136OSM    C4S14761   6.292   5.799   6.772  0.1483  0.1156 -0.2237
  136OSM    H4S14762   6.367   5.741   6.828  0.2422 -1.0609 -1.5637
  136OSM    C5S14763   6.172   5.843   6.827 -0.2292  0.0441 -0.3779
  136OSM    H5S14764   6.104   5.906   6.768 -0.6093  3.0999  3.1089
  136OSM    C6S14765   6.123   5.833   6.973 -0.0106 -0.1668  0.1225
  136OSM    H6S14766   6.029   5.774   6.982 -0.7404  0.5612 -2.2661
  136OSM    H6T14767   6.099   5.930   7.022  0.4138 -1.0953  2.2334
  136OSM    C7S14768   6.225   5.763   7.068  0.0661 -0.3744  0.2317
  136OSM    H7S14769   6.329   5.801   7.058  0.6988 -1.9951  0.6411
  136OSM    H7T14770   6.229   5.655   7.044  2.4858 -0.1158 -0.6837
  136OSM    C8S14771   6.181   5.768   7.210  0.2626 -0.2611 -0.8954
  136OSM    H8S14772   6.071   5.761   7.224  0.3756 -0.1924  0.0869
  136OSM    H8T14773   6.202   5.872   7.243  2.4310 -1.2006  0.7972
  136OSM    C9S14774   6.247   5.664   7.304  0.3576 -0.1354 -0.2050
  136OSM    H9S14775   6.358   5.667   7.295  0.5663 -0.1592  2.0190
  136OSM    H9T14776   6.219   5.558   7.287 -0.3462  0.3927 -2.4990
  136OSM   C10S14777   6.218   5.691   7.457 -0.9783  0.0720  0.2653
  136OSM   H10S14778   6.113   5.657   7.469 -1.7008  1.0404 -2.8363
  136OSM   H10T14779   6.221   5.801   7.469  1.1733  0.4522 -3.0332
  136OSM   C11S14780   6.305   5.616   7.551  0.4518 -0.7489  0.0902
  136OSM   H11S14781   6.384   5.687   7.583  0.0488 -0.2974  0.0857
  136OSM   H11T14782   6.337   5.528   7.491 -3.9217 -0.9576 -2.1542
  136OSM   C12S14783   6.239   5.572   7.683 -0.0555 -0.1192  0.7195
  136OSM   H12S14784   6.154   5.505   7.657 -0.6703  1.4293 -1.3523
  136OSM   H12T14785   6.202   5.662   7.736  0.4240  1.4423 -1.5341
  136OSM   C13S14786   6.339   5.492   7.769 -0.1901  0.3973 -0.0141
  136OSM   H13S14787   6.428   5.558   7.769 -0.1596  0.3646  1.0013
  136OSM   H13T14788   6.369   5.395   7.725  1.8130  0.3171  1.4600
  136OSM   C14S14789   6.282   5.477   7.912 -0.1492 -0.0152  0.0418
  136OSM   H14S14790   6.205   5.398   7.921 -1.7975  1.2985 -2.0475
  136OSM   H14T14791   6.226   5.570   7.938 -0.2826  0.8986 -3.3006
  136OSM   C15S14792   6.389   5.457   8.026  0.1919  0.1218 -0.6254
  136OSM   H15S14793   6.467   5.536   8.025 -1.5166  1.9025  2.1447
  136OSM   H15T14794   6.438   5.358   8.015 -0.7341 -0.2714 -1.2730
  136OSM   C16S14795   6.320   5.456   8.159  0.7985  0.2481  0.3422
  136OSM   H16S14796   6.236   5.383   8.162 -1.3482  2.6749  0.8938
  136OSM   H16T14797   6.260   5.545   8.187 -0.0076 -0.0099 -0.5110
  136OSM   C17S14798   6.414   5.422   8.278  1.1393  0.0060  0.5017
  136OSM   H17S14799   6.501   5.492   8.282  1.4386 -0.4795  3.8141
  136OSM   H17T14800   6.452   5.318   8.273 -0.9526 -0.7183 -0.6566
  136OSM   C18S14801   6.354   5.443   8.417 -0.0504 -0.0920 -0.1284
  136OSM   H18S14802   6.281   5.360   8.416  0.0004 -0.1418  0.2236
  136OSM   H18T14803   6.294   5.536   8.432  0.2749 -0.0202  0.7647
  136OSM   H18U14804   6.434   5.426   8.493 -0.7137  1.0228  0.8457
  136OSM    C1F14805   6.171   5.481   6.553  0.0434 -0.3805  0.0659
  136OSM     OF14806   6.263   5.414   6.500 -0.2892 -0.9508  0.2398
  136OSM    C2F14807   6.038   5.412   6.573 -0.0015  0.3491 -0.4154
  136OSM    H2F14808   6.058   5.303   6.574 -0.8548  0.1785 -0.9936
  136OSM    H2G14809   5.969   5.429   6.487  2.3101  3.1168 -1.7971
  136OSM    C3F14810   5.976   5.442   6.715  0.3930  0.6861  0.1980
  136OSM    H3F14811   5.873   5.402   6.712  0.9214 -0.5967 -1.3464
  136OSM    H3G14812   5.951   5.550   6.725 -1.1032  0.3504  0.1572
  136OSM    C4F14813   6.051   5.387   6.846  0.0691  0.7006  0.2372
  136OSM    H4F14814   6.151   5.436   6.854  1.0723 -0.9580 -1.6343
  136OSM    H4G14815   6.059   5.276   6.835  0.2914  0.5942  1.4579
  136OSM    C5F14816   5.971   5.407   6.973  0.4954 -0.1259  1.2073
  136OSM    H5F14817   5.874   5.358   6.947  2.0106 -2.5273 -0.1336
  136OSM    H5G14818   5.954   5.516   6.983 -1.3299 -0.3304  0.4908
  136OSM    C6F14819   6.025   5.357   7.108 -0.0585 -0.2220 -0.8547
  136OSM    H6F14820   6.131   5.389   7.103 -0.3619  0.7053 -1.5938
  136OSM    H6G14821   6.017   5.247   7.121 -0.9847  0.2279  2.9003
  136OSM    C7F14822   5.959   5.428   7.229 -0.4434  0.0387 -0.1074
  136OSM    H7F14823   5.909   5.516   7.183  0.9353  0.5643 -0.6053
  136OSM    H7G14824   6.036   5.466   7.299 -0.1101  0.6855 -0.8143
  136OSM    C8F14825   5.849   5.354   7.309  0.2880 -0.2046 -0.1416
  136OSM    H8F14826   5.762   5.328   7.246 -0.1495  1.9720 -0.4576
  136OSM    H8G14827   5.798   5.420   7.382 -0.3775 -0.0292 -0.7577
  136OSM    C9F14828   5.913   5.231   7.368  0.0689  0.0670 -0.3801
  136OSM    H9F14829   5.975   5.172   7.298 -2.4220  0.1282 -2.7565
  136OSM   C10F14830   5.910   5.184   7.492  0.1933 -0.6741 -0.1826
  136OSM   H10F14831   5.973   5.099   7.522 -0.1742 -0.0958  2.2869
  136OSM   C11F14832   5.843   5.251   7.611 -0.5995 -1.1042  0.1473
  136OSM   H11F14833   5.787   5.178   7.673  0.8975 -0.4020  2.3830
  136OSM   H11G14834   5.779   5.337   7.580  0.0444 -1.0572 -1.0763
  136OSM   C12F14835   5.941   5.319   7.713 -0.1745  0.3763 -1.0178
  136OSM   H12F14836   5.987   5.404   7.657 -0.0466  1.7565  1.1509
  136OSM   H12G14837   6.024   5.249   7.737 -1.7528 -0.7954  1.1004
  136OSM   C13F14838   5.867   5.374   7.837 -0.4791 -0.0934  0.5796
  136OSM   H13F14839   5.779   5.431   7.801 -1.2969 -0.2664  2.2363
  136OSM   H13G14840   5.937   5.443   7.889  0.7725 -0.9963  0.1370
  136OSM   C14F14841   5.831   5.268   7.930 -0.0116 -0.0941 -0.0592
  136OSM   H14F14842   5.919   5.205   7.952 -0.4945 -0.9201 -0.4827
  136OSM   H14G14843   5.753   5.200   7.889 -0.2591  1.0040 -1.4999
  136OSM   C15F14844   5.782   5.315   8.069  0.1468 -0.0564 -0.3326
  136OSM   H15F14845   5.711   5.238   8.107 -0.7249 -0.2561 -2.3183
  136OSM   H15G14846   5.715   5.402   8.053  0.5278  0.1372 -0.8861
  136OSM   C16F14847   5.893   5.361   8.166 -0.1655  0.4505 -0.0175
  136OSM   H16F14848   5.972   5.411   8.106 -1.6882  1.0772 -1.5676
  136OSM   H16G14849   5.945   5.275   8.211 -1.3609 -0.2194  0.1062
  136OSM   C17F14850   5.843   5.448   8.279  0.1830 -0.0465  0.6124
  136OSM   H17F14851   5.779   5.380   8.339  1.8649 -2.5919 -0.4009
  136OSM   H17G14852   5.777   5.523   8.230  0.3197 -0.3677 -0.0670
  136OSM   C18F14853   5.956   5.525   8.354 -0.6438  0.3492 -0.2992
  136OSM   H18F14854   5.912   5.576   8.442 -1.2823  1.0028 -0.9890
  136OSM   H18G14855   6.015   5.596   8.294  0.9892 -1.4993 -0.9371
  136OSM   H18H14856   6.028   5.452   8.397 -0.3329  0.1511 -1.1418
  137OSM      N14857   2.576   4.017   6.224 -0.2774  0.1088  0.4231
  137OSM    C1514858   2.453   3.938   6.191  0.0906 -0.2891 -0.7864
  137OSM   H15A14859   2.387   3.944   6.276  1.3303  0.0787  0.1661
  137OSM   H15B14860   2.473   3.836   6.163  0.6518 -0.8722  1.6132
  137OSM   H15C14861   2.401   3.990   6.112  2.0654 -0.1891 -2.0692
  137OSM    C1414862   2.653   4.039   6.095 -0.0575 -0.1911 -0.7750
  137OSM   H14A14863   2.747   4.092   6.102 -0.0278 -0.5677  2.3872
  137OSM   H14B14864   2.601   4.094   6.019 -2.8142 -0.7401  0.6631
  137OSM   H14C14865   2.668   3.937   6.063 -1.7439 -1.1156  1.2294
  137OSM    C1314866   2.535   4.155   6.280 -0.8405  0.2525  0.9324
  137OSM   H13A14867   2.617   4.225   6.293 -1.2707  0.6879  1.3106
  137OSM   H13B14868   2.489   4.148   6.377 -0.1706  1.1051  1.3259
  137OSM   H13C14869   2.459   4.194   6.213 -1.1455 -1.2795  0.3658
  137OSM    C1214870   2.676   3.955   6.327  0.2182  0.3672  0.4163
  137OSM   H12A14871   2.746   4.027   6.366 -1.1184  1.1181  1.4452
  137OSM   H12B14872   2.729   3.881   6.269  1.5056  0.3805  1.5394
  137OSM    C1114873   2.612   3.891   6.452  0.1876  0.1302  0.6197
  137OSM   H11A14874   2.688   3.859   6.526  2.0294  3.5387  0.2786
  137OSM   H11B14875   2.564   3.795   6.421 -1.1513  0.3188  2.0270
  137OSM      P14876   2.391   3.888   6.603 -0.0576  0.0500 -1.0396
  137OSM    O1314877   2.327   3.990   6.696 -0.0161  0.0132  0.7209
  137OSM    O1414878   2.301   3.827   6.500 -0.0840  0.2875 -0.0012
  137OSM    O1114879   2.455   3.761   6.672 -0.6686  0.6733  0.2225
  137OSM    O1214880   2.512   3.965   6.522  0.0872 -0.0292  0.3557
  137OSM    C1S14881   2.564   3.779   6.760 -0.4249 -0.7295  0.6194
  137OSM    H1S14882   2.577   3.888   6.778  0.4592 -0.6890 -0.2322
  137OSM    H1T14883   2.656   3.729   6.724  0.0383  2.0622 -2.2487
  137OSM     NF14884   2.642   3.738   6.990 -0.5396 -0.1626  0.5536
  137OSM    HNF14885   2.716   3.672   6.999  0.3628  0.4547 -1.9683
  137OSM    C2S14886   2.528   3.726   6.900  0.9049  0.0765  0.3464
  137OSM    H2S14887   2.446   3.792   6.939 -0.7952 -1.4550 -0.5776
  137OSM    C3S14888   2.477   3.574   6.893  0.3824  0.7172 -0.1319
  137OSM    H3S14889   2.558   3.504   6.862  0.6215  2.2136 -3.0552
  137OSM     O314890   2.365   3.547   6.807  0.7023 -0.0295  0.2876
  137OSM    HO314891   2.356   3.625   6.752 -1.7431  0.1848  0.9050
  137OSM    C4S14892   2.445   3.526   7.033 -0.3155 -0.5294 -0.0492
  137OSM    H4S14893   2.531   3.513   7.101 -0.9514 -1.7124  0.5426
  137OSM    C5S14894   2.322   3.496   7.095 -0.5605  0.0072  0.4221
  137OSM    H5S14895   2.227   3.507   7.041 -1.2080 -1.6465  1.1881
  137OSM    C6S14896   2.303   3.449   7.243  0.0863 -0.4275 -0.1616
  137OSM    H6S14897   2.384   3.378   7.272  0.2237 -0.9041 -1.6477
  137OSM    H6T14898   2.206   3.397   7.249 -0.4879  0.4778 -1.2759
  137OSM    C7S14899   2.298   3.575   7.335 -0.3581  0.4609 -0.4272
  137OSM    H7S14900   2.216   3.645   7.307 -2.1691 -0.8119  1.5505
  137OSM    H7T14901   2.395   3.628   7.328  0.4751 -0.9716 -0.0384
  137OSM    C8S14902   2.290   3.535   7.482  0.1160  0.1360 -0.3470
  137OSM    H8S14903   2.369   3.458   7.502 -0.7753 -0.4886  0.8360
  137OSM    H8T14904   2.197   3.483   7.513 -0.0791  0.2595 -0.7283
  137OSM    C9S14905   2.324   3.650   7.588  0.0944  0.5373 -1.0096
  137OSM    H9S14906   2.246   3.730   7.582 -1.0973 -0.6305 -1.1938
  137OSM    H9T14907   2.421   3.697   7.562 -0.0537  0.9595 -0.8103
  137OSM   C10S14908   2.340   3.610   7.737 -1.3986 -0.2127 -1.1278
  137OSM   H10S14909   2.422   3.536   7.747  0.3088  1.4507 -2.5119
  137OSM   H10T14910   2.255   3.546   7.770 -0.2153 -2.4333 -2.3276
  137OSM   C11S14911   2.367   3.723   7.844 -0.2879  0.3109  0.0485
  137OSM   H11S14912   2.270   3.760   7.882 -0.8394  0.2997 -1.2985
  137OSM   H11T14913   2.400   3.819   7.800 -3.1676  0.6943 -1.4139
  137OSM   C12S14914   2.451   3.691   7.971  0.1128 -0.3005 -0.0625
  137OSM   H12S14915   2.435   3.786   8.027 -2.2993  0.1864 -1.5012
  137OSM   H12T14916   2.559   3.674   7.950  0.2826 -0.1027  0.6498
  137OSM   C13S14917   2.393   3.574   8.056  0.1092 -0.5266  1.2007
  137OSM   H13S14918   2.376   3.482   7.995 -0.4078  0.2289  0.1871
  137OSM   H13T14919   2.295   3.612   8.091  0.3581 -0.8055  2.2203
  137OSM   C14S14920   2.490   3.540   8.167 -0.3385 -0.3294 -0.3799
  137OSM   H14S14921   2.517   3.630   8.226 -1.1914 -1.7149  2.1729
  137OSM   H14T14922   2.587   3.502   8.128  1.4090 -0.5052  3.8650
  137OSM   C15S14923   2.431   3.438   8.267  0.5143 -0.2222 -0.4470
  137OSM   H15S14924   2.406   3.348   8.207 -3.8107  0.9624 -0.5646
  137OSM   H15T14925   2.334   3.467   8.311  0.0829  0.1566 -1.6282
  137OSM   C16S14926   2.535   3.402   8.379 -1.0539 -0.0958  0.2390
  137OSM   H16S14927   2.569   3.494   8.432 -1.2927 -0.6729  1.4149
  137OSM   H16T14928   2.617   3.341   8.336 -1.1838 -0.4347  0.4682
  137OSM   C17S14929   2.475   3.309   8.489 -0.3253 -0.6174  0.3041
  137OSM   H17S14930   2.426   3.231   8.426  1.3638  2.1786 -4.6952
  137OSM   H17T14931   2.393   3.358   8.546  0.1812  0.5963 -0.0083
  137OSM   C18S14932   2.572   3.254   8.590 -0.4776 -0.0503  0.6077
  137OSM   H18S14933   2.586   3.329   8.671 -2.2121  1.7923 -0.7601
  137OSM   H18T14934   2.664   3.227   8.534 -2.1764  1.4952 -3.0516
  137OSM   H18U14935   2.530   3.161   8.636  0.5851 -0.6767  0.3207
  137OSM    C1F14936   2.672   3.866   7.029 -0.8819  0.0467 -0.4834
  137OSM     OF14937   2.609   3.969   6.993 -0.3609  0.0492  0.6276
  137OSM    C2F14938   2.788   3.885   7.118 -0.1504  0.1944  0.5603
  137OSM    H2F14939   2.793   3.992   7.149  1.6298  0.1453  0.5110
  137OSM    H2G14940   2.879   3.862   7.058 -0.2842 -0.6538  0.6815
  137OSM    C3F14941   2.789   3.801   7.254  0.1032  0.4082  0.5548
  137OSM    H3F14942   2.887   3.808   7.305  0.0710 -2.2586  1.0850
  137OSM    H3G14943   2.790   3.691   7.236  2.6927  0.8397 -2.4194
  137OSM    C4F14944   2.688   3.855   7.361  0.1422  1.0891  0.6656
  137OSM    H4F14945   2.599   3.802   7.322  1.6904 -0.0329 -1.4747
  137OSM    H4G14946   2.674   3.964   7.349  0.1348  1.0172  0.0042
  137OSM    C5F14947   2.746   3.829   7.500  0.2537 -0.2632  0.0083
  137OSM    H5F14948   2.857   3.834   7.503  0.1720  0.8111  2.1077
  137OSM    H5G14949   2.724   3.723   7.525 -0.5191 -0.2903 -0.7538
  137OSM    C6F14950   2.688   3.933   7.600 -0.0864  0.2554 -1.2064
  137OSM    H6F14951   2.578   3.916   7.600 -0.1476  0.6629 -1.5026
  137OSM    H6G14952   2.730   4.027   7.559  1.5000 -0.0175 -0.2560
  137OSM    C7F14953   2.740   3.908   7.735 -0.3011  0.0158 -0.3982
  137OSM    H7F14954   2.851   3.911   7.737 -0.3242  0.0855  2.0449
  137OSM    H7G14955   2.705   3.809   7.773  0.1884  0.0769  0.2224
  137OSM    C8F14956   2.702   4.012   7.840 -0.0715 -0.4364  0.0367
  137OSM    H8F14957   2.591   4.025   7.843  0.0741  1.0667 -0.7496
  137OSM    H8G14958   2.727   4.112   7.800 -1.3409 -0.5318 -1.0266
  137OSM    C9F14959   2.752   3.973   7.974 -0.4859 -0.2925  0.4566
  137OSM    H9F14960   2.824   3.890   7.966 -0.2402 -0.2557  2.1151
  137OSM   C10F14961   2.719   4.026   8.092 -0.4720  0.1632  0.1922
  137OSM   H10F14962   2.749   3.975   8.185  0.3161 -0.0481 -0.1704
  137OSM   C11F14963   2.622   4.140   8.112  0.7762 -0.2909 -0.3975
  137OSM   H11F14964   2.633   4.201   8.020 -5.1529  0.6724 -0.6121
  137OSM   H11G14965   2.647   4.199   8.203  2.1508  0.1419 -1.0301
  137OSM   C12F14966   2.473   4.097   8.124 -0.3181 -0.3147  0.6212
  137OSM   H12F14967   2.452   4.046   8.027  0.4013 -1.0289  0.8288
  137OSM   H12G14968   2.397   4.178   8.130 -0.2054 -0.1039 -0.6602
  137OSM   C13F14969   2.446   3.987   8.220  0.1289  0.3329 -0.0707
  137OSM   H13F14970   2.484   3.890   8.183  1.3486  0.8837 -0.2968
  137OSM   H13G14971   2.335   3.986   8.227  0.2554 -0.4205  1.9571
  137OSM   C14F14972   2.485   4.008   8.368  0.0078  0.6408  0.0614
  137OSM   H14F14973   2.488   4.113   8.403 -1.3852  1.1956 -1.4574
  137OSM   H14G14974   2.583   3.955   8.373 -0.6426 -0.4535  1.6132
  137OSM   C15F14975   2.395   3.932   8.457  0.2293 -0.0263 -0.7045
  137OSM   H15F14976   2.300   3.989   8.447  0.5743  1.0768  1.8840
  137OSM   H15G14977   2.419   3.952   8.564  0.0274  0.0720 -0.6747
  137OSM   C16F14978   2.374   3.783   8.425  0.6720 -0.6952 -0.5875
  137OSM   H16F14979   2.471   3.730   8.417 -0.1602 -2.6625  1.7391
  137OSM   H16G14980   2.324   3.772   8.327 -1.0464 -2.3461  0.4232
  137OSM   C17F14981   2.289   3.699   8.526 -0.5155 -0.1392 -0.4030
  137OSM   H17F14982   2.247   3.615   8.466  0.0177 -1.3795  0.9427
  137OSM   H17G14983   2.203   3.761   8.558 -2.1512 -2.8900  0.6977
  137OSM   C18F14984   2.360   3.653   8.650 -0.5007  0.5061  0.1584
  137OSM   H18F14985   2.287   3.631   8.732  0.4126 -0.9710  0.5935
  137OSM   H18G14986   2.424   3.734   8.692 -1.7607  1.1309  0.9106
  137OSM   H18H14987   2.426   3.564   8.640 -0.2879  0.7253 -0.3529
  138OSM      N14988   3.532   5.618   5.903 -0.0568 -0.1837 -0.2120
  138OSM    C1514989   3.462   5.488   5.940  0.1178 -0.6031 -0.5349
  138OSM   H15A14990   3.389   5.467   5.864  0.2282 -0.2920 -0.7294
  138OSM   H15B14991   3.416   5.504   6.036  2.7731 -0.8672  0.8425
  138OSM   H15C14992   3.537   5.412   5.955 -0.9186 -1.6235 -0.4522
  138OSM    C1414993   3.632   5.595   5.790  0.0813  0.7011 -0.5970
  138OSM   H14A14994   3.599   5.588   5.687  0.5430  0.2518 -0.7156
  138OSM   H14B14995   3.680   5.502   5.816  1.1956  1.0688 -1.2878
  138OSM   H14C14996   3.710   5.670   5.797  1.8644 -1.2999  1.9063
  138OSM    C1314997   3.424   5.708   5.848  0.4014  0.2516 -0.3707
  138OSM   H13A14998   3.335   5.720   5.908  1.0515  0.4556  0.5524
  138OSM   H13B14999   3.383   5.678   5.752 -0.5244 -1.5577  0.5665
  138OSM   H13C15000   3.464   5.808   5.838 -0.6307  0.5551 -1.6019
  138OSM    C1215001   3.585   5.680   6.028  0.0795 -0.1611  0.5075
  138OSM   H12A15002   3.631   5.770   5.991 -0.6721  0.6835  1.6046
  138OSM   H12B15003   3.660   5.618   6.075 -0.5959 -0.7943  0.7711
  138OSM    C1115004   3.490   5.706   6.151  0.1082 -0.7192 -0.2343
  138OSM   H11A15005   3.468   5.607   6.195  0.5891 -0.7333 -0.0250
  138OSM   H11B15006   3.389   5.745   6.126  0.6402  0.4660 -0.5836
  138OSM      P15007   3.553   5.936   6.248  0.2635  0.0629  0.1477
  138OSM    O1315008   3.683   5.992   6.211 -0.0001  0.6081  0.2246
  138OSM    O1415009   3.433   5.993   6.174 -0.0356  0.0451  0.1536
  138OSM    O1115010   3.532   5.964   6.401  0.0921  0.0061  0.6269
  138OSM    O1215011   3.563   5.784   6.241 -0.1835 -0.5741  0.0534
  138OSM    C1S15012   3.437   6.057   6.428  0.5575  0.6006  0.3581
  138OSM    H1S15013   3.335   6.013   6.417  0.6420  0.1343  1.4494
  138OSM    H1T15014   3.439   6.153   6.372 -1.8139 -0.3457 -1.4386
  138OSM     NF15015   3.319   6.170   6.621 -0.1140 -0.1915  0.3147
  138OSM    HNF15016   3.315   6.269   6.634  3.1705 -0.1044  0.9364
  138OSM    C2S15017   3.443   6.124   6.574 -0.1518 -0.3128 -0.0833
  138OSM    H2S15018   3.470   6.042   6.644 -1.3151  0.1186  0.9024
  138OSM    C3S15019   3.557   6.232   6.588 -0.0281  0.1635 -0.2702
  138OSM    H3S15020   3.552   6.325   6.526 -1.9753 -0.8457 -1.6749
  138OSM     O315021   3.684   6.175   6.547  0.3793  0.0074 -0.2714
  138OSM    HO315022   3.664   6.088   6.512  1.5585 -0.7301  0.8123
  138OSM    C4S15023   3.585   6.274   6.731  0.4351 -0.2173 -0.4240
  138OSM    H4S15024   3.638   6.205   6.798  0.3695 -0.8274 -0.9994
  138OSM    C5S15025   3.554   6.395   6.780 -0.2079  0.4962 -0.0567
  138OSM    H5S15026   3.505   6.468   6.714 -1.8331 -0.0942  0.4744
  138OSM    C6S15027   3.574   6.446   6.919 -0.7348 -0.2355  0.5630
  138OSM    H6S15028   3.478   6.471   6.969 -0.4300  0.6071  0.7365
  138OSM    H6T15029   3.625   6.544   6.907  0.0556 -0.6727  0.3723
  138OSM    C7S15030   3.664   6.355   7.005  0.4293 -0.1165 -0.3239
  138OSM    H7S15031   3.761   6.334   6.955  0.6618 -3.0181  1.2310
  138OSM    H7T15032   3.622   6.255   7.031  0.9012 -0.2208  0.0480
  138OSM    C8S15033   3.676   6.422   7.141 -0.1735  0.3392 -0.1010
  138OSM    H8S15034   3.577   6.414   7.191  0.4186  1.1928  1.2099
  138OSM    H8T15035   3.697   6.530   7.127 -4.8286  1.4295  0.2967
  138OSM    C9S15036   3.792   6.370   7.225  0.4148  0.1005  0.8297
  138OSM    H9S15037   3.879   6.425   7.186  0.9454 -0.6402  0.9569
  138OSM    H9T15038   3.804   6.262   7.200  1.2478  1.1024 -3.4458
  138OSM   C10S15039   3.781   6.403   7.369  0.1183 -0.0790  0.6167
  138OSM   H10S15040   3.697   6.351   7.420 -0.4855 -1.7841 -2.0274
  138OSM   H10T15041   3.752   6.510   7.355  2.8402  1.1640  3.8321
  138OSM   C11S15042   3.909   6.370   7.439  0.2020 -0.1728  1.0406
  138OSM   H11S15043   3.987   6.403   7.367  0.2386  0.9832  1.5939
  138OSM   H11T15044   3.926   6.261   7.433 -0.8669 -0.3620  1.4016
  138OSM   C12S15045   3.927   6.446   7.570 -0.0791  0.1753  0.7350
  138OSM   H12S15046   3.887   6.550   7.567 -0.0662  0.1413 -2.1912
  138OSM   H12T15047   4.037   6.447   7.584  0.0109 -0.1276  0.0975
  138OSM   C13S15048   3.880   6.379   7.702 -0.0102 -0.6097  0.2220
  138OSM   H13S15049   3.923   6.277   7.716 -0.2873 -1.1053 -2.2100
  138OSM   H13T15050   3.769   6.372   7.691  0.0149  0.0571 -0.5433
  138OSM   C14S15051   3.923   6.455   7.829 -0.8571 -0.1281 -0.7396
  138OSM   H14S15052   3.926   6.565   7.814  0.7001 -0.3081 -1.9610
  138OSM   H14T15053   4.022   6.422   7.868 -1.6896 -2.4271 -0.5114
  138OSM   C15S15054   3.838   6.425   7.946  0.6532  0.1310 -0.2844
  138OSM   H15S15055   3.836   6.316   7.967  0.8545  0.3088  0.6894
  138OSM   H15T15056   3.731   6.443   7.922 -0.0841 -0.4948  2.4272
  138OSM   C16S15057   3.868   6.515   8.066 -0.2349  0.2013 -0.3569
  138OSM   H16S15058   3.815   6.611   8.049 -2.6117 -1.0806 -0.4890
  138OSM   H16T15059   3.975   6.527   8.094  0.4987 -1.4223 -2.3560
  138OSM   C17S15060   3.788   6.470   8.187  0.2166  0.2318  0.0004
  138OSM   H17S15061   3.839   6.374   8.214 -0.3594 -0.0057  0.2580
  138OSM   H17T15062   3.687   6.430   8.167  0.5588 -0.4483 -0.3960
  138OSM   C18S15063   3.792   6.578   8.294  0.0275 -0.3745  0.2576
  138OSM   H18S15064   3.895   6.615   8.312 -0.3066  0.4390  0.5063
  138OSM   H18T15065   3.763   6.537   8.392 -0.0231  1.6701  1.1270
  138OSM   H18U15066   3.718   6.659   8.273 -1.8696 -1.8525  1.0540
  138OSM    C1F15067   3.216   6.092   6.646 -0.4630  0.1136 -0.3203
  138OSM     OF15068   3.230   5.969   6.641  0.0267  0.5832  0.8329
  138OSM    C2F15069   3.093   6.161   6.679 -0.6071 -0.0173 -0.4903
  138OSM    H2F15070   3.015   6.091   6.638 -0.4819 -0.0855 -0.6128
  138OSM    H2G15071   3.085   6.261   6.631  1.6927  1.5492  2.2584
  138OSM    C3F15072   3.060   6.162   6.832  0.4382 -0.8773  0.3640
  138OSM    H3F15073   3.060   6.056   6.865 -0.5849 -0.3972  1.9515
  138OSM    H3G15074   2.965   6.220   6.838 -0.1475 -1.3546 -3.3914
  138OSM    C4F15075   3.180   6.224   6.916 -0.9358  0.8023  0.7455
  138OSM    H4F15076   3.191   6.330   6.885  2.0818  0.4044  0.3997
  138OSM    H4G15077   3.275   6.170   6.901 -2.2358 -1.5178  0.5622
  138OSM    C5F15078   3.153   6.223   7.064 -0.2330  0.1864 -0.0678
  138OSM    H5F15079   3.087   6.310   7.084 -0.1165  0.0264  1.0006
  138OSM    H5G15080   3.253   6.236   7.112 -0.5297  0.0434  0.5898
  138OSM    C6F15081   3.099   6.085   7.117  0.2777  0.8784 -0.5521
  138OSM    H6F15082   3.162   5.999   7.088  0.4002  0.7021  0.2175
  138OSM    H6G15083   2.995   6.066   7.085 -0.0416  2.0647 -0.2460
  138OSM    C7F15084   3.105   6.076   7.274  0.4907  0.1824  0.2799
  138OSM    H7F15085   3.039   6.154   7.316  1.7511  1.3209  0.2008
  138OSM    H7G15086   3.209   6.108   7.299  0.8446  0.5048 -1.4685
  138OSM    C8F15087   3.069   5.934   7.322 -0.0708  0.1894  0.2330
  138OSM    H8F15088   3.103   5.922   7.427 -0.9220 -0.4336  0.4516
  138OSM    H8G15089   3.116   5.851   7.264 -1.1164  0.2282 -0.7001
  138OSM    C9F15090   2.919   5.903   7.320  0.1335  0.2326 -0.2805
  138OSM    H9F15091   2.890   5.872   7.219  0.4405  0.1709 -0.3487
  138OSM   C10F15092   2.829   5.914   7.424 -0.2227 -0.3557  0.7935
  138OSM   H10F15093   2.723   5.890   7.409  0.3721 -2.5392 -0.1054
  138OSM   C11F15094   2.868   5.951   7.562  0.2135  0.0183 -0.3874
  138OSM   H11F15095   2.780   5.982   7.622 -0.7453 -2.1512 -0.6185
  138OSM   H11G15096   2.954   6.020   7.572  0.5444 -0.5827  1.0833
  138OSM   C12F15097   2.907   5.827   7.641 -0.2902 -0.5010  0.3240
  138OSM   H12F15098   2.998   5.780   7.597  0.3091  0.7320  0.2214
  138OSM   H12G15099   2.826   5.751   7.642  1.3555 -2.3582  3.6206
  138OSM   C13F15100   2.941   5.865   7.792 -0.4552  0.5021  0.0543
  138OSM   H13F15101   2.927   5.774   7.854 -1.2657 -1.7300 -3.2629
  138OSM   H13G15102   2.868   5.940   7.829 -1.7760 -0.4800 -0.4932
  138OSM   C14F15103   3.081   5.908   7.809  0.5681 -0.1573  0.4335
  138OSM   H14F15104   3.115   5.960   7.717  0.0524 -0.3641  0.1198
  138OSM   H14G15105   3.156   5.826   7.818  2.2717  1.3314  0.1694
  138OSM   C15F15106   3.101   5.993   7.926  0.7672 -0.2239  0.1673
  138OSM   H15F15107   3.209   6.003   7.950  0.8932  1.7366 -1.0481
  138OSM   H15G15108   3.038   5.956   8.009 -0.9669 -0.6297 -1.2922
  138OSM   C16F15109   3.052   6.140   7.895 -0.1777  0.4877 -0.4186
  138OSM   H16F15110   2.942   6.150   7.877 -0.2376  0.8647  0.1372
  138OSM   H16G15111   3.113   6.185   7.813  0.0222  0.9579 -0.0106
  138OSM   C17F15112   3.085   6.232   8.011 -0.0366  0.1488 -0.4765
  138OSM   H17F15113   3.189   6.207   8.038 -0.0729 -0.2026 -0.6654
  138OSM   H17G15114   3.006   6.207   8.084  0.2968 -1.1939 -0.5754
  138OSM   C18F15115   3.070   6.376   7.981 -0.0745  0.0256 -0.1280
  138OSM   H18F15116   3.155   6.409   7.917 -1.1218 -0.0632 -1.6073
  138OSM   H18G15117   3.065   6.438   8.073  2.1950 -0.1933  0.1649
  138OSM   H18H15118   2.975   6.395   7.926  0.4741  1.4734 -0.6156
  139OSM      N15119   1.944   0.528   5.934  0.3860  0.2265 -0.8337
  139OSM    C1515120   1.820   0.586   5.861 -0.5820  0.6636  0.2102
  139OSM   H15A15121   1.763   0.633   5.939 -2.1694 -2.3881  0.9456
  139OSM   H15B15122   1.745   0.514   5.831 -0.6549  0.5840  0.5918
  139OSM   H15C15123   1.844   0.667   5.793  0.0064  0.2631 -0.0653
  139OSM    C1415124   2.002   0.434   5.836  0.0389  0.5092 -0.3662
  139OSM   H14A15125   1.937   0.352   5.813 -2.7673  3.0611 -1.9897
  139OSM   H14B15126   2.095   0.397   5.876 -0.3415 -3.0347 -2.5471
  139OSM   H14C15127   2.035   0.485   5.746 -0.7492 -0.5927 -1.2846
  139OSM    C1315128   2.044   0.639   5.956  0.0554  0.4415  0.6897
  139OSM   H13A15129   2.007   0.714   6.025 -2.0430 -0.8311  0.9966
  139OSM   H13B15130   2.054   0.687   5.860 -1.9495 -0.1062  0.1834
  139OSM   H13C15131   2.135   0.609   6.005  0.4145  0.1365 -0.1630
  139OSM    C1215132   1.913   0.462   6.067  0.4601  0.0509 -0.2250
  139OSM   H12A15133   1.851   0.375   6.046  3.3728 -2.2396  0.2937
  139OSM   H12B15134   1.849   0.513   6.138  0.9215 -0.5056  0.6085
  139OSM    C1115135   2.035   0.409   6.154 -0.5815  0.4497  0.1572
  139OSM   H11A15136   1.998   0.369   6.251 -2.4644  0.6800 -0.4436
  139OSM   H11B15137   2.110   0.486   6.182  1.3804 -1.2037 -0.4335
  139OSM      P15138   2.100   0.155   6.098 -0.1358  0.3132 -0.6342
  139OSM    O1315139   1.977   0.109   6.040  0.4217 -0.3491  0.1341
  139OSM    O1415140   2.208   0.075   6.051 -0.3540 -0.8904 -0.8716
  139OSM    O1115141   2.097   0.142   6.260  0.3420  0.1400  0.0983
  139OSM    O1215142   2.113   0.313   6.085  0.0296 -0.7794  0.1612
  139OSM    C1S15143   2.211   0.182   6.342  0.0306  0.2877  0.0749
  139OSM    H1S15144   2.257   0.281   6.320  1.9598 -0.8966 -1.3123
  139OSM    H1T15145   2.289   0.103   6.343 -0.2515  0.0043 -0.2416
  139OSM     NF15146   2.302   0.240   6.571  0.2671 -0.0698 -0.5261
  139OSM    HNF15147   2.363   0.180   6.622  1.0803  1.1703 -0.0072
  139OSM    C2S15148   2.189   0.182   6.501 -0.2063 -0.0455  1.3556
  139OSM    H2S15149   2.096   0.238   6.524  0.4622  1.6143  0.1287
  139OSM    C3S15150   2.171   0.026   6.537  0.4131 -0.7390 -0.0616
  139OSM    H3S15151   2.259  -0.032   6.501 -0.4636 -1.0283 -1.7891
  139OSM     O315152   2.067  -0.038   6.463  0.0749  0.5343 -0.3304
  139OSM    HO315153   2.045   0.025   6.394 -1.1716  1.1293  0.5899
  139OSM    C4S15154   2.157  -0.006   6.682 -0.2487 -0.2138  0.4106
  139OSM    H4S15155   2.248  -0.052   6.723  0.9697  1.0010 -0.9029
  139OSM    C5S15156   2.053   0.002   6.762 -1.0980  0.2572 -0.6353
  139OSM    H5S15157   1.958   0.038   6.720 -2.0045 -0.4364  0.7770
  139OSM    C6S15158   2.048  -0.034   6.903  0.1673 -0.2952  0.2998
  139OSM    H6S15159   2.144  -0.074   6.941  0.0260 -2.6810 -1.7665
  139OSM    H6T15160   1.970  -0.113   6.910 -0.6637  0.7302  3.8726
  139OSM    C7S15161   1.997   0.084   6.985  0.3404 -0.0797  0.7278
  139OSM    H7S15162   1.902   0.132   6.954 -0.0050 -0.6098  0.9684
  139OSM    H7T15163   2.084   0.153   6.986 -1.7004  2.5662  1.8201
  139OSM    C8S15164   1.963   0.043   7.131 -0.3074  0.7147  0.4022
  139OSM    H8S15165   2.057  -0.002   7.170  1.4370  0.2289 -4.0152
  139OSM    H8T15166   1.885  -0.036   7.130 -1.5666  1.9405 -1.2406
  139OSM    C9S15167   1.915   0.159   7.221 -0.3189  0.4910 -0.1340
  139OSM    H9S15168   1.806   0.169   7.202 -0.4863 -1.4863 -0.3585
  139OSM    H9T15169   1.964   0.253   7.188  2.6829 -1.5440 -1.6844
  139OSM   C10S15170   1.934   0.135   7.370 -0.1885  0.2735  0.1920
  139OSM   H10S15171   2.040   0.107   7.391 -0.4008 -2.2487 -1.8486
  139OSM   H10T15172   1.876   0.043   7.393  1.9456 -0.4947  2.8246
  139OSM   C11S15173   1.889   0.254   7.454 -0.3198  0.5378  0.6561
  139OSM   H11S15174   1.795   0.309   7.430 -0.6194 -0.3242 -0.1748
  139OSM   H11T15175   1.966   0.331   7.432 -1.2716  1.1760 -0.5172
  139OSM   C12S15176   1.888   0.215   7.602  0.6586  0.7715  0.6396
  139OSM   H12S15177   1.945   0.121   7.616  0.3413  0.4238 -0.3662
  139OSM   H12T15178   1.780   0.203   7.623  0.7875  1.5255  1.7664
  139OSM   C13S15179   1.951   0.306   7.699 -0.1194 -0.9166 -0.3754
  139OSM   H13S15180   1.907   0.408   7.697 -2.1147 -1.5137  4.8023
  139OSM   H13T15181   2.052   0.318   7.655 -1.6928  1.8573 -3.4441
  139OSM   C14S15182   1.954   0.258   7.842 -0.0519 -0.5851 -0.5905
  139OSM   H14S15183   1.990   0.342   7.905 -1.2665 -0.3762 -0.1624
  139OSM   H14T15184   2.036   0.185   7.857  0.4708 -0.2165 -1.5938
  139OSM   C15S15185   1.820   0.215   7.902  0.0690 -0.5664 -0.7941
  139OSM   H15S15186   1.790   0.124   7.846  1.8931 -1.3141 -0.5869
  139OSM   H15T15187   1.752   0.303   7.899  1.9612  0.9337 -0.6116
  139OSM   C16S15188   1.828   0.178   8.054  0.0017 -0.3348  0.6471
  139OSM   H16S15189   1.898   0.093   8.068  1.5509  1.5337  5.1189
  139OSM   H16T15190   1.724   0.145   8.077  0.7738 -3.9671 -0.6367
  139OSM   C17S15191   1.881   0.292   8.142 -0.3751 -0.5432 -0.3150
  139OSM   H17S15192   1.802   0.371   8.143 -0.4195 -0.5907  0.4487
  139OSM   H17T15193   1.979   0.338   8.116 -0.3806  0.1655  0.8556
  139OSM   C18S15194   1.901   0.248   8.288  0.4543  0.7136  0.4544
  139OSM   H18S15195   1.925   0.330   8.359 -1.9646  0.5966  1.4364
  139OSM   H18T15196   1.973   0.164   8.292 -1.2263 -0.6433  3.8890
  139OSM   H18U15197   1.804   0.216   8.331  0.5507 -0.7086 -0.3556
  139OSM    C1F15198   2.325   0.369   6.571  0.1035 -0.0280  0.4073
  139OSM     OF15199   2.246   0.443   6.504  0.2001  0.1564  0.1856
  139OSM    C2F15200   2.442   0.417   6.639 -0.3170 -0.0636 -0.2743
  139OSM    H2F15201   2.523   0.431   6.564  0.0433 -0.9441 -0.0592
  139OSM    H2G15202   2.475   0.343   6.716  3.2297  0.3445 -1.3252
  139OSM    C3F15203   2.416   0.547   6.723  0.6097 -0.4469 -0.2526
  139OSM    H3F15204   2.332   0.532   6.795  1.3143  0.6075  0.8014
  139OSM    H3G15205   2.387   0.632   6.658  0.2475 -0.3077  0.0884
  139OSM    C4F15206   2.550   0.596   6.784 -0.3079 -0.4251 -0.2233
  139OSM    H4F15207   2.525   0.703   6.803 -0.3631 -0.3418 -0.7415
  139OSM    H4G15208   2.636   0.604   6.715  0.2300  4.7990  0.8393
  139OSM    C5F15209   2.592   0.527   6.915 -0.4501  0.1019  0.1159
  139OSM    H5F15210   2.637   0.430   6.885 -0.8515  0.4546 -1.7006
  139OSM    H5G15211   2.512   0.520   6.991  0.8274 -0.1687  1.4645
  139OSM    C6F15212   2.699   0.603   6.991  0.2596  0.1300 -0.1402
  139OSM    H6F15213   2.684   0.712   6.974 -0.1350  0.3331  1.3835
  139OSM    H6G15214   2.798   0.571   6.954  0.9803  0.3372  1.5483
  139OSM    C7F15215   2.687   0.583   7.143  0.7244  0.0563  0.3420
  139OSM    H7F15216   2.711   0.481   7.179  2.0323  0.2644  0.1087
  139OSM    H7G15217   2.582   0.606   7.171  0.7029  1.7356 -1.0179
  139OSM    C8F15218   2.779   0.680   7.217 -0.2472 -0.6093 -0.7457
  139OSM    H8F15219   2.737   0.783   7.226  0.1183 -0.6733  2.0105
  139OSM    H8G15220   2.876   0.680   7.164 -0.5754 -1.9372 -1.3734
  139OSM    C9F15221   2.793   0.653   7.364  0.2942  0.6668 -0.3798
  139OSM    H9F15222   2.721   0.704   7.429 -1.3020 -0.4069 -1.2766
  139OSM   C10F15223   2.893   0.589   7.435 -0.1759 -0.6461 -0.1717
  139OSM   H10F15224   2.892   0.579   7.545 -0.3853  1.4164  0.0237
  139OSM   C11F15225   3.009   0.513   7.367  0.1173 -0.0794  0.9773
  139OSM   H11F15226   3.108   0.554   7.395  0.8480 -0.3745 -1.0758
  139OSM   H11G15227   2.997   0.522   7.257 -2.3774 -2.7860  0.9779
  139OSM   C12F15228   2.993   0.358   7.378  0.3597  0.3738  0.2946
  139OSM   H12F15229   3.083   0.309   7.335 -0.5210 -1.0720  0.0727
  139OSM   H12G15230   2.904   0.332   7.317 -2.0139  1.3236  3.2496
  139OSM   C13F15231   3.001   0.298   7.517 -0.6030  0.6830 -0.0044
  139OSM   H13F15232   2.901   0.303   7.563  0.3169 -1.5641  2.3157
  139OSM   H13G15233   3.055   0.376   7.575 -2.0710  1.7561 -0.0674
  139OSM   C14F15234   3.065   0.160   7.520 -0.0558 -0.0460 -0.1461
  139OSM   H14F15235   3.165   0.163   7.472 -0.3388 -0.0884 -0.7410
  139OSM   H14G15236   2.988   0.089   7.483 -0.4226 -1.2578  2.7545
  139OSM   C15F15237   3.081   0.104   7.657  0.0451 -0.3040 -0.3072
  139OSM   H15F15238   2.985   0.109   7.714 -0.1607  2.5494 -0.8328
  139OSM   H15G15239   3.158   0.157   7.717 -0.6433 -1.0970  1.3174
  139OSM   C16F15240   3.140  -0.038   7.654  0.1195 -0.0419  0.2128
  139OSM   H16F15241   3.238  -0.038   7.600 -1.3284  0.9068 -2.5272
  139OSM   H16G15242   3.070  -0.107   7.603 -0.8244  0.1660  1.2157
  139OSM   C17F15243   3.165  -0.099   7.791  0.6730 -0.4901 -0.5478
  139OSM   H17F15244   3.252  -0.045   7.834  0.5285  0.4489 -1.4058
  139OSM   H17G15245   3.195  -0.205   7.780  0.6368 -0.6093  0.5085
  139OSM   C18F15246   3.036  -0.083   7.870 -0.7891 -0.3750 -0.5299
  139OSM   H18F15247   3.023   0.024   7.897  1.2996 -0.2568  0.0896
  139OSM   H18G15248   3.051  -0.134   7.968  0.6491  2.3475  0.7360
  139OSM   H18H15249   2.939  -0.115   7.826 -2.1696  2.2939  0.4500
  140OSM      N15250   3.284   2.035   6.252  0.0827  0.1414  0.3280
  140OSM    C1515251   3.160   2.102   6.318 -0.0802 -0.2124 -0.3820
  140OSM   H15A15252   3.163   2.101   6.426 -2.3615 -0.7363 -0.2897
  140OSM   H15B15253   3.077   2.039   6.292  0.3012  0.1345 -2.5644
  140OSM   H15C15254   3.144   2.203   6.281  0.1044  1.0321  2.7755
  140OSM    C1415255   3.266   2.048   6.105 -0.2880 -0.4068  0.3997
  140OSM   H14A15256   3.175   1.998   6.074 -1.0890  1.7111 -0.7592
  140OSM   H14B15257   3.349   2.003   6.053 -0.8614 -0.2977 -0.6128
  140OSM   H14C15258   3.260   2.153   6.078  1.6341 -0.7105 -1.3064
  140OSM    C1315259   3.405   2.098   6.309  0.6762  0.7516 -0.0787
  140OSM   H13A15260   3.425   2.194   6.264  1.2634 -0.3446 -2.2205
  140OSM   H13B15261   3.493   2.040   6.287  0.0402 -0.5543  0.7575
  140OSM   H13C15262   3.398   2.106   6.417  1.9985 -2.2974  0.2766
  140OSM    C1215263   3.288   1.888   6.296 -0.8669 -0.1768 -0.4579
  140OSM   H12A15264   3.202   1.840   6.252 -1.5619  0.2954  0.3695
  140OSM   H12B15265   3.286   1.864   6.401  1.4059 -0.3178 -0.4221
  140OSM    C1115266   3.418   1.815   6.250  0.0634  0.8120 -0.4138
  140OSM   H11A15267   3.433   1.836   6.142 -1.4620  1.2164 -0.5623
  140OSM   H11B15268   3.401   1.706   6.248  0.3335  0.7806 -1.0529
  140OSM      P15269   3.552   1.799   6.483 -0.0258  0.2574  0.1389
  140OSM    O1315270   3.570   1.653   6.464 -0.1141 -0.2645  0.4090
  140OSM    O1415271   3.666   1.878   6.538 -0.3712  0.5162  0.2566
  140OSM    O1115272   3.419   1.825   6.554  0.4642  0.4323  0.3880
  140OSM    O1215273   3.528   1.847   6.335  0.4062  0.2925  0.6643
  140OSM    C1S15274   3.406   1.778   6.688 -0.3384  0.2376  0.6288
  140OSM    H1S15275   3.454   1.679   6.704 -0.7114  0.0662  0.7086
  140OSM    H1T15276   3.302   1.737   6.690  0.0278 -0.7827 -0.5210
  140OSM     NF15277   3.417   1.819   6.923  0.0724 -0.1353 -0.0346
  140OSM    HNF15278   3.344   1.840   6.988  0.9599  0.2923  0.8409
  140OSM    C2S15279   3.428   1.886   6.793 -0.4578  0.5437 -0.1622
  140OSM    H2S15280   3.534   1.914   6.807  0.2355 -1.7923 -0.5430
  140OSM    C3S15281   3.335   2.006   6.775 -0.2791 -0.2930 -0.1904
  140OSM    H3S15282   3.229   1.973   6.783 -0.1084 -0.9118 -0.4399
  140OSM     O315283   3.331   2.061   6.644 -0.1905  0.3287  0.0810
  140OSM    HO315284   3.373   1.993   6.590  1.2406  1.2587 -0.0212
  140OSM    C4S15285   3.372   2.108   6.875 -0.6345  0.0185 -0.2541
  140OSM    H4S15286   3.317   2.105   6.970 -2.1080  1.3568 -1.0355
  140OSM    C5S15287   3.453   2.214   6.859  0.1730  0.5406  0.5930
  140OSM    H5S15288   3.474   2.245   6.756 -2.5435 -0.1243 -0.1831
  140OSM    C6S15289   3.482   2.313   6.969  0.4168  0.4653 -0.2095
  140OSM    H6S15290   3.417   2.401   6.950 -0.9616 -0.2499  1.1639
  140OSM    H6T15291   3.588   2.341   6.954  0.0059  1.0072 -2.2181
  140OSM    C7S15292   3.455   2.270   7.121  0.2585  0.5503  0.6841
  140OSM    H7S15293   3.354   2.226   7.133 -0.3077  1.6229 -0.1788
  140OSM    H7T15294   3.459   2.366   7.177  1.4205  1.7243 -1.3570
  140OSM    C8S15295   3.547   2.156   7.172  0.4547 -0.8973 -0.0594
  140OSM    H8S15296   3.648   2.200   7.189 -0.4956  1.2447  0.2706
  140OSM    H8T15297   3.556   2.081   7.090  2.2921 -0.9457  0.1583
  140OSM    C9S15298   3.497   2.097   7.303 -0.1570 -0.5495 -0.0433
  140OSM    H9S15299   3.457   2.176   7.370  0.3002 -0.5683  0.2498
  140OSM    H9T15300   3.585   2.057   7.358 -0.1753 -1.7635 -0.8873
  140OSM   C10S15301   3.397   1.989   7.287  0.0439 -0.0159 -0.1923
  140OSM   H10S15302   3.433   1.890   7.252 -0.1531 -0.9208  2.0749
  140OSM   H10T15303   3.326   2.028   7.211  1.7238  0.0607 -1.7504
  140OSM   C11S15304   3.310   1.962   7.403  0.1939  0.0502 -0.9522
  140OSM   H11S15305   3.209   1.921   7.381  0.9849 -3.2717  1.1997
  140OSM   H11T15306   3.295   2.051   7.468 -0.7484 -0.3833 -0.5658
  140OSM   C12S15307   3.366   1.851   7.498 -0.3399  0.2831  0.5641
  140OSM   H12S15308   3.474   1.864   7.520  0.0945 -1.7008 -0.2189
  140OSM   H12T15309   3.357   1.747   7.459 -1.1241  0.5624 -0.0159
  140OSM   C13S15310   3.276   1.859   7.630 -1.1424 -0.6307 -0.2653
  140OSM   H13S15311   3.175   1.818   7.608 -1.7240 -0.2044  1.5461
  140OSM   H13T15312   3.267   1.964   7.667  2.9270  1.0137 -3.5700
  140OSM   C14S15313   3.340   1.782   7.748  0.6493  0.0815 -0.2364
  140OSM   H14S15314   3.435   1.835   7.767  1.1034 -0.2112 -1.6751
  140OSM   H14T15315   3.366   1.685   7.700 -0.4228 -1.6670  2.5943
  140OSM   C15S15316   3.253   1.773   7.865 -0.3626  0.4443  0.1014
  140OSM   H15S15317   3.159   1.719   7.840  0.0474  0.1495 -0.8503
  140OSM   H15T15318   3.221   1.876   7.892 -1.1877  0.0546  0.6124
  140OSM   C16S15319   3.328   1.715   7.981 -0.3254 -0.6310 -0.0412
  140OSM   H16S15320   3.398   1.788   8.027 -0.3409 -1.9167  2.0870
  140OSM   H16T15321   3.384   1.621   7.959 -0.0888 -0.7203  0.9490
  140OSM   C17S15322   3.235   1.675   8.099 -0.4397 -0.4470 -0.0884
  140OSM   H17S15323   3.145   1.625   8.057  0.2235  0.7817 -3.0941
  140OSM   H17T15324   3.190   1.767   8.142 -1.6228 -1.8398  1.7177
  140OSM   C18S15325   3.304   1.590   8.209 -0.2193  0.4757 -0.9405
  140OSM   H18S15326   3.232   1.590   8.294 -0.3671  2.1055 -1.0546
  140OSM   H18T15327   3.401   1.633   8.241 -1.1897  0.4144  2.2425
  140OSM   H18U15328   3.309   1.490   8.159  0.9294  0.3383 -0.5545
  140OSM    C1F15329   3.489   1.709   6.966 -0.7771 -0.5082  0.9445
  140OSM     OF15330   3.593   1.675   6.908 -0.0884  0.0361 -0.4561
  140OSM    C2F15331   3.426   1.633   7.075  0.1128 -0.4149 -1.0570
  140OSM    H2F15332   3.316   1.624   7.064  0.0022 -1.6297  0.7908
  140OSM    H2G15333   3.428   1.697   7.166 -3.2162  0.7273 -1.7194
  140OSM    C3F15334   3.500   1.497   7.111  0.8554  0.6613  0.3730
  140OSM    H3F15335   3.609   1.516   7.118  0.9472  0.9669 -1.5358
  140OSM    H3G15336   3.485   1.438   7.018  2.9479  2.0427 -0.8845
  140OSM    C4F15337   3.453   1.421   7.235 -0.0190 -0.7559  0.1087
  140OSM    H4F15338   3.497   1.461   7.329 -0.0345 -0.0543 -0.1820
  140OSM    H4G15339   3.487   1.316   7.217 -2.6805 -1.7734  0.7771
  140OSM    C5F15340   3.301   1.415   7.259  0.0504  0.7749  0.3165
  140OSM    H5F15341   3.253   1.348   7.185  1.2536  0.1823  0.0525
  140OSM    H5G15342   3.252   1.514   7.248 -0.3295  0.6764  1.0584
  140OSM    C6F15343   3.264   1.352   7.395 -0.0121 -0.2144 -0.0448
  140OSM    H6F15344   3.348   1.283   7.420 -0.6523 -0.8073  0.5198
  140OSM    H6G15345   3.165   1.302   7.383 -0.6049  0.3791  2.0835
  140OSM    C7F15346   3.241   1.438   7.518  0.2552  0.0159  0.0505
  140OSM    H7F15347   3.165   1.515   7.495 -0.5836 -0.5756  0.8084
  140OSM    H7G15348   3.333   1.498   7.535 -0.8401  2.0912 -1.1781
  140OSM    C8F15349   3.189   1.376   7.645 -0.0987  0.8612 -0.5393
  140OSM    H8F15350   3.110   1.307   7.608  0.9551 -0.6933  0.0678
  140OSM    H8G15351   3.156   1.457   7.712 -1.3257 -0.3961  0.3961
  140OSM    C9F15352   3.311   1.303   7.702  0.8657  0.2037 -0.7054
  140OSM    H9F15353   3.412   1.325   7.664  1.0707 -2.8572 -2.1212
  140OSM   C10F15354   3.314   1.217   7.803  0.1479  0.7241 -0.4235
  140OSM   H10F15355   3.410   1.173   7.831  0.3342  0.3157 -1.6384
  140OSM   C11F15356   3.190   1.179   7.887  0.3734 -0.1420 -0.2301
  140OSM   H11F15357   3.140   1.084   7.859 -0.0906  0.1179 -0.2875
  140OSM   H11G15358   3.119   1.262   7.871 -1.2092 -1.1805  1.2431
  140OSM   C12F15359   3.229   1.174   8.036  0.2470  0.2041  0.0289
  140OSM   H12F15360   3.265   1.273   8.072 -0.2346  1.2143 -2.1935
  140OSM   H12G15361   3.314   1.103   8.037 -1.0828 -1.4345 -1.2847
  140OSM   C13F15362   3.120   1.110   8.132 -0.1100 -0.0364  0.2458
  140OSM   H13F15363   3.017   1.149   8.114 -0.3506 -0.9192 -0.3148
  140OSM   H13G15364   3.144   1.138   8.237 -0.4378 -0.8784  0.5479
  140OSM   C14F15365   3.110   0.953   8.117  0.7873  0.1835  0.1507
  140OSM   H14F15366   3.207   0.904   8.141  0.9259 -1.0372 -2.6764
  140OSM   H14G15367   3.074   0.920   8.017  2.0112  1.3201 -0.6745
  140OSM   C15F15368   2.997   0.893   8.204  0.1944 -0.4559  0.1748
  140OSM   H15F15369   2.901   0.883   8.148 -0.4895 -0.3950  1.3247
  140OSM   H15G15370   2.971   0.949   8.296 -0.4211 -0.2328 -0.1306
  140OSM   C16F15371   3.025   0.750   8.263  0.0653 -0.6703 -0.6368
  140OSM   H16F15372   3.117   0.758   8.326 -1.1764  1.3020  0.9663
  140OSM   H16G15373   3.046   0.679   8.180  4.1301  0.7939 -1.0178
  140OSM   C17F15374   2.916   0.691   8.346 -0.0333  0.2393 -0.9026
  140OSM   H17F15375   2.831   0.662   8.280  0.0499  0.3089 -1.0398
  140OSM   H17G15376   2.862   0.765   8.409 -0.9915  0.6599 -2.2010
  140OSM   C18F15377   2.974   0.572   8.425  0.4910  0.2099 -0.6186
  140OSM   H18F15378   2.904   0.527   8.500  0.4220  0.7084 -0.3877
  140OSM   H18G15379   3.050   0.618   8.491  0.4645 -0.0626 -0.3928
  140OSM   H18H15380   3.025   0.489   8.371  0.9859  0.8351 -1.1119
  141OSM      N15381   1.471   3.963   5.876  0.6962 -0.6467  0.6005
  141OSM    C1515382   1.379   4.075   5.825 -0.2828 -0.2989 -0.1619
  141OSM   H15A15383   1.412   4.165   5.875 -0.5530 -1.6729  2.6188
  141OSM   H15B15384   1.275   4.049   5.838 -0.9357  0.7207 -3.0817
  141OSM   H15C15385   1.402   4.089   5.721 -2.5184 -0.8258 -0.7608
  141OSM    C1415386   1.395   3.835   5.850  0.9994  0.0497 -0.6751
  141OSM   H14A15387   1.350   3.825   5.752  0.6466  0.7588 -0.5882
  141OSM   H14B15388   1.304   3.820   5.907  0.4700 -0.5789 -1.6697
  141OSM   H14C15389   1.450   3.742   5.854 -0.3695 -0.7103  1.8054
  141OSM    C1315390   1.590   3.962   5.786  0.0663 -0.7150  0.1713
  141OSM   H13A15391   1.669   3.906   5.832 -0.5569 -1.0780  0.8074
  141OSM   H13B15392   1.634   4.060   5.777 -0.8343 -0.2073  1.1774
  141OSM   H13C15393   1.570   3.918   5.689 -0.1924 -2.1814  0.8797
  141OSM    C1215394   1.523   3.993   6.017 -0.8397 -0.1002 -0.2822
  141OSM   H12A15395   1.574   4.087   6.005  0.0782 -0.6533 -0.7921
  141OSM   H12B15396   1.583   3.909   6.051 -2.3424 -2.3451 -2.9883
  141OSM    C1115397   1.413   4.031   6.129 -0.8994 -0.7198  0.6232
  141OSM   H11A15398   1.349   4.115   6.096 -3.3868 -2.7675  0.0809
  141OSM   H11B15399   1.476   4.077   6.208  2.1907 -0.1571 -2.0634
  141OSM      P15400   1.393   3.807   6.246  0.0062 -0.2793 -0.1289
  141OSM    O1315401   1.283   3.713   6.279 -0.1110 -0.0012  0.0796
  141OSM    O1415402   1.508   3.754   6.173 -0.3755  0.1591 -0.2666
  141OSM    O1115403   1.432   3.883   6.381 -0.2487  0.7061  0.5978
  141OSM    O1215404   1.332   3.927   6.163  0.3558  0.8868 -0.0235
  141OSM    C1S15405   1.529   3.827   6.472  0.1980 -0.7611  0.0338
  141OSM    H1S15406   1.626   3.881   6.470  0.0849 -0.5893 -0.8748
  141OSM    H1T15407   1.552   3.721   6.447  2.7550  0.2889 -2.2270
  141OSM     NF15408   1.610   3.821   6.714 -0.0914 -0.1788 -0.2701
  141OSM    HNF15409   1.594   3.747   6.779 -1.9880  1.5569  1.2877
  141OSM    C2S15410   1.495   3.856   6.624 -0.5588 -0.5055 -0.4236
  141OSM    H2S15411   1.483   3.966   6.628 -0.8744 -0.5951  1.4613
  141OSM    C3S15412   1.359   3.799   6.668  0.5228  0.3656 -0.0113
  141OSM    H3S15413   1.375   3.689   6.670  1.9461  0.5252 -1.1967
  141OSM     O315414   1.249   3.807   6.580 -0.0007 -0.3055 -0.1557
  141OSM    HO315415   1.301   3.799   6.500  1.1594 -0.0744  0.5760
  141OSM    C4S15416   1.313   3.839   6.808  0.6549 -0.2375 -0.3784
  141OSM    H4S15417   1.342   3.767   6.886  2.2865  1.9013  1.0638
  141OSM    C5S15418   1.240   3.950   6.834 -1.0541 -0.2837 -0.3581
  141OSM    H5S15419   1.218   4.014   6.748  1.2027 -1.3801 -1.7871
  141OSM    C6S15420   1.193   3.998   6.966 -0.3732 -0.5417  0.2253
  141OSM    H6S15421   1.089   3.966   6.984 -1.0149  0.1296 -2.0806
  141OSM    H6T15422   1.197   4.109   6.969 -0.4459 -0.5560  1.1273
  141OSM    C7S15423   1.273   3.959   7.094  0.6269  0.3875  0.6953
  141OSM    H7S15424   1.371   4.009   7.102  0.5065  0.7660 -0.1715
  141OSM    H7T15425   1.285   3.848   7.089  0.7633  0.3887  1.0264
  141OSM    C8S15426   1.202   4.014   7.223  1.1838 -0.1477 -0.5438
  141OSM    H8S15427   1.097   3.980   7.208  1.0766  0.5691 -1.4482
  141OSM    H8T15428   1.204   4.123   7.204  0.1539  0.1066  0.7116
  141OSM    C9S15429   1.258   3.998   7.360  0.9427  0.1143  0.9883
  141OSM    H9S15430   1.358   4.045   7.350  0.3291  1.7487  2.3588
  141OSM    H9T15431   1.251   3.893   7.396 -0.1524 -0.0286  0.3810
  141OSM   C10S15432   1.174   4.068   7.469  0.3209  0.4263  0.3250
  141OSM   H10S15433   1.076   4.016   7.463  0.2179  0.3313  2.3040
  141OSM   H10T15434   1.155   4.174   7.440 -0.2932  0.3577  0.4692
  141OSM   C11S15435   1.237   4.066   7.611 -0.0173 -0.6238 -0.8962
  141OSM   H11S15436   1.278   3.964   7.628  1.5127  0.5475  2.8827
  141OSM   H11T15437   1.164   4.086   7.692  0.1368 -0.2212 -0.8525
  141OSM   C12S15438   1.347   4.171   7.636  0.3438  0.4607 -0.3458
  141OSM   H12S15439   1.330   4.268   7.585  4.7255  1.3421 -0.3405
  141OSM   H12T15440   1.444   4.132   7.597  0.3845  1.2978 -1.0984
  141OSM   C13S15441   1.380   4.199   7.785  0.2462 -0.0278 -0.1159
  141OSM   H13S15442   1.285   4.217   7.841  1.3808  3.4306  0.8575
  141OSM   H13T15443   1.431   4.298   7.790 -1.9271  1.0922  0.8388
  141OSM   C14S15444   1.448   4.088   7.864 -0.3365 -0.1251 -0.2476
  141OSM   H14S15445   1.544   4.058   7.817  0.4443  2.7566 -0.6050
  141OSM   H14T15446   1.387   3.996   7.873 -0.3020 -0.1715 -0.4907
  141OSM   C15S15447   1.480   4.119   8.015  0.2385 -0.2250 -0.3306
  141OSM   H15S15448   1.421   4.210   8.044 -2.4892 -2.0773  0.1298
  141OSM   H15T15449   1.585   4.153   8.002  0.5856 -0.1925  2.2684
  141OSM   C16S15450   1.476   4.004   8.121 -0.5436  0.1194 -0.0843
  141OSM   H16S15451   1.553   3.931   8.087 -0.8462 -0.1639 -0.1680
  141OSM   H16T15452   1.374   3.962   8.104 -0.6060  0.7167 -1.2252
  141OSM   C17S15453   1.495   4.057   8.264 -0.9611  0.6361 -0.8960
  141OSM   H17S15454   1.404   4.112   8.299  0.4405  1.2009  2.0090
  141OSM   H17T15455   1.576   4.134   8.263 -0.9865  0.7630  2.6036
  141OSM   C18S15456   1.521   3.937   8.352 -0.2788 -1.4052  0.0756
  141OSM   H18S15457   1.541   3.971   8.456 -3.1090 -2.4009  0.9937
  141OSM   H18T15458   1.620   3.896   8.322  0.5870  0.7205 -0.0624
  141OSM   H18U15459   1.430   3.874   8.356 -0.5613 -1.2134 -2.2429
  141OSM    C1F15460   1.727   3.882   6.706  0.6440  0.1432 -0.4927
  141OSM     OF15461   1.744   3.985   6.639 -0.3451  0.0299  0.5570
  141OSM    C2F15462   1.835   3.818   6.780  0.1874 -0.4731  0.4392
  141OSM    H2F15463   1.856   3.724   6.724 -1.2615 -0.8216  0.4748
  141OSM    H2G15464   1.796   3.803   6.883 -2.0227  0.3130 -0.2580
  141OSM    C3F15465   1.972   3.883   6.777 -1.0507  0.1024  0.3028
  141OSM    H3F15466   1.970   3.989   6.809 -1.5863  0.0932  0.3062
  141OSM    H3G15467   2.015   3.873   6.675 -0.0264  1.0773  0.6228
  141OSM    C4F15468   2.074   3.810   6.862 -1.0462 -0.4213 -0.3593
  141OSM    H4F15469   2.172   3.839   6.817 -1.8986 -1.0973 -2.7187
  141OSM    H4G15470   2.055   3.705   6.832  0.3957 -0.4460 -1.2546
  141OSM    C5F15471   2.060   3.833   7.007 -0.9111  0.7580 -0.5298
  141OSM    H5F15472   2.048   3.736   7.061 -1.4902 -0.2185 -2.3530
  141OSM    H5G15473   1.975   3.903   7.026 -1.2668  0.5498 -1.3206
  141OSM    C6F15474   2.182   3.913   7.055  0.9857 -0.0652  0.4267
  141OSM    H6F15475   2.186   4.006   6.996 -0.3603 -1.1333 -1.3988
  141OSM    H6G15476   2.280   3.861   7.050  1.5490  1.0587 -0.3579
  141OSM    C7F15477   2.165   3.942   7.206  0.6610  0.3447  0.3342
  141OSM    H7F15478   2.156   3.844   7.257 -2.8342  1.3255  1.7324
  141OSM    H7G15479   2.074   3.999   7.234 -0.5963 -1.2781 -0.3967
  141OSM    C8F15480   2.288   3.994   7.281 -0.1189 -0.9675  0.0300
  141OSM    H8F15481   2.377   3.938   7.246 -0.6730 -1.6145 -0.3565
  141OSM    H8G15482   2.274   3.981   7.390 -1.9008  0.7061  0.0337
  141OSM    C9F15483   2.319   4.135   7.248  0.0888 -0.1805  0.3779
  141OSM    H9F15484   2.361   4.143   7.147 -4.1625  0.5034 -1.4467
  141OSM   C10F15485   2.289   4.243   7.319  0.8002 -0.0471 -0.5005
  141OSM   H10F15486   2.306   4.341   7.271 -2.5315  0.6306 -0.4002
  141OSM   C11F15487   2.226   4.258   7.457  0.4460 -0.3669  0.0420
  141OSM   H11F15488   2.201   4.156   7.495  1.3485  0.3503  2.6265
  141OSM   H11G15489   2.135   4.321   7.451  1.8016  1.6864  0.5564
  141OSM   C12F15490   2.323   4.323   7.561  0.4444 -0.2185 -0.3097
  141OSM   H12F15491   2.382   4.400   7.506  0.0970 -0.9108 -1.6791
  141OSM   H12G15492   2.397   4.246   7.592 -1.2044 -1.8659 -0.4160
  141OSM   C13F15493   2.249   4.378   7.686 -0.5224  0.0011 -1.1037
  141OSM   H13F15494   2.177   4.303   7.724  0.3332 -0.5558 -0.5663
  141OSM   H13G15495   2.187   4.465   7.653 -1.0220 -1.4827 -4.2648
  141OSM   C14F15496   2.346   4.422   7.800  0.4778 -0.5564 -0.2411
  141OSM   H14F15497   2.419   4.495   7.759 -0.2210  0.7890  0.8650
  141OSM   H14G15498   2.394   4.327   7.833 -0.8960 -0.7614  1.2571
  141OSM   C15F15499   2.274   4.491   7.920  0.1431 -0.4496  0.4313
  141OSM   H15F15500   2.190   4.558   7.891 -3.0037 -2.7958  3.5981
  141OSM   H15G15501   2.344   4.549   7.983 -0.0848  0.6879 -0.3600
  141OSM   C16F15502   2.209   4.387   8.020 -0.0112  0.5216 -0.4477
  141OSM   H16F15503   2.248   4.286   7.994  0.5522  0.1811  1.5806
  141OSM   H16G15504   2.099   4.395   8.012 -0.0842 -0.3184 -0.4082
  141OSM   C17F15505   2.254   4.409   8.167 -0.4783  0.1116  0.2323
  141OSM   H17F15506   2.361   4.435   8.181 -0.6944 -0.4215  3.1053
  141OSM   H17G15507   2.233   4.312   8.215 -0.2262 -1.1023 -2.0402
  141OSM   C18F15508   2.188   4.526   8.242 -0.7370  0.2634 -0.1365
  141OSM   H18F15509   2.086   4.489   8.266 -0.0036 -0.4628  2.1073
  141OSM   H18G15510   2.176   4.612   8.174  0.3493  0.1645 -0.4616
  141OSM   H18H15511   2.236   4.564   8.335 -1.8798  1.4686 -0.0405
  142OSM      N15512   2.650   5.455   5.991 -0.3710  0.0825 -0.5859
  142OSM    C1515513   2.648   5.609   5.996  1.0067 -0.7579 -0.1509
  142OSM   H15A15514   2.709   5.651   5.918 -2.0160  2.1899 -1.0581
  142OSM   H15B15515   2.685   5.646   6.090  2.3437 -0.3885 -0.8214
  142OSM   H15C15516   2.546   5.646   5.993  1.0121 -0.8471 -1.8086
  142OSM    C1415517   2.614   5.409   5.852  0.1949 -0.1682  0.3917
  142OSM   H14A15518   2.640   5.306   5.833 -1.7888 -0.4520 -1.0453
  142OSM   H14B15519   2.672   5.460   5.776  2.5360 -0.3183  2.0370
  142OSM   H14C15520   2.510   5.434   5.832 -0.0182  0.4912  2.2539
  142OSM    C1315521   2.783   5.398   6.023 -0.0393  0.0196 -0.0342
  142OSM   H13A15522   2.790   5.290   6.026  3.8182  0.2282  0.5239
  142OSM   H13B15523   2.810   5.432   6.122 -1.2956 -2.1780  1.0954
  142OSM   H13C15524   2.852   5.424   5.944  1.2371 -2.1228  0.3360
  142OSM    C1215525   2.556   5.407   6.098 -0.3494 -0.1177  0.1312
  142OSM   H12A15526   2.532   5.302   6.088 -1.2355  0.1292 -0.4393
  142OSM   H12B15527   2.461   5.452   6.071  0.8760  0.8428 -2.7009
  142OSM    C1115528   2.566   5.456   6.252 -0.1078 -0.0718  0.5690
  142OSM   H11A15529   2.665   5.412   6.279 -0.2795  0.1577  1.6262
  142OSM   H11B15530   2.490   5.400   6.311 -1.7766  0.5050 -0.9794
  142OSM      P15531   2.401   5.655   6.279 -0.1559 -0.5224 -0.2174
  142OSM    O1315532   2.396   5.802   6.245 -0.1601  0.3197 -0.2276
  142OSM    O1415533   2.308   5.562   6.211  0.4446  0.1417  0.1406
  142OSM    O1115534   2.379   5.637   6.435  0.4478  0.0370  0.7984
  142OSM    O1215535   2.548   5.598   6.265  0.0557 -0.9238  0.3700
  142OSM    C1S15536   2.478   5.685   6.530 -0.1197  0.2520  0.5160
  142OSM    H1S15537   2.493   5.792   6.504 -0.5728  0.1560 -0.1647
  142OSM    H1T15538   2.571   5.625   6.516 -0.0249  0.0902  1.8331
  142OSM     NF15539   2.519   5.727   6.772  0.2899  0.8088  0.4242
  142OSM    HNF15540   2.581   5.668   6.824  2.1640 -1.2724 -3.9888
  142OSM    C2S15541   2.430   5.661   6.674  0.0551 -0.4300 -0.3092
  142OSM    H2S15542   2.331   5.710   6.682  0.5744  0.6915 -0.5939
  142OSM    C3S15543   2.407   5.509   6.707  0.5674 -0.8003 -0.1280
  142OSM    H3S15544   2.508   5.463   6.713  1.3572  0.9683  0.4724
  142OSM     O315545   2.326   5.436   6.614 -0.3010 -0.0518  0.5082
  142OSM    HO315546   2.323   5.499   6.542  2.3167 -0.5717 -0.1327
  142OSM    C4S15547   2.355   5.497   6.856  0.1665  0.2506  0.2538
  142OSM    H4S15548   2.435   5.519   6.928 -0.2518  1.4849  0.3544
  142OSM    C5S15549   2.225   5.485   6.887  0.3902  0.7926 -0.1692
  142OSM    H5S15550   2.149   5.492   6.808 -1.3836  0.5823  1.4972
  142OSM    C6S15551   2.166   5.473   7.026  0.6762  0.1028  0.7692
  142OSM    H6S15552   2.138   5.366   7.042 -3.8227  0.7868 -1.5528
  142OSM    H6T15553   2.071   5.531   7.033  1.2175  0.9189  1.3637
  142OSM    C7S15554   2.238   5.527   7.156 -0.2917  0.5766  0.0404
  142OSM    H7S15555   2.256   5.636   7.143  2.2880  0.0560 -1.0430
  142OSM    H7T15556   2.335   5.477   7.176  0.2068  1.3737 -0.3550
  142OSM    C8S15557   2.148   5.505   7.276 -0.0818 -0.5263  0.5552
  142OSM    H8S15558   2.121   5.397   7.277 -0.2163 -0.5099 -0.6481
  142OSM    H8T15559   2.059   5.569   7.256  0.5648  0.0322 -0.5935
  142OSM    C9S15560   2.215   5.544   7.407 -0.5755  0.3042 -0.1691
  142OSM    H9S15561   2.247   5.649   7.393  4.2971 -1.1580 -0.7913
  142OSM    H9T15562   2.298   5.474   7.429 -0.2169  0.5872 -0.6084
  142OSM   C10S15563   2.120   5.537   7.527  0.1064  0.1982  0.7875
  142OSM   H10S15564   2.068   5.440   7.541  1.1767 -0.8370 -2.0187
  142OSM   H10T15565   2.042   5.612   7.499 -0.2859 -0.7697 -0.8014
  142OSM   C11S15566   2.181   5.573   7.655  0.6090 -0.2589 -0.3309
  142OSM   H11S15567   2.245   5.662   7.641  0.4729 -0.3130 -1.2970
  142OSM   H11T15568   2.247   5.490   7.687 -0.1882 -0.1564  1.6734
  142OSM   C12S15569   2.087   5.598   7.775 -0.4132  0.7171 -0.6146
  142OSM   H12S15570   2.046   5.498   7.801  0.4484  0.6321  0.4511
  142OSM   H12T15571   2.013   5.678   7.755 -1.3164  0.1113  0.2852
  142OSM   C13S15572   2.185   5.637   7.894 -0.0281  0.8225 -0.9167
  142OSM   H13S15573   2.229   5.729   7.853 -1.3302  1.5381 -0.7442
  142OSM   H13T15574   2.270   5.565   7.898  0.5297  1.5284  0.2207
  142OSM   C14S15575   2.119   5.658   8.025 -0.8365  0.0328  0.1221
  142OSM   H14S15576   2.055   5.572   8.054  0.6484 -1.4473 -0.9402
  142OSM   H14T15577   2.034   5.730   8.018 -0.2419  0.7380  0.0854
  142OSM   C15S15578   2.209   5.709   8.135  0.0465  0.7827  0.1583
  142OSM   H15S15579   2.257   5.803   8.099  1.4603  0.4992  1.2532
  142OSM   H15T15580   2.295   5.640   8.147 -0.3332  0.4554  0.9554
  142OSM   C16S15581   2.138   5.734   8.268 -0.1275  0.2433  0.2774
  142OSM   H16S15582   2.080   5.827   8.249 -1.2900 -0.6999 -0.8455
  142OSM   H16T15583   2.214   5.749   8.348  0.8284 -3.7326  0.2157
  142OSM   C17S15584   2.033   5.637   8.323  0.1545  0.1250 -0.1195
  142OSM   H17S15585   2.085   5.539   8.319 -0.0069  0.0208  0.2592
  142OSM   H17T15586   1.942   5.636   8.260 -1.3768 -1.0169  2.0547
  142OSM   C18S15587   2.002   5.674   8.464  0.1768  0.2831 -0.2233
  142OSM   H18S15588   1.962   5.777   8.463  0.7500  0.5179  0.6658
  142OSM   H18T15589   2.097   5.667   8.522 -0.1714  1.5000  0.4930
  142OSM   H18U15590   1.919   5.612   8.504 -1.0746  0.3895 -2.5484
  142OSM    C1F15591   2.533   5.861   6.757 -0.2793  0.1421 -0.2340
  142OSM     OF15592   2.442   5.919   6.701  0.8461  0.3033  0.3008
  142OSM    C2F15593   2.656   5.922   6.819 -0.6988 -0.4111  0.0774
  142OSM    H2F15594   2.711   5.969   6.734 -1.2905 -0.5664 -0.3863
  142OSM    H2G15595   2.726   5.851   6.869  0.1735 -0.0298 -0.5970
  142OSM    C3F15596   2.632   6.033   6.923  0.1417 -0.4240  0.4569
  142OSM    H3F15597   2.589   6.126   6.879 -3.9870 -1.3412  2.2631
  142OSM    H3G15598   2.733   6.077   6.938 -0.4762  1.0584  0.3790
  142OSM    C4F15599   2.533   5.990   7.027  0.1837 -0.1131 -0.0836
  142OSM    H4F15600   2.547   5.885   7.060  0.8152 -0.5087 -1.5599
  142OSM    H4G15601   2.428   6.001   6.992  0.6621  1.6477 -1.0148
  142OSM    C5F15602   2.555   6.080   7.151  0.1768 -0.5139 -0.5281
  142OSM    H5F15603   2.554   6.189   7.128 -1.1198 -0.6833 -1.3284
  142OSM    H5G15604   2.658   6.053   7.182  0.5759  1.5990  0.0599
  142OSM    C6F15605   2.452   6.072   7.267 -0.8068  0.5674  0.3122
  142OSM    H6F15606   2.425   5.965   7.270  0.2259  0.2562 -0.7839
  142OSM    H6G15607   2.369   6.134   7.227  0.1160  1.7463  0.1731
  142OSM    C7F15608   2.498   6.124   7.407 -0.1729  0.0868 -0.8225
  142OSM    H7F15609   2.525   6.232   7.409 -1.0519  0.3000  0.5042
  142OSM    H7G15610   2.600   6.086   7.428 -0.4970 -0.2290  0.2164
  142OSM    C8F15611   2.398   6.095   7.528 -0.5962  0.0133 -0.0795
  142OSM    H8F15612   2.296   6.118   7.491 -1.2548  0.2684  1.8247
  142OSM    H8G15613   2.422   6.167   7.609  0.6848 -0.0252 -0.4142
  142OSM    C9F15614   2.410   5.949   7.562 -0.3930 -0.0894  0.1699
  142OSM    H9F15615   2.353   5.886   7.492 -1.1112  1.2665 -0.5016
  142OSM   C10F15616   2.457   5.887   7.673 -0.1282  0.4377 -0.0290
  142OSM   H10F15617   2.466   5.777   7.682  1.7862  0.5702 -0.0097
  142OSM   C11F15618   2.506   5.968   7.790 -0.0342 -0.2108  0.0237
  142OSM   H11F15619   2.452   6.064   7.801  0.6171  0.3945 -1.8491
  142OSM   H11G15620   2.604   6.018   7.771  0.0741  0.1022  1.3838
  142OSM   C12F15621   2.523   5.898   7.932 -0.6277  0.1314  0.2111
  142OSM   H12F15622   2.605   5.825   7.915  0.6068  1.7375 -0.9960
  142OSM   H12G15623   2.425   5.851   7.954 -1.0079  0.4881 -0.7121
  142OSM   C13F15624   2.550   6.008   8.034  0.5953  0.1764  0.2785
  142OSM   H13F15625   2.464   6.077   8.026 -0.6204 -1.1205  1.7905
  142OSM   H13G15626   2.645   6.060   8.008 -0.5873  2.4333  0.3830
  142OSM   C14F15627   2.553   5.973   8.182  0.2161 -0.3142 -0.3395
  142OSM   H14F15628   2.453   5.938   8.215  0.0843  0.3342 -0.0628
  142OSM   H14G15629   2.581   6.071   8.224 -0.9741  0.3323 -1.0356
  142OSM   C15F15630   2.656   5.859   8.210 -0.2425 -0.2521 -0.2129
  142OSM   H15F15631   2.751   5.911   8.187 -2.5000  2.3203 -4.4501
  142OSM   H15G15632   2.639   5.780   8.134 -0.1745 -0.6973  0.2371
  142OSM   C16F15633   2.644   5.803   8.352  0.7446  0.4291 -0.1057
  142OSM   H16F15634   2.636   5.885   8.427 -2.7125 -0.8445  1.0123
  142OSM   H16G15635   2.730   5.739   8.381 -0.9851 -2.1583 -0.5445
  142OSM   C17F15636   2.519   5.718   8.370  0.5148  0.1731  0.0949
  142OSM   H17F15637   2.523   5.626   8.308  1.5976 -0.6113  1.3105
  142OSM   H17G15638   2.431   5.776   8.331  1.4775  0.7971 -1.1968
  142OSM   C18F15639   2.492   5.692   8.519  0.0866  0.3074  0.6745
  142OSM   H18F15640   2.578   5.638   8.564  0.4518  0.0214 -0.3685
  142OSM   H18G15641   2.403   5.626   8.527  0.5185 -0.6650 -2.1138
  142OSM   H18H15642   2.461   5.784   8.573 -2.5405 -1.0220  1.5437
  143OSM      N15643   3.345   0.647   6.194 -0.1394  0.1157 -0.5739
  143OSM    C1515644   3.229   0.736   6.149 -0.2997 -0.2169 -0.4585
  143OSM   H15A15645   3.247   0.781   6.052 -0.0083  1.7252  0.4677
  143OSM   H15B15646   3.210   0.821   6.213 -0.7151 -2.0308  1.8829
  143OSM   H15C15647   3.138   0.682   6.129 -0.7048  0.6132 -0.9034
  143OSM    C1415648   3.314   0.627   6.337 -0.3656  0.3842  0.1452
  143OSM   H14A15649   3.325   0.714   6.400  1.6489 -1.0569  1.8703
  143OSM   H14B15650   3.371   0.544   6.377 -3.3294 -1.0796  1.5365
  143OSM   H14C15651   3.207   0.614   6.344 -0.3488  0.6426  0.9223
  143OSM    C1315652   3.337   0.524   6.119 -0.0548 -0.3799  0.3711
  143OSM   H13A15653   3.240   0.479   6.136 -1.1838  0.7397 -2.7463
  143OSM   H13B15654   3.407   0.447   6.148 -1.4378 -1.2031  1.6098
  143OSM   H13C15655   3.354   0.547   6.015 -0.4894 -0.6738  0.2319
  143OSM    C1215656   3.475   0.727   6.189  0.5646 -0.3798 -0.7760
  143OSM   H12A15657   3.472   0.810   6.258  1.2602  1.8562 -3.3954
  143OSM   H12B15658   3.469   0.780   6.096 -0.4252  2.0463  0.6296
  143OSM    C1115659   3.610   0.654   6.198  0.4161  0.1299  0.4544
  143OSM   H11A15660   3.607   0.575   6.120 -0.7067  1.8173 -1.2631
  143OSM   H11B15661   3.617   0.598   6.294  1.6967  1.9620  1.4585
  143OSM      P15662   3.770   0.849   6.261  0.1231 -0.1770  0.2339
  143OSM    O1315663   3.890   0.911   6.197 -0.0444  0.1572 -0.7427
  143OSM    O1415664   3.657   0.938   6.308  0.1234 -0.1241  0.1190
  143OSM    O1115665   3.805   0.776   6.395  0.3049 -0.3156 -0.1370
  143OSM    O1215666   3.712   0.747   6.170 -0.2392 -0.1942  0.4832
  143OSM    C1S15667   3.922   0.702   6.417 -0.4288 -0.2110 -0.2811
  143OSM    H1S15668   4.009   0.743   6.362 -0.7997  1.4039  0.3207
  143OSM    H1T15669   3.905   0.599   6.378 -2.2032  0.5879 -1.7331
  143OSM     NF15670   4.081   0.616   6.592  0.5327 -0.2566 -0.5556
  143OSM    HNF15671   4.090   0.517   6.587 -0.2340 -0.3709  0.1698
  143OSM    C2S15672   3.949   0.673   6.568  0.0757 -0.5658 -0.5937
  143OSM    H2S15673   3.940   0.776   6.608  0.9169  0.0423 -1.9196
  143OSM    C3S15674   3.826   0.597   6.620  0.1109  0.8071  0.0225
  143OSM    H3S15675   3.831   0.502   6.562  1.0254  1.2890 -0.7071
  143OSM     O315676   3.696   0.659   6.585  0.6098  0.0104 -0.0710
  143OSM    HO315677   3.715   0.710   6.506  3.3784 -3.7850 -2.0616
  143OSM    C4S15678   3.825   0.578   6.769 -0.1631 -0.2332  0.4403
  143OSM    H4S15679   3.870   0.481   6.796 -0.0345 -0.1128  0.6550
  143OSM    C5S15680   3.771   0.655   6.871 -0.4302 -0.3871  0.2046
  143OSM    H5S15681   3.714   0.745   6.842  0.9858  0.2622 -0.6317
  143OSM    C6S15682   3.764   0.617   7.009  0.9582  0.7502 -0.2594
  143OSM    H6S15683   3.811   0.517   7.016  1.7634  1.2499  1.9376
  143OSM    H6T15684   3.654   0.607   7.024  0.8812 -0.1720 -1.3913
  143OSM    C7S15685   3.829   0.721   7.104 -0.0534 -0.1074 -0.8268
  143OSM    H7S15686   3.776   0.818   7.104 -2.2003 -1.2188 -3.0461
  143OSM    H7T15687   3.929   0.742   7.060 -0.6630 -0.3532 -2.3446
  143OSM    C8S15688   3.845   0.671   7.243 -0.0978 -0.1502  0.0154
  143OSM    H8S15689   3.920   0.733   7.296  1.4127 -3.1866  1.5518
  143OSM    H8T15690   3.887   0.568   7.249  1.3110  0.4438  0.3719
  143OSM    C9S15691   3.712   0.676   7.324  0.1237 -0.0842  0.7252
  143OSM    H9S15692   3.652   0.584   7.307 -1.2129  0.8157  0.4433
  143OSM    H9T15693   3.643   0.758   7.294 -0.3483 -0.7032  0.1011
  143OSM   C10S15694   3.742   0.707   7.473 -0.6268  0.8786  0.4050
  143OSM   H10S15695   3.803   0.798   7.492 -0.0942  0.9454 -1.5122
  143OSM   H10T15696   3.804   0.627   7.519 -0.4466  0.3699 -0.7101
  143OSM   C11S15697   3.609   0.722   7.552 -0.4582 -0.3681  0.1554
  143OSM   H11S15698   3.552   0.631   7.522 -1.7263  1.1281 -2.1547
  143OSM   H11T15699   3.551   0.800   7.497 -0.6872  0.7019  1.8796
  143OSM   C12S15700   3.624   0.777   7.692  0.5162  0.3321 -0.0504
  143OSM   H12S15701   3.526   0.819   7.723  1.0646  2.1551 -0.7208
  143OSM   H12T15702   3.684   0.871   7.686  0.7777  0.1237 -0.7742
  143OSM   C13S15703   3.687   0.675   7.791  0.7707  0.2365  0.1802
  143OSM   H13S15704   3.790   0.645   7.763  0.7143 -0.0471  0.2710
  143OSM   H13T15705   3.630   0.581   7.773  3.1697 -1.2696  0.1302
  143OSM   C14S15706   3.697   0.723   7.941 -0.3373  0.0268 -0.2410
  143OSM   H14S15707   3.734   0.827   7.943  1.7856 -0.7009 -0.8851
  143OSM   H14T15708   3.772   0.673   8.006 -1.6603  0.5785  1.7562
  143OSM   C15S15709   3.555   0.730   8.013 -0.1030 -0.3113  0.0626
  143OSM   H15S15710   3.487   0.649   7.981 -1.8644  1.2680 -0.3258
  143OSM   H15T15711   3.514   0.827   7.977  1.8146  0.4991 -0.0085
  143OSM   C16S15712   3.562   0.732   8.168  0.0658 -0.0901  0.2144
  143OSM   H16S15713   3.642   0.800   8.203  0.6517  1.2785 -3.6016
  143OSM   H16T15714   3.590   0.627   8.192 -0.4296 -0.0753  0.8673
  143OSM   C17S15715   3.430   0.765   8.230  0.0945  0.7056 -0.4916
  143OSM   H17S15716   3.348   0.742   8.159  0.8072  2.1295 -1.7928
  143OSM   H17T15717   3.447   0.872   8.252 -0.3538  1.1471 -2.2524
  143OSM   C18S15718   3.407   0.694   8.371 -0.5638  0.4991 -0.2918
  143OSM   H18S15719   3.500   0.697   8.431 -0.6224 -2.8443  0.0687
  143OSM   H18T15720   3.376   0.589   8.352 -1.6876  0.7293  0.1962
  143OSM   H18U15721   3.325   0.738   8.433 -0.5112 -1.4386  1.1809
  143OSM    C1F15722   4.194   0.684   6.576 -0.0539 -0.0673  1.0601
  143OSM     OF15723   4.197   0.798   6.529 -0.7899  0.3400 -0.2576
  143OSM    C2F15724   4.315   0.612   6.613 -0.2327  0.5009 -0.3708
  143OSM    H2F15725   4.366   0.578   6.520  1.5144  0.1592  0.6878
  143OSM    H2G15726   4.293   0.520   6.671  0.6193 -0.1013 -0.9924
  143OSM    C3F15727   4.415   0.696   6.693  0.4511  0.0585  0.4829
  143OSM    H3F15728   4.405   0.804   6.668  0.4717  0.7956  3.3996
  143OSM    H3G15729   4.517   0.659   6.672  0.9636  0.5065  2.0515
  143OSM    C4F15730   4.394   0.678   6.843 -0.4416  0.6486  0.0865
  143OSM    H4F15731   4.404   0.570   6.869 -1.1869  1.1007  2.3706
  143OSM    H4G15732   4.289   0.700   6.871 -0.3108 -2.1235  3.0198
  143OSM    C5F15733   4.501   0.753   6.916 -0.1082 -0.0216 -0.3358
  143OSM    H5F15734   4.516   0.857   6.879  0.1039  0.0084 -0.1742
  143OSM    H5G15735   4.597   0.698   6.902 -0.6615 -0.6151 -1.9032
  143OSM    C6F15736   4.475   0.765   7.066 -0.4074 -0.3743 -0.1390
  143OSM    H6F15737   4.442   0.668   7.108 -2.5580 -1.5557 -4.3081
  143OSM    H6G15738   4.393   0.838   7.087 -0.5784 -0.6305  0.0892
  143OSM    C7F15739   4.606   0.805   7.141  0.5313 -0.6838 -0.1124
  143OSM    H7F15740   4.643   0.903   7.106  2.7643 -1.3651  0.2754
  143OSM    H7G15741   4.686   0.731   7.119 -0.3122 -1.6114 -0.1358
  143OSM    C8F15742   4.583   0.793   7.296  0.0704 -0.2369 -0.1976
  143OSM    H8F15743   4.541   0.693   7.321  0.0913 -0.4749 -1.1094
  143OSM    H8G15744   4.508   0.867   7.332  1.0322  1.3018 -1.2822
  143OSM    C9F15745   4.703   0.817   7.379 -0.0524  0.5250  0.2719
  143OSM    H9F15746   4.791   0.805   7.315 -0.8309 -0.3705 -0.6477
  143OSM   C10F15747   4.707   0.850   7.518 -0.1045  0.1554 -0.4422
  143OSM   H10F15748   4.803   0.871   7.566 -0.8676 -0.4039  1.3839
  143OSM   C11F15749   4.592   0.862   7.605  0.8547 -0.3812 -0.3354
  143OSM   H11F15750   4.545   0.762   7.614  2.2087 -0.9544  0.5209
  143OSM   H11G15751   4.518   0.937   7.570  1.2629  1.2190  2.0827
  143OSM   C12F15752   4.634   0.926   7.740 -0.4470 -0.3658  0.4085
  143OSM   H12F15753   4.552   0.964   7.804 -1.4043  2.1485 -2.2018
  143OSM   H12G15754   4.703   1.012   7.727 -1.4046  0.1450 -1.5482
  143OSM   C13F15755   4.729   0.830   7.814  0.0455  0.2236  0.1772
  143OSM   H13F15756   4.831   0.827   7.770 -0.6150 -3.9352 -1.2890
  143OSM   H13G15757   4.695   0.725   7.802 -1.3769  0.8794 -1.9039
  143OSM   C14F15758   4.743   0.872   7.964  0.4938  0.3598  0.0419
  143OSM   H14F15759   4.644   0.875   8.016  0.8495  4.0524  0.6599
  143OSM   H14G15760   4.796   0.969   7.967  3.5913 -1.2926  0.2575
  143OSM   C15F15761   4.830   0.775   8.051 -0.1618 -0.4696  0.1335
  143OSM   H15F15762   4.938   0.769   8.025 -0.1520  1.5995 -0.3816
  143OSM   H15G15763   4.793   0.670   8.048 -1.8980  0.1091  0.7618
  143OSM   C16F15764   4.831   0.812   8.200  0.1285  0.4103 -0.1720
  143OSM   H16F15765   4.882   0.722   8.240  0.2109  0.9966  1.0532
  143OSM   H16G15766   4.725   0.821   8.234  0.0695  1.5712 -0.6303
  143OSM   C17F15767   4.917   0.937   8.234 -0.5739  1.0509 -0.4258
  143OSM   H17F15768   4.874   1.015   8.168 -4.9353 -0.6914  0.1605
  143OSM   H17G15769   5.026   0.929   8.214 -0.0521  2.5839  1.5518
  143OSM   C18F15770   4.908   0.976   8.387  0.1762 -0.2525 -0.5865
  143OSM   H18F15771   4.976   1.060   8.411 -0.9055  0.4547  0.0782
  143OSM   H18G15772   4.949   0.895   8.450  0.8153  0.5122 -0.0083
  143OSM   H18H15773   4.803   0.994   8.420  0.7576  0.1313  1.1154
  144OSM      N15774   2.298   0.800   6.255 -0.3476  0.1002 -0.0023
  144OSM    C1515775   2.156   0.812   6.268  0.2414  0.3183 -0.1256
  144OSM   H15A15776   2.124   0.868   6.355 -1.2192  1.5228 -1.3978
  144OSM   H15B15777   2.109   0.714   6.277 -0.3989  0.6401  0.0907
  144OSM   H15C15778   2.112   0.863   6.184  1.4154 -0.0697 -0.9870
  144OSM    C1415779   2.332   0.716   6.136  0.3836 -0.3789  0.4732
  144OSM   H14A15780   2.301   0.760   6.043 -1.8348 -2.1692  0.3080
  144OSM   H14B15781   2.290   0.616   6.141  1.9192 -1.0070  1.2690
  144OSM   H14C15782   2.438   0.694   6.145  0.2782 -0.5115  1.3818
  144OSM    C1315783   2.355   0.931   6.235 -0.4199  0.3850  0.9042
  144OSM   H13A15784   2.303   0.987   6.160 -0.9035 -2.3300 -0.8503
  144OSM   H13B15785   2.452   0.933   6.188  0.3466  2.5044  2.4617
  144OSM   H13C15786   2.350   0.995   6.323 -1.9425 -0.6561  1.5976
  144OSM    C1215787   2.363   0.742   6.382 -0.5783 -0.2617 -0.4105
  144OSM   H12A15788   2.322   0.643   6.386 -1.7702  0.2542  0.5330
  144OSM   H12B15789   2.311   0.780   6.469  2.0749 -0.4829  1.3618
  144OSM    C1115790   2.516   0.734   6.394  0.2991 -0.2659 -0.1959
  144OSM   H11A15791   2.546   0.663   6.474 -0.4684 -1.2169 -0.7565
  144OSM   H11B15792   2.562   0.828   6.431  1.7211 -0.8437 -0.4354
  144OSM      P15793   2.699   0.760   6.197 -0.2152 -0.1177  0.5428
  144OSM    O1315794   2.725   0.686   6.071  0.1637  0.0867  0.2228
  144OSM    O1415795   2.672   0.906   6.182 -0.2747 -0.1656  0.0422
  144OSM    O1115796   2.820   0.733   6.288  0.2418 -0.3175 -0.0212
  144OSM    O1215797   2.583   0.692   6.274  0.3748  0.3527 -0.0405
  144OSM    C1S15798   2.875   0.797   6.406  0.7682  0.2997 -0.2805
  144OSM    H1S15799   2.812   0.884   6.434  0.6143  0.4095 -0.9558
  144OSM    H1T15800   2.981   0.831   6.402  0.4228  1.2608 -2.2063
  144OSM     NF15801   2.912   0.748   6.664 -0.6206  0.0323  1.0436
  144OSM    HNF15802   2.995   0.708   6.702  0.4128  0.3718 -0.7989
  144OSM    C2S15803   2.871   0.696   6.532 -0.1183  1.1300  0.2020
  144OSM    H2S15804   2.764   0.673   6.552  0.6523 -2.6050  0.3970
  144OSM    C3S15805   2.949   0.565   6.496 -0.5539 -0.0555  0.0359
  144OSM    H3S15806   3.054   0.599   6.482 -0.4022 -0.9953 -1.1996
  144OSM     O315807   2.909   0.508   6.380 -0.0608  0.1705 -0.3671
  144OSM    HO315808   2.875   0.587   6.337 -0.8611  1.4308  2.4738
  144OSM    C4S15809   2.957   0.460   6.610  0.4322  0.1008 -1.0149
  144OSM    H4S15810   3.017   0.483   6.699  1.0928 -2.2513 -0.8052
  144OSM    C5S15811   2.879   0.351   6.617  0.0314  0.2779  0.2425
  144OSM    H5S15812   2.807   0.331   6.536  2.8675 -1.4250 -1.9574
  144OSM    C6S15813   2.869   0.258   6.732 -0.7781 -0.2018  0.2492
  144OSM    H6S15814   2.812   0.171   6.692  0.7739 -0.4459 -1.5119
  144OSM    H6T15815   2.806   0.308   6.809 -0.0748 -0.2967  0.8903
  144OSM    C7S15816   3.002   0.216   6.798 -0.6427  0.4159 -0.2904
  144OSM    H7S15817   3.054   0.308   6.829 -2.5424  2.4227 -2.8021
  144OSM    H7T15818   3.064   0.177   6.714 -0.7600 -0.3057 -0.0504
  144OSM    C8S15819   2.986   0.125   6.917 -0.1978  0.3357  0.0913
  144OSM    H8S15820   2.984   0.021   6.879  2.7951  0.4199 -0.3950
  144OSM    H8T15821   2.893   0.148   6.974 -2.5551  0.8318 -3.7137
  144OSM    C9S15822   3.116   0.131   7.001  0.4015  0.2719 -0.1032
  144OSM    H9S15823   3.106   0.219   7.067  0.8896 -0.8007  1.4331
  144OSM    H9T15824   3.195   0.162   6.929  1.1596 -1.3351  0.0125
  144OSM   C10S15825   3.150   0.002   7.073  0.6596  0.0773 -0.3308
  144OSM   H10S15826   3.257   0.028   7.089  1.0823 -0.0547 -2.7379
  144OSM   H10T15827   3.139  -0.081   6.999 -1.2257  0.8405 -0.9246
  144OSM   C11S15828   3.075  -0.012   7.196 -0.0551  0.3761 -0.2401
  144OSM   H11S15829   2.972  -0.050   7.182 -0.0412 -0.3389  1.4105
  144OSM   H11T15830   3.050   0.083   7.248  0.0329  1.8665 -2.8613
  144OSM   C12S15831   3.141  -0.108   7.294  0.2647  0.0943 -0.4841
  144OSM   H12S15832   3.075  -0.139   7.378  2.2763  1.9588  1.8800
  144OSM   H12T15833   3.243  -0.073   7.321  0.3095  0.3361 -0.9555
  144OSM   C13S15834   3.168  -0.249   7.233  0.1367  0.1687 -0.9341
  144OSM   H13S15835   3.257  -0.247   7.167  0.2692  0.4304 -0.7486
  144OSM   H13T15836   3.075  -0.281   7.181  0.6243 -0.2360 -1.5560
  144OSM   C14S15837   3.206  -0.349   7.341 -0.8469  0.1358  0.3313
  144OSM   H14S15838   3.223  -0.446   7.289 -0.1155  1.6223 -2.3035
  144OSM   H14T15839   3.123  -0.349   7.415  0.0962 -0.5570  1.3809
  144OSM   C15S15840   3.336  -0.309   7.415 -0.4021 -0.0024 -0.2067
  144OSM   H15S15841   3.314  -0.211   7.462 -1.3496 -0.1038 -0.4280
  144OSM   H15T15842   3.421  -0.295   7.345  1.9099 -0.2610  2.4601
  144OSM   C16S15843   3.385  -0.419   7.510 -0.5726  0.7231  0.9625
  144OSM   H16S15844   3.496  -0.421   7.507 -0.5354  2.6474  0.7561
  144OSM   H16T15845   3.355  -0.521   7.476 -0.8244  0.4276  2.0569
  144OSM   C17S15846   3.329  -0.408   7.650 -0.1767 -0.2212 -0.0928
  144OSM   H17S15847   3.220  -0.387   7.647 -0.6173 -2.2757  0.5287
  144OSM   H17T15848   3.370  -0.319   7.703 -0.6530 -0.1814  0.2133
  144OSM   C18S15849   3.365  -0.525   7.743  0.1631  0.3428  0.9014
  144OSM   H18S15850   3.330  -0.619   7.696 -0.6627  0.7446  0.7149
  144OSM   H18T15851   3.306  -0.530   7.837 -1.7230 -1.6559 -0.3405
  144OSM   H18U15852   3.475  -0.519   7.758  0.4541  2.5311 -1.7117
  144OSM    C1F15853   2.841   0.852   6.723 -0.1917 -0.2129  0.1145
  144OSM     OF15854   2.741   0.900   6.674 -0.1765 -0.0023  0.8651
  144OSM    C2F15855   2.910   0.917   6.848 -0.0647 -0.2187  0.0572
  144OSM    H2F15856   3.009   0.957   6.817  0.5926 -1.5989  0.3388
  144OSM    H2G15857   2.939   0.832   6.913  0.4034 -1.3619 -1.6117
  144OSM    C3F15858   2.813   1.020   6.905 -0.7653 -0.1365 -0.1900
  144OSM    H3F15859   2.710   0.983   6.922 -0.5902 -0.7296 -0.4229
  144OSM    H3G15860   2.820   1.107   6.835  1.4537  0.1634  0.3683
  144OSM    C4F15861   2.878   1.068   7.043  0.6358 -0.0859 -0.3780
  144OSM    H4F15862   2.989   1.071   7.035  0.6701  2.8871  0.6394
  144OSM    H4G15863   2.851   0.986   7.112  0.0559  1.1641  0.8898
  144OSM    C5F15864   2.823   1.201   7.097 -0.3154 -0.6374 -0.3072
  144OSM    H5F15865   2.715   1.178   7.109 -0.1844 -2.6769 -2.5081
  144OSM    H5G15866   2.837   1.289   7.031 -1.7166 -1.4945 -1.7870
  144OSM    C6F15867   2.883   1.234   7.230  0.0655  0.6041 -0.3216
  144OSM    H6F15868   2.985   1.275   7.219  0.2940 -0.0031 -0.4549
  144OSM    H6G15869   2.881   1.143   7.294  0.8591  0.2881 -0.7422
  144OSM    C7F15870   2.804   1.348   7.300  0.4219 -0.0349  0.4906
  144OSM    H7F15871   2.699   1.320   7.323  0.4376 -0.9044 -0.4259
  144OSM    H7G15872   2.801   1.435   7.230 -1.1354  0.2299  0.8725
  144OSM    C8F15873   2.876   1.393   7.431 -0.1009 -0.2488 -0.1738
  144OSM    H8F15874   2.974   1.430   7.394  0.2417 -1.3968 -0.4471
  144OSM    H8G15875   2.907   1.311   7.499  1.0218 -0.8417 -1.3930
  144OSM    C9F15876   2.809   1.516   7.493  0.5567  0.0263 -0.4341
  144OSM    H9F15877   2.774   1.592   7.422 -0.0556  0.6627  0.5461
  144OSM   C10F15878   2.781   1.532   7.618 -0.1117  0.1719  0.3394
  144OSM   H10F15879   2.733   1.626   7.646  0.2861 -0.3324  2.7859
  144OSM   C11F15880   2.817   1.439   7.736 -0.1488  0.2269  0.1556
  144OSM   H11F15881   2.912   1.384   7.716  0.0823 -0.4116  2.8388
  144OSM   H11G15882   2.742   1.358   7.750  0.5753 -0.8416 -1.8704
  144OSM   C12F15883   2.835   1.516   7.875  0.6876  0.3896  0.2679
  144OSM   H12F15884   2.891   1.610   7.854  1.4622 -0.5588 -2.1351
  144OSM   H12G15885   2.898   1.444   7.930 -0.5397 -1.7586 -1.0804
  144OSM   C13F15886   2.703   1.547   7.952 -0.3876 -0.3025 -0.3789
  144OSM   H13F15887   2.641   1.458   7.977 -1.3171 -0.1540 -2.1139
  144OSM   H13G15888   2.638   1.606   7.884 -0.7600  0.7795  0.8846
  144OSM   C14F15889   2.735   1.637   8.076 -0.3243 -0.4695 -0.0598
  144OSM   H14F15890   2.642   1.694   8.097 -0.6076 -0.8163 -0.3598
  144OSM   H14G15891   2.817   1.710   8.061  1.0298 -1.6613  1.4693
  144OSM   C15F15892   2.774   1.554   8.196  0.3374  0.2850 -0.2969
  144OSM   H15F15893   2.842   1.472   8.167 -0.7103 -0.7071  0.0368
  144OSM   H15G15894   2.680   1.500   8.222  0.6692 -0.4690 -0.6490
  144OSM   C16F15895   2.831   1.632   8.310  0.3396 -0.7109 -0.0586
  144OSM   H16F15896   2.938   1.654   8.295  0.5614 -0.7631  1.4409
  144OSM   H16G15897   2.825   1.573   8.403  2.5873  1.6696  1.6498
  144OSM   C17F15898   2.767   1.771   8.334  0.1663 -0.6158  0.2607
  144OSM   H17F15899   2.656   1.760   8.326 -0.2042  3.0738 -0.1270
  144OSM   H17G15900   2.780   1.843   8.251  0.3219 -0.1214  0.7174
  144OSM   C18F15901   2.798   1.840   8.462  0.4208 -0.0202  0.0530
  144OSM   H18F15902   2.753   1.941   8.473 -2.8033 -1.4336  0.3844
  144OSM   H18G15903   2.908   1.858   8.468  0.4464 -0.2219  0.1913
  144OSM   H18H15904   2.771   1.771   8.544  0.0506  0.8445  0.6588
  145SAPE     N15905   0.512   1.705  10.851  0.3855  0.0074  0.0995
  145SAPE   HN115906   0.486   1.804  10.835  0.4390  0.1714  0.9684
  145SAPE   HN215907   0.430   1.658  10.895 -0.6533  0.7178 -1.0362
  145SAPE   HN315908   0.595   1.704  10.914  1.2280  2.4577 -0.9117
  145SAPE   C1215909   0.551   1.631  10.724 -0.6725 -0.6482  0.9354
  145SAPE  H12A15910   0.483   1.661  10.642  0.1715 -3.3054 -0.8172
  145SAPE  H12B15911   0.550   1.522  10.744 -0.2893 -0.6955  0.7006
  145SAPE   C1115912   0.697   1.659  10.684 -0.0761 -0.1971  0.0759
  145SAPE  H11A15913   0.701   1.753  10.626 -2.5263  0.1538  0.3883
  145SAPE  H11B15914   0.717   1.588  10.602  2.0447  1.7029 -1.0791
  145SAPE     P15915   0.939   1.692  10.782 -0.2027  0.2286 -0.1030
  145SAPE   O1315916   0.941   1.835  10.754  0.3150  0.3546  0.4779
  145SAPE   O1415917   1.004   1.653  10.907 -0.3472  0.3198  0.3441
  145SAPE   O1215918   0.784   1.642  10.794  0.2526  0.0606  0.0520
  145SAPE   O1115919   1.000   1.607  10.658 -0.2945  0.4099  0.1005
  145SAPE    C115920   1.094   1.658  10.561  0.2660 -0.1933 -0.4037
  145SAPE    HA15921   1.101   1.769  10.563  0.5152 -0.2105 -0.3090
  145SAPE    HB15922   1.195   1.622  10.589  0.7282  2.5518  1.6679
  145SAPE    C215923   1.054   1.606  10.421 -0.7394  1.0031 -0.2167
  145SAPE    HS15924   1.143   1.599  10.354 -0.0319 -0.2925  0.8434
  145SAPE   O2115925   0.959   1.692  10.354 -0.2874 -0.3149 -0.3851
  145SAPE   C2115926   1.006   1.796  10.304  0.8813  0.0802  0.2467
  145SAPE   O2215927   1.126   1.830  10.292 -0.0418 -0.4942  0.8548
  145SAPE   C2215928   0.893   1.881  10.251 -0.7671 -0.0876  0.3802
  145SAPE   H2R15929   0.803   1.870  10.316  0.0661  1.8288  1.9011
  145SAPE   H2S15930   0.913   1.986  10.280 -1.0753  0.1343 -0.2169
  145SAPE    C315931   1.003   1.453  10.435  0.1213 -0.0380 -0.5948
  145SAPE    HX15932   0.915   1.465  10.502 -0.0970 -0.7421 -0.7433
  145SAPE    HY15933   1.081   1.394  10.489  1.6778  1.2811 -1.3579
  145SAPE   O3115934   0.968   1.399  10.308 -0.1160 -0.1861  0.1032
  145SAPE   C3115935   1.072   1.363  10.229 -0.5025 -0.2969 -0.2902
  145SAPE   O3215936   1.191   1.377  10.250  0.0259  0.7140  0.3802
  145SAPE   C3215937   1.012   1.308  10.099  0.0570  0.6401 -0.5450
  145SAPE   H2X15938   0.943   1.389  10.068 -0.3848 -0.0456 -1.3732
  145SAPE   H2Y15939   0.952   1.218  10.123 -0.7203  1.4475  0.6503
  145SAPE   C2315940   0.859   1.860  10.105  0.8966 -0.7144  0.5566
  145SAPE   H3R15941   0.893   1.763  10.063 -0.9663 -0.3716 -1.8449
  145SAPE   H3S15942   0.923   1.935  10.054 -3.0514  0.5143 -2.8403
  145SAPE   C2415943   0.707   1.884  10.066 -0.0559  0.1740 -0.3283
  145SAPE   H4R15944   0.674   1.990  10.076  1.5316  0.9208 -2.5461
  145SAPE   H4S15945   0.653   1.825  10.143 -1.1517  1.1828 -0.3087
  145SAPE   C2515946   0.681   1.827   9.925  0.0325 -0.1095 -0.1664
  145SAPE   H5R15947   0.685   1.717   9.917 -1.1978 -0.0535 -1.7404
  145SAPE   C2615948   0.689   1.902   9.814  0.4191  0.2006 -0.3063
  145SAPE   H6R15949   0.672   1.857   9.715 -1.7822  1.9082 -0.7410
  145SAPE   C2715950   0.720   2.049   9.815  0.5000  0.3977  0.1201
  145SAPE   H7R15951   0.797   2.070   9.738 -1.4748  0.5155 -1.8878
  145SAPE   H7S15952   0.759   2.091   9.910 -3.1768  3.4181  0.4439
  145SAPE   C2815953   0.595   2.128   9.784 -0.5197 -0.5145  1.5839
  145SAPE   H8R15954   0.525   2.129   9.868 -2.5562  2.0683 -0.0506
  145SAPE   C2915955   0.565   2.185   9.666  0.4247 -0.0741 -0.4618
  145SAPE   H9R15956   0.473   2.243   9.648 -2.1474 -4.1606 -1.1562
  145SAPE  C21015957   0.645   2.175   9.537  0.5049  0.0506  0.5427
  145SAPE  H10R15958   0.621   2.082   9.483 -0.6637  0.0135  1.1151
  145SAPE  H10S15959   0.755   2.166   9.550  0.9204  2.8167 -0.7356
  145SAPE  C21115960   0.612   2.287   9.436  0.5424  0.8955 -0.8130
  145SAPE  H11R15961   0.614   2.386   9.484  0.9612  0.8365 -0.7025
  145SAPE  C21215962   0.595   2.278   9.298  0.0621  0.4568 -0.8178
  145SAPE  H12R15963   0.567   2.367   9.239 -4.2346 -0.3005 -0.1384
  145SAPE  C21315964   0.605   2.148   9.222  0.6980  0.4192 -0.1849
  145SAPE  H13R15965   0.662   2.072   9.279  1.4130 -0.5677 -2.1675
  145SAPE  H13S15966   0.663   2.167   9.130  0.9779  1.6993  0.2377
  145SAPE  C21415967   0.472   2.079   9.191 -0.4978 -0.1910  0.9340
  145SAPE  H14R15968   0.466   1.977   9.232  1.3617 -0.3233  0.9353
  145SAPE  C21515969   0.365   2.123   9.125 -0.7146  0.2827  0.0667
  145SAPE  H15R15970   0.282   2.052   9.113  1.1300 -1.6272 -1.8285
  145SAPE  C21615971   0.351   2.259   9.068  0.3099  0.1444 -0.5540
  145SAPE  H16R15972   0.446   2.298   9.026  1.1157 -1.5675 -0.3841
  145SAPE  H16S15973   0.323   2.333   9.146 -1.3532 -0.2937 -0.7103
  145SAPE  C21715974   0.237   2.280   8.965  1.1371 -0.6001  0.1797
  145SAPE  H17R15975   0.236   2.384   8.925 -2.3008 -0.5425  0.2810
  145SAPE  H17S15976   0.140   2.264   9.016 -0.5726  0.4213 -2.6518
  145SAPE  C21815977   0.242   2.186   8.843  0.4502  0.1633 -1.0250
  145SAPE  H18R15978   0.255   2.080   8.872  0.5825  0.2608 -0.7162
  145SAPE  H18S15979   0.340   2.208   8.795  2.0488  0.7567  2.2841
  145SAPE  C21915980   0.122   2.197   8.737  0.3099 -0.7691  0.4203
  145SAPE  H19R15981   0.030   2.159   8.788 -0.8345  1.0478 -0.2433
  145SAPE  H19S15982   0.127   2.130   8.649  1.6324 -2.2353  1.5715
  145SAPE  C22015983   0.100   2.340   8.699  0.0980 -0.6122 -0.0502
  145SAPE  H20R15984   0.043   2.389   8.781  2.2789  2.3168 -0.2099
  145SAPE  H20S15985   0.034   2.336   8.609  1.0766 -0.5928 -0.7709
  145SAPE  H20T15986   0.194   2.392   8.672  0.5161 -0.5443  1.4981
  145SAPE   C3315987   1.123   1.281   9.996 -0.2409 -0.1355 -0.3372
  145SAPE   H3X15988   1.155   1.177  10.017 -1.1285 -0.1266  1.1324
  145SAPE   H3Y15989   1.211   1.348   9.984  1.0821 -2.0313 -1.4790
  145SAPE   C3415990   1.064   1.282   9.859  0.3406 -0.3865 -0.2784
  145SAPE   H4X15991   1.015   1.379   9.836  1.9163  0.4450 -0.2394
  145SAPE   H4Y15992   0.991   1.198   9.859  1.0272 -1.0122  1.5091
  145SAPE   C3515993   1.164   1.260   9.748 -0.9930 -0.0143  0.2362
  145SAPE   H5X15994   1.224   1.169   9.767 -1.2828 -0.0311  1.0844
  145SAPE   H5Y15995   1.230   1.349   9.746 -0.6143 -0.3001 -0.1118
  145SAPE   C3615996   1.108   1.244   9.603  0.3939  0.2028  0.2026
  145SAPE   H6X15997   1.053   1.336   9.575  1.4994  0.7100 -0.3655
  145SAPE   H6Y15998   1.042   1.155   9.596  0.5347  0.1397 -0.3772
  145SAPE   C3715999   1.215   1.208   9.493  0.3067  1.1555  0.6442
  145SAPE   H7X16000   1.248   1.104   9.516 -1.9443 -0.0062 -1.2521
  145SAPE   H7Y16001   1.294   1.286   9.503  1.0640  0.5806 -0.7624
  145SAPE   C3816002   1.163   1.200   9.348  0.0414 -0.2125 -0.4987
  145SAPE   H8X16003   1.119   1.298   9.320  3.2812  1.7000  0.8409
  145SAPE   H8Y16004   1.084   1.123   9.339 -0.5698 -0.0083  2.4567
  145SAPE   C3916005   1.281   1.176   9.253  0.7882  0.0779  0.3656
  145SAPE   H9X16006   1.322   1.074   9.272  2.8884  0.2063 -3.2125
  145SAPE   H9Y16007   1.369   1.242   9.258  1.1127 -0.2142 -1.2849
  145SAPE  C31016008   1.230   1.182   9.107  0.0223 -0.1446 -0.2476
  145SAPE  H10X16009   1.197   1.284   9.078  0.1375 -0.1196 -0.2926
  145SAPE  H10Y16010   1.144   1.115   9.089  0.4770 -0.4086 -1.4964
  145SAPE  C31116011   1.326   1.139   9.001 -0.4246 -0.1433  0.1500
  145SAPE  H11X16012   1.336   1.029   9.011 -0.3527 -0.2157 -0.6827
  145SAPE  H11Y16013   1.423   1.189   9.020 -0.0500 -0.9944  0.4837
  145SAPE  C31216014   1.282   1.160   8.856 -0.1236 -0.2753 -0.7134
  145SAPE  H12X16015   1.235   1.260   8.839 -0.2909 -0.2339 -0.0024
  145SAPE  H12Y16016   1.205   1.084   8.833  0.4242 -0.4860 -1.9245
  145SAPE  C31316017   1.383   1.146   8.743 -0.4360  0.0349 -0.2599
  145SAPE  H13X16018   1.447   1.055   8.752 -2.1282 -0.9526  2.4082
  145SAPE  H13Y16019   1.463   1.222   8.752 -0.4755 -0.2112  2.3741
  145SAPE  C31416020   1.331   1.156   8.601 -0.3545  1.2297 -0.0095
  145SAPE  H14X16021   1.295   1.259   8.577  0.0680  1.3046 -0.3154
  145SAPE  H14Y16022   1.239   1.095   8.610 -0.3263  1.2545  0.4725
  145SAPE  C31516023   1.444   1.117   8.509  0.0568  0.0215  0.0454
  145SAPE  H15X16024   1.483   1.019   8.543 -0.5839 -0.9713 -1.9492
  145SAPE  H15Y16025   1.525   1.193   8.520  0.4903 -0.2334 -1.2144
  145SAPE  C31616026   1.405   1.118   8.358 -0.1752 -0.0327 -0.2135
  145SAPE  H16X16027   1.383   1.222   8.326 -2.7518  0.5174  3.0819
  145SAPE  H16Y16028   1.310   1.063   8.343 -0.6850  0.0109  2.6475
  145SAPE  C31716029   1.519   1.069   8.264 -0.0201  0.6678 -0.1326
  145SAPE  H17X16030   1.585   1.002   8.323 -0.4436  1.1600  0.9136
  145SAPE  H17Y16031   1.583   1.155   8.236  1.0978 -0.6174 -1.5965
  145SAPE  C31816032   1.461   0.989   8.148 -0.6343  0.2978 -0.5140
  145SAPE  H18X16033   1.388   0.916   8.188  3.1514 -2.4767  1.5724
  145SAPE  H18Y16034   1.551   0.942   8.103 -0.4866 -0.5052  0.6204
  145SAPE  H18Z16035   1.424   1.069   8.080  2.2808  1.1494 -1.1584
  146SAPE     N16036   0.707   3.076  10.495 -0.1195  0.1822  0.4174
  146SAPE   HN116037   0.775   3.066  10.417  0.0778 -0.2859  0.6494
  146SAPE   HN216038   0.612   3.093  10.455 -0.7342 -0.2617  1.6564
  146SAPE   HN316039   0.733   3.158  10.553  0.1519  0.4253 -0.0446
  146SAPE   C1216040   0.709   2.958  10.583 -0.2298 -0.1581 -0.3552
  146SAPE  H12A16041   0.675   3.002  10.679  1.3743  0.1449  0.1022
  146SAPE  H12B16042   0.813   2.919  10.583 -0.6066 -1.1745  0.4279
  146SAPE   C1116043   0.620   2.847  10.546 -0.7075 -0.1814  0.5677
  146SAPE  H11A16044   0.621   2.752  10.604  1.0794 -1.1900 -1.0490
  146SAPE  H11B16045   0.641   2.804  10.446 -0.5665 -0.0100  0.5237
  146SAPE     P16046   0.368   2.827  10.624  0.5593  0.1018  0.0408
  146SAPE   O1316047   0.390   2.680  10.609  0.4287  0.1708 -0.4629
  146SAPE   O1416048   0.364   2.873  10.764 -0.3849  0.1746 -0.2625
  146SAPE   O1216049   0.488   2.897  10.543 -0.4940 -0.0313  0.7396
  146SAPE   O1116050   0.237   2.860  10.551  0.3550 -0.0359  0.4535
  146SAPE    C116051   0.248   2.899  10.408 -0.1878  1.3078 -0.6964
  146SAPE    HA16052   0.323   2.980  10.398  3.6176 -1.8665  0.7802
  146SAPE    HB16053   0.285   2.811  10.352  0.5511  0.5314  0.9720
  146SAPE    C216054   0.112   2.930  10.353 -0.4221 -0.3786 -0.5606
  146SAPE    HS16055   0.073   3.023  10.400  0.5482  0.2189 -0.9104
  146SAPE   O2116056   0.031   2.818  10.388  0.2835 -0.5162  0.6197
  146SAPE   C2116057  -0.097   2.832  10.376 -0.1536  0.0635  0.3476
  146SAPE   O2216058  -0.165   2.925  10.333  0.2155  0.2015 -0.2631
  146SAPE   C2216059  -0.159   2.703  10.433  0.6279 -0.5992 -0.0492
  146SAPE   H2R16060  -0.092   2.617  10.411  0.3935 -1.0800  1.1138
  146SAPE   H2S16061  -0.166   2.715  10.543  2.6274  0.1659  0.0125
  146SAPE    C316062   0.110   2.950  10.194 -0.1089 -0.3966 -0.4598
  146SAPE    HX16063   0.004   2.944  10.162 -1.1152 -0.2495  2.6380
  146SAPE    HY16064   0.154   2.865  10.138  0.2659  1.4803 -3.0653
  146SAPE   O3116065   0.153   3.075  10.143 -0.6079 -0.2801 -0.2382
  146SAPE   C3116066   0.274   3.080  10.094 -0.3310  0.0570 -0.1932
  146SAPE   O3216067   0.357   2.991  10.101  0.4490 -0.0328 -0.0147
  146SAPE   C3216068   0.296   3.216  10.037  0.0296  0.1079 -0.7166
  146SAPE   H2X16069   0.401   3.241  10.062 -0.1026 -0.3477  0.3019
  146SAPE   H2Y16070   0.225   3.291  10.079  0.1323 -0.5244  0.5747
  146SAPE   C2316071  -0.300   2.678  10.372 -0.9720  0.4760  0.0578
  146SAPE   H3R16072  -0.294   2.664  10.262 -0.8493 -4.4601  0.5619
  146SAPE   H3S16073  -0.364   2.767  10.386  0.3469  1.3706  0.4690
  146SAPE   C2416074  -0.380   2.553  10.426  0.2485 -0.5058  1.3494
  146SAPE   H4R16075  -0.473   2.545  10.366  0.1023 -1.3394  1.6808
  146SAPE   H4S16076  -0.412   2.562  10.532  1.2880 -1.9017  1.7968
  146SAPE   C2516077  -0.303   2.427  10.425  0.6129 -0.0415  0.1796
  146SAPE   H5R16078  -0.194   2.437  10.438  0.6248 -0.5030  0.4907
  146SAPE   C2616079  -0.354   2.301  10.401 -0.2439  0.3878  0.1353
  146SAPE   H6R16080  -0.286   2.215  10.395 -0.5567 -0.1584  3.4776
  146SAPE   C2716081  -0.498   2.247  10.381 -0.1856  0.0035  0.4681
  146SAPE   H7R16082  -0.563   2.313  10.442  1.2044 -0.3969  2.4339
  146SAPE   H7S16083  -0.508   2.149  10.431 -3.5300 -0.6010 -1.2639
  146SAPE   C2816084  -0.544   2.235  10.237 -0.4946 -0.3515 -0.6916
  146SAPE   H8R16085  -0.610   2.317  10.205  1.2665  0.3220 -2.7070
  146SAPE   C2916086  -0.503   2.143  10.152  0.6173  0.0174 -0.5125
  146SAPE   H9R16087  -0.554   2.149  10.055 -0.6774  0.6229  0.1920
  146SAPE  C21016088  -0.418   2.022  10.181 -0.1415  0.4962 -0.2324
  146SAPE  H10R16089  -0.466   1.940  10.123 -0.0477  0.7414 -0.6567
  146SAPE  H10S16090  -0.430   1.999  10.289  1.0646  1.5522  0.1375
  146SAPE  C21116091  -0.275   2.042  10.150  0.2257 -0.0126 -0.1177
  146SAPE  H11R16092  -0.215   2.065  10.240 -0.1168 -1.1970  0.4181
  146SAPE  C21216093  -0.205   2.013  10.035 -0.3570  0.4394 -0.6224
  146SAPE  H12R16094  -0.102   2.052  10.036 -1.5872  3.8925  0.0254
  146SAPE  C21316095  -0.251   1.946   9.910 -0.3615  0.3446  0.3038
  146SAPE  H13R16096  -0.361   1.951   9.902 -0.4323 -3.5164 -2.4590
  146SAPE  H13S16097  -0.231   1.837   9.909  1.7542  0.7172 -0.2276
  146SAPE  C21416098  -0.195   1.988   9.773 -0.6778 -0.8459  0.9406
  146SAPE  H14R16099  -0.104   1.940   9.735 -1.2610  0.0389 -1.7164
  146SAPE  C21516100  -0.246   2.091   9.703 -0.1047  0.5240  0.5534
  146SAPE  H15R16101  -0.188   2.121   9.614  1.9185 -0.4923  1.4997
  146SAPE  C21616102  -0.369   2.176   9.738  0.1796 -0.4145  0.2410
  146SAPE  H16R16103  -0.444   2.104   9.777 -1.1306  1.1298  0.6206
  146SAPE  H16S16104  -0.419   2.203   9.642  1.4590 -0.1516 -0.3582
  146SAPE  C21716105  -0.338   2.292   9.829 -0.4957 -0.6815 -0.0261
  146SAPE  H17R16106  -0.262   2.359   9.783  0.9584 -2.3369 -0.0915
  146SAPE  H17S16107  -0.296   2.255   9.924 -1.7838 -0.1331  0.7698
  146SAPE  C21816108  -0.473   2.370   9.861 -0.1439 -0.1207  0.2385
  146SAPE  H18R16109  -0.557   2.297   9.866 -0.4142  0.1802  0.0937
  146SAPE  H18S16110  -0.510   2.439   9.782  1.3971 -1.6618 -1.9053
  146SAPE  C21916111  -0.466   2.447   9.993 -0.2649 -0.2752 -0.0448
  146SAPE  H19R16112  -0.426   2.381  10.073 -0.3800 -1.0547 -0.6207
  146SAPE  H19S16113  -0.570   2.468  10.024 -0.2024 -1.2192  0.8477
  146SAPE  C22016114  -0.391   2.578   9.999 -0.3656 -0.6189 -0.0463
  146SAPE  H20R16115  -0.409   2.625  10.098  1.3341  1.8074 -0.8327
  146SAPE  H20S16116  -0.424   2.650   9.921 -2.1431 -1.8898 -0.4755
  146SAPE  H20T16117  -0.281   2.563   9.988 -0.1315  0.3990  0.8685
  146SAPE   C3316118   0.279   3.222   9.882  0.0214 -0.1024  0.6751
  146SAPE   H3X16119   0.234   3.322   9.861  0.2109  0.1472  1.4557
  146SAPE   H3Y16120   0.217   3.142   9.837 -1.4398 -1.0955  4.3078
  146SAPE   C3416121   0.412   3.220   9.810  0.2253  0.2610  0.0035
  146SAPE   H4X16122   0.467   3.130   9.847  0.7434  0.3199 -0.6298
  146SAPE   H4Y16123   0.469   3.311   9.838  1.5695 -0.2365 -1.1107
  146SAPE   C3516124   0.398   3.225   9.656  0.3483 -0.5291  0.7349
  146SAPE   H5X16125   0.493   3.259   9.611  1.1509  0.3246  2.9742
  146SAPE   H5Y16126   0.321   3.305   9.647 -1.0522 -1.7374  1.5898
  146SAPE   C3616127   0.363   3.088   9.598  0.0876  0.0084  0.3820
  146SAPE   H6X16128   0.291   3.028   9.659  1.0483 -1.1098  0.4242
  146SAPE   H6Y16129   0.456   3.027   9.603  0.4412  0.6439  2.1127
  146SAPE   C3716130   0.315   3.096   9.453  0.2861 -0.2328 -0.3566
  146SAPE   H7X16131   0.246   3.182   9.440 -1.2032 -1.2335  0.7611
  146SAPE   H7Y16132   0.253   3.009   9.422  0.9892 -0.3493 -1.4604
  146SAPE   C3816133   0.436   3.128   9.358 -0.0830 -0.1857  0.5044
  146SAPE   H8X16134   0.521   3.060   9.379  1.5373  2.1575  1.6833
  146SAPE   H8Y16135   0.468   3.230   9.389 -0.2407  0.6118 -1.7956
  146SAPE   C3916136   0.396   3.128   9.210 -0.3241  0.2257 -1.2121
  146SAPE   H9X16137   0.324   3.210   9.192 -0.2634 -0.0863 -2.9720
  146SAPE   H9Y16138   0.348   3.028   9.197  2.4952 -1.5073  0.9807
  146SAPE  C31016139   0.506   3.151   9.111  0.3358  0.5123  0.2629
  146SAPE  H10X16140   0.592   3.081   9.107 -0.0950  0.0264 -0.5972
  146SAPE  H10Y16141   0.554   3.249   9.133  2.4998 -0.1093 -1.4474
  146SAPE  C31116142   0.441   3.170   8.972  0.2546  0.0108  0.6586
  146SAPE  H11X16143   0.341   3.120   8.970  0.2946 -0.0574  0.3533
  146SAPE  H11Y16144   0.503   3.137   8.887  0.4405  0.3022  0.6838
  146SAPE  C31216145   0.423   3.317   8.944  0.1385 -0.1179 -0.7761
  146SAPE  H12X16146   0.522   3.366   8.953 -0.3621  1.1736 -2.1210
  146SAPE  H12Y16147   0.344   3.362   9.008 -1.1865 -0.9705 -1.7762
  146SAPE  C31316148   0.364   3.351   8.808 -0.2587 -0.0317 -0.3265
  146SAPE  H13X16149   0.339   3.459   8.807 -0.0145  0.0218 -1.8763
  146SAPE  H13Y16150   0.279   3.280   8.802  1.4023 -1.9215 -2.5175
  146SAPE  C31416151   0.455   3.319   8.684  1.0024 -0.3278 -0.7691
  146SAPE  H14X16152   0.474   3.209   8.685  1.5709 -0.2500 -2.3914
  146SAPE  H14Y16153   0.556   3.364   8.675  1.4987 -1.6771 -2.3192
  146SAPE  C31516154   0.374   3.347   8.557  0.5991  0.6848 -0.2718
  146SAPE  H15X16155   0.319   3.442   8.571  2.6072  1.7352  0.6092
  146SAPE  H15Y16156   0.300   3.265   8.548  2.4259 -0.7748 -2.8916
  146SAPE  C31616157   0.451   3.367   8.423  0.1315 -0.3984  0.1883
  146SAPE  H16X16158   0.513   3.279   8.397 -3.4392 -2.8526 -0.2477
  146SAPE  H16Y16159   0.528   3.447   8.429 -0.4903  0.5382 -3.0591
  146SAPE  C31716160   0.363   3.388   8.291 -0.6329  0.1067 -0.2829
  146SAPE  H17X16161   0.312   3.289   8.283  1.0157 -0.7503 -0.4190
  146SAPE  H17Y16162   0.426   3.405   8.202  1.0239  0.9718  1.0308
  146SAPE  C31816163   0.260   3.500   8.303 -0.2949 -0.0412  0.2304
  146SAPE  H18X16164   0.304   3.592   8.348 -2.8469  1.7894 -0.8646
  146SAPE  H18Y16165   0.168   3.473   8.359 -1.6935  0.5081 -1.7228
  146SAPE  H18Z16166   0.225   3.513   8.198  3.3569 -1.9976 -1.3257
  147SAPE     N16167   1.616   5.646  11.341  0.4397 -0.1715 -0.5831
  147SAPE   HN116168   1.569   5.580  11.276  0.7407  0.5487 -1.5371
  147SAPE   HN216169   1.700   5.599  11.380  1.5441  3.7716  2.1259
  147SAPE   HN316170   1.552   5.659  11.422  1.7021  0.1740  0.3759
  147SAPE   C1216171   1.666   5.760  11.252  0.5806  0.7281 -0.1976
  147SAPE  H12A16172   1.768   5.730  11.218 -0.6098 -1.2796 -2.0769
  147SAPE  H12B16173   1.655   5.847  11.320 -0.8077  0.2945  0.1497
  147SAPE   C1116174   1.566   5.758  11.130 -0.0865  0.2569  0.0429
  147SAPE  H11A16175   1.602   5.828  11.052  3.0160 -1.2112  0.0973
  147SAPE  H11B16176   1.471   5.794  11.174 -0.4789  0.5769 -1.0474
  147SAPE     P16177   1.449   5.599  10.956 -0.2787 -0.1655 -0.0386
  147SAPE   O1316178   1.447   5.453  10.920 -0.1646 -0.4560 -0.0451
  147SAPE   O1416179   1.321   5.664  10.999 -0.0959 -0.0069  0.2186
  147SAPE   O1216180   1.549   5.623  11.078  0.2520 -0.0702 -0.4895
  147SAPE   O1116181   1.509   5.689  10.845 -0.0945  0.3872  0.0114
  147SAPE    C116182   1.643   5.697  10.796 -0.2645  0.3440  0.3752
  147SAPE    HA16183   1.682   5.801  10.801 -1.3261  0.7758 -0.3037
  147SAPE    HB16184   1.714   5.644  10.864  0.9836  0.5920 -0.7194
  147SAPE    C216185   1.659   5.634  10.659 -0.1561  0.1001  0.3435
  147SAPE    HS16186   1.764   5.638  10.622 -0.8569  0.7732 -1.6569
  147SAPE   O2116187   1.566   5.707  10.568  0.3914 -0.0352 -0.1905
  147SAPE   C2116188   1.599   5.823  10.533 -0.0555 -0.5102  0.1214
  147SAPE   O2216189   1.696   5.885  10.563 -0.7188 -0.1349 -0.0228
  147SAPE   C2216190   1.485   5.882  10.448 -0.0741  0.3774 -0.4245
  147SAPE   H2R16191   1.397   5.879  10.516  0.8217 -2.3704  0.6734
  147SAPE   H2S16192   1.509   5.985  10.416  1.3942 -0.1826 -1.1450
  147SAPE    C316193   1.623   5.487  10.655  0.0583  1.0347 -0.3434
  147SAPE    HX16194   1.515   5.474  10.680 -0.6505  2.4263 -2.6223
  147SAPE    HY16195   1.678   5.431  10.734 -0.5136 -0.6187 -1.0799
  147SAPE   O3116196   1.658   5.442  10.526 -0.4157 -0.3614 -0.2806
  147SAPE   C3116197   1.552   5.429  10.444 -0.0520  0.8933 -0.4182
  147SAPE   O3216198   1.444   5.484  10.463 -0.0694  0.6173 -0.0004
  147SAPE   C3216199   1.595   5.353  10.318  0.0710 -0.0552 -0.7055
  147SAPE   H2X16200   1.648   5.260  10.347 -1.1024 -0.7282 -0.6827
  147SAPE   H2Y16201   1.660   5.424  10.262  0.9389  0.3865  0.8226
  147SAPE   C2316202   1.450   5.810  10.320 -1.0235  0.1876 -0.2068
  147SAPE   H3R16203   1.351   5.855  10.299 -1.0848  0.0685 -0.1745
  147SAPE   H3S16204   1.427   5.702  10.331 -1.9387  0.3130 -0.8610
  147SAPE   C2416205   1.551   5.841  10.204  0.3016 -0.3968  0.2381
  147SAPE   H4R16206   1.654   5.803  10.220  2.4301  4.7365 -0.3851
  147SAPE   H4S16207   1.550   5.947  10.173 -2.6190  0.1864  2.1064
  147SAPE   C2516208   1.501   5.771  10.081  0.5181 -0.1514  0.4112
  147SAPE   H5R16209   1.493   5.663  10.097  1.9900 -0.0513  1.8881
  147SAPE   C2616210   1.468   5.828   9.959  0.2115 -0.5386 -0.0817
  147SAPE   H6R16211   1.449   5.751   9.882  3.0461 -1.5977  0.2497
  147SAPE   C2716212   1.468   5.975   9.916 -0.1680 -0.3532  0.3528
  147SAPE   H7R16213   1.453   6.045  10.001 -0.8394  0.7304 -0.6554
  147SAPE   H7S16214   1.388   5.993   9.842 -1.0485 -0.7388  1.1970
  147SAPE   C2816215   1.594   6.025   9.850  0.0923 -0.2910  0.3056
  147SAPE   H8R16216   1.658   6.083   9.918  1.8881 -2.7485  0.7684
  147SAPE   C2916217   1.645   6.015   9.732  0.6743  0.1094  0.3041
  147SAPE   H9R16218   1.739   6.056   9.692  0.9238  0.4783  1.2533
  147SAPE  C21016219   1.575   5.930   9.629 -0.5570  0.0882 -0.2360
  147SAPE  H10R16220   1.475   5.898   9.665 -1.2475  1.2138 -1.1400
  147SAPE  H10S16221   1.631   5.834   9.614  0.5021  1.1420 -3.3891
  147SAPE  C21116222   1.558   5.989   9.494  0.1378  0.1540  0.5282
  147SAPE  H11R16223   1.459   6.034   9.482 -0.9473 -2.6099 -1.2952
  147SAPE  C21216224   1.661   6.004   9.403  0.1932 -0.0342  0.0732
  147SAPE  H12R16225   1.637   6.057   9.310  2.9901  2.4079  0.6535
  147SAPE  C21316226   1.800   5.956   9.422 -0.1041 -0.3423 -0.0066
  147SAPE  H13R16227   1.808   5.845   9.426 -1.1826 -0.3783  1.6081
  147SAPE  H13S16228   1.832   5.978   9.526 -1.6038 -3.8386  1.2689
  147SAPE  C21416229   1.889   6.020   9.315  0.6769 -0.6433 -0.1404
  147SAPE  H14R16230   1.940   6.113   9.346  0.4802 -0.7174  0.4009
  147SAPE  C21516231   1.903   5.988   9.180 -1.3941  0.1156  0.3365
  147SAPE  H15R16232   1.969   6.049   9.117 -1.0368 -2.3801 -1.7982
  147SAPE  C21616233   1.834   5.872   9.110  0.2981 -0.2698 -0.0885
  147SAPE  H16R16234   1.754   5.905   9.040 -0.1553 -2.7309 -0.7739
  147SAPE  H16S16235   1.784   5.808   9.186 -1.8155  1.6883  0.2447
  147SAPE  C21716236   1.943   5.775   9.051  0.7312 -0.2740 -0.3298
  147SAPE  H17R16237   1.898   5.679   9.020 -1.8819  1.0821 -0.8888
  147SAPE  H17S16238   2.007   5.751   9.139 -1.6768 -0.8823  1.2961
  147SAPE  C21816239   2.030   5.833   8.943 -0.2163 -0.2047 -0.2510
  147SAPE  H18R16240   2.081   5.923   8.983 -0.0258  0.2554 -1.5147
  147SAPE  H18S16241   1.964   5.871   8.862  0.4640  0.0441 -0.6903
  147SAPE  C21916242   2.118   5.721   8.887 -0.2030  0.9326 -0.2978
  147SAPE  H19R16243   2.061   5.627   8.874  2.0522 -0.4812 -0.2099
  147SAPE  H19S16244   2.203   5.701   8.956 -0.4603  0.3589 -0.1458
  147SAPE  C22016245   2.182   5.766   8.756 -0.3979 -0.0415 -0.1633
  147SAPE  H20R16246   2.243   5.680   8.723 -2.8939 -1.9868  0.1175
  147SAPE  H20S16247   2.234   5.864   8.763 -0.0177 -0.3850  1.9746
  147SAPE  H20T16248   2.099   5.783   8.684  1.0020  0.9937 -1.5611
  147SAPE   C3316249   1.475   5.338  10.219 -0.4054 -0.0869 -0.3197
  147SAPE   H3X16250   1.440   5.440  10.193 -1.1432 -0.3623 -0.4339
  147SAPE   H3Y16251   1.403   5.267  10.266 -0.9928  0.9723  0.3995
  147SAPE   C3416252   1.528   5.290  10.084 -0.1366  0.3527 -0.1701
  147SAPE   H4X16253   1.592   5.200  10.082  0.3594  0.6234  2.2086
  147SAPE   H4Y16254   1.588   5.368  10.031  0.4802  0.2410  0.3639
  147SAPE   C3516255   1.414   5.258   9.983 -0.1585 -0.3215  0.2809
  147SAPE   H5X16256   1.349   5.349   9.984 -1.9023 -1.4807 -1.9223
  147SAPE   H5Y16257   1.364   5.164  10.015  3.7240 -1.8470  2.1520
  147SAPE   C3616258   1.474   5.250   9.839 -0.1230  0.1268  0.6593
  147SAPE   H6X16259   1.566   5.189   9.841 -0.3858 -0.3077 -0.3863
  147SAPE   H6Y16260   1.509   5.353   9.814 -1.0670 -0.4982 -3.5146
  147SAPE   C3716261   1.389   5.202   9.729  0.5522  0.3655  0.0695
  147SAPE   H7X16262   1.285   5.237   9.748  0.1085 -2.2234  2.7855
  147SAPE   H7Y16263   1.385   5.091   9.735  1.8828  0.4138  2.5528
  147SAPE   C3816264   1.454   5.237   9.597  0.3317 -0.5451  0.9111
  147SAPE   H8X16265   1.560   5.205   9.602  0.7223  0.8621  1.7642
  147SAPE   H8Y16266   1.465   5.346   9.581  0.3511 -0.4716  1.4192
  147SAPE   C3916267   1.392   5.172   9.465 -0.2335 -0.3226  0.1675
  147SAPE   H9X16268   1.283   5.192   9.455 -0.1773  0.3291  0.8730
  147SAPE   H9Y16269   1.403   5.063   9.484  0.7275 -0.3706 -0.6054
  147SAPE  C31016270   1.471   5.225   9.343  0.0685 -0.3292 -0.2372
  147SAPE  H10X16271   1.575   5.185   9.349 -0.2326 -0.8921  1.9202
  147SAPE  H10Y16272   1.459   5.335   9.346 -1.5129 -0.5298  1.9432
  147SAPE  C31116273   1.426   5.183   9.205 -0.4413  0.4402  0.0791
  147SAPE  H11X16274   1.325   5.220   9.178 -0.5594  0.9535  1.2076
  147SAPE  H11Y16275   1.418   5.072   9.214  2.2732 -0.0435 -2.4296
  147SAPE  C31216276   1.525   5.236   9.098 -0.0467  0.0576 -0.3295
  147SAPE  H12X16277   1.623   5.185   9.099 -0.7635 -1.3899 -1.0958
  147SAPE  H12Y16278   1.543   5.345   9.107  1.9903 -0.3951  1.3622
  147SAPE  C31316279   1.476   5.204   8.947 -0.2687  1.3955 -0.5493
  147SAPE  H13X16280   1.406   5.289   8.930 -0.0994  1.9634  1.4732
  147SAPE  H13Y16281   1.411   5.114   8.953 -0.2924  1.4426 -0.0577
  147SAPE  C31416282   1.588   5.169   8.847  0.2672 -0.7387 -0.0936
  147SAPE  H14X16283   1.543   5.136   8.751 -0.6429  1.5328 -0.4696
  147SAPE  H14Y16284   1.645   5.082   8.887 -0.2580  0.0358  2.3987
  147SAPE  C31516285   1.681   5.279   8.811  0.5894 -0.3223  0.0052
  147SAPE  H15X16286   1.740   5.235   8.727 -0.5363 -2.2630  0.1935
  147SAPE  H15Y16287   1.747   5.304   8.896 -0.8928  2.9711  0.2539
  147SAPE  C31616288   1.601   5.403   8.773  0.1311  0.3665 -0.3315
  147SAPE  H16X16289   1.551   5.452   8.860  1.5589 -1.5601  1.6280
  147SAPE  H16Y16290   1.521   5.367   8.705  0.8948 -2.8597  0.3853
  147SAPE  C31716291   1.679   5.517   8.700  0.5436 -0.7924  0.2822
  147SAPE  H17X16292   1.606   5.598   8.683  2.7001  0.8477 -1.3473
  147SAPE  H17Y16293   1.722   5.485   8.602  0.1312 -0.7143  0.0766
  147SAPE  C31816294   1.789   5.573   8.793 -0.7660  0.2034  0.2503
  147SAPE  H18X16295   1.877   5.505   8.785 -1.2532 -0.6672  2.0163
  147SAPE  H18Y16296   1.756   5.598   8.897  1.8546  1.2245  0.8651
  147SAPE  H18Z16297   1.819   5.670   8.748 -1.9086  0.3140 -0.2819
  148SAPE     N16298   2.320   1.080  10.649 -0.4919  0.2055 -0.4963
  148SAPE   HN116299   2.233   1.136  10.643  0.0810  1.1233 -0.2477
  148SAPE   HN216300   2.310   1.000  10.715  1.9995  0.1644 -0.1326
  148SAPE   HN316301   2.392   1.142  10.689  2.5613 -4.6558  2.0303
  148SAPE   C1216302   2.359   1.036  10.517  0.0819  0.7035 -0.1271
  148SAPE  H12A16303   2.452   0.975  10.517 -1.0122 -1.0485  2.1650
  148SAPE  H12B16304   2.378   1.120  10.448 -0.1418 -0.7446 -2.0148
  148SAPE   C1116305   2.245   0.943  10.460  0.7521  0.3559  0.1257
  148SAPE  H11A16306   2.278   0.918  10.357  2.7629 -2.0453  1.2909
  148SAPE  H11B16307   2.147   0.994  10.453  0.2832 -0.6199 -0.4193
  148SAPE     P16308   2.341   0.711  10.549  0.2779  0.0021 -0.2416
  148SAPE   O1316309   2.433   0.749  10.657  0.4718 -0.4584 -0.7970
  148SAPE   O1416310   2.273   0.581  10.555 -0.2134  0.3900 -0.7065
  148SAPE   O1216311   2.235   0.825  10.540  1.1027 -0.3665  0.3641
  148SAPE   O1116312   2.423   0.719  10.412 -0.1478  0.1562  0.4025
  148SAPE    C116313   2.370   0.679  10.284  0.5018 -0.0376 -0.4056
  148SAPE    HA16314   2.328   0.578  10.299 -0.1117  0.4748  1.4152
  148SAPE    HB16315   2.296   0.756  10.252  1.4360  0.7732 -0.6462
  148SAPE    C216316   2.463   0.691  10.160  0.0437  0.2796 -0.3406
  148SAPE    HS16317   2.542   0.618  10.183 -1.7950 -0.9959  2.2336
  148SAPE   O2116318   2.512   0.825  10.160  0.0769  0.0700  0.0031
  148SAPE   C2116319   2.642   0.838  10.135  0.1230 -0.1540  0.2146
  148SAPE   O2216320   2.715   0.746  10.109 -0.6182  0.8091  0.0043
  148SAPE   C2216321   2.683   0.979  10.161  0.3602  0.5619 -0.5362
  148SAPE   H2R16322   2.605   1.029  10.222  0.7450 -0.1489  0.5695
  148SAPE   H2S16323   2.772   0.978  10.229 -0.5359  3.3024  0.7403
  148SAPE    C316324   2.396   0.658  10.027 -0.3997  0.1708  0.2024
  148SAPE    HX16325   2.333   0.748  10.008 -2.1242 -0.7470  1.3767
  148SAPE    HY16326   2.313   0.587  10.048 -0.7766  0.9828  1.5059
  148SAPE   O3116327   2.484   0.639   9.914  0.1244  0.0688 -0.6813
  148SAPE   C3116328   2.511   0.510   9.893  0.4432  0.9388 -0.1599
  148SAPE   O3216329   2.471   0.418   9.964  0.1967  0.4201  0.3587
  148SAPE   C3216330   2.598   0.479   9.773  0.6621  0.0228 -0.1189
  148SAPE   H2X16331   2.528   0.419   9.711 -0.3205  1.7197 -0.6830
  148SAPE   H2Y16332   2.687   0.426   9.812  0.5900 -0.2058 -0.2648
  148SAPE   C2316333   2.715   1.058  10.032 -0.1461 -0.6510  0.2728
  148SAPE   H3R16334   2.796   1.008   9.973  1.9701  0.2128  2.3577
  148SAPE   H3S16335   2.763   1.152  10.068 -1.3022  0.7833 -1.8121
  148SAPE   C2416336   2.592   1.091   9.951 -0.2577  0.5636 -0.3782
  148SAPE   H4R16337   2.516   1.119  10.026 -1.1947 -1.4548 -0.5523
  148SAPE   H4S16338   2.570   0.991   9.908 -1.7559  0.1452  1.3080
  148SAPE   C2516339   2.618   1.200   9.853  0.2171 -0.7044 -0.2500
  148SAPE   H5R16340   2.668   1.288   9.896  1.1334 -1.1028 -0.4830
  148SAPE   C2616341   2.599   1.201   9.723  0.9687 -0.5125 -0.3419
  148SAPE   H6R16342   2.617   1.294   9.668 -1.7999  0.6171  0.5838
  148SAPE   C2716343   2.535   1.093   9.637 -0.3126 -0.0163  0.6368
  148SAPE   H7R16344   2.454   1.141   9.580  0.0758 -0.5888 -0.4186
  148SAPE   H7S16345   2.481   1.018   9.698  0.6201 -1.3005 -0.0825
  148SAPE   C2816346   2.645   1.027   9.548  0.1230  0.3504 -0.5620
  148SAPE   H8R16347   2.728   0.982   9.604 -1.7034 -1.3502  0.8558
  148SAPE   C2916348   2.653   1.037   9.413 -0.5665 -0.0706  0.6568
  148SAPE   H9R16349   2.735   0.993   9.356 -1.5645  0.0798 -0.9362
  148SAPE  C21016350   2.533   1.092   9.335 -0.0176 -0.0566 -0.5023
  148SAPE  H10R16351   2.445   1.100   9.402  0.7847  1.1493  0.4403
  148SAPE  H10S16352   2.507   1.021   9.254  1.0032 -2.0235  0.8429
  148SAPE  C21116353   2.553   1.235   9.281 -0.1727 -0.2501  0.5801
  148SAPE  H11R16354   2.479   1.307   9.318 -0.6627 -0.9883  1.0501
  148SAPE  C21216355   2.650   1.279   9.197  0.1379  0.1801 -0.2040
  148SAPE  H12R16356   2.641   1.386   9.172 -0.1641 -0.0551 -1.1124
  148SAPE  C21316357   2.760   1.200   9.138 -0.7088 -0.2562  0.2420
  148SAPE  H13R16358   2.741   1.091   9.134  0.9194 -0.5398 -0.0781
  148SAPE  H13S16359   2.850   1.193   9.202 -1.1742  0.3032  0.9664
  148SAPE  C21416360   2.800   1.255   9.002 -0.0643 -0.0116 -0.0658
  148SAPE  H14R16361   2.724   1.304   8.940 -0.2148  0.0247  0.1455
  148SAPE  C21516362   2.927   1.243   8.952 -0.0293  0.2193 -0.6750
  148SAPE  H15R16363   2.940   1.280   8.849  0.3019  1.1228 -0.3120
  148SAPE  C21616364   3.040   1.164   9.020  0.0379  0.7449 -0.2080
  148SAPE  H16R16365   3.088   1.096   8.946 -0.9775 -2.7035  2.1604
  148SAPE  H16S16366   3.010   1.096   9.103 -0.5907 -0.6593 -1.5643
  148SAPE  C21716367   3.155   1.254   9.062 -1.0065 -0.3433 -0.2237
  148SAPE  H17R16368   3.102   1.334   9.118  0.9890  0.5323  0.4623
  148SAPE  H17S16369   3.197   1.305   8.973 -2.7175  1.3142 -0.1111
  148SAPE  C21816370   3.251   1.166   9.157  0.4511  0.1337 -0.1987
  148SAPE  H18R16371   3.285   1.084   9.090 -0.5583  1.0892 -1.9244
  148SAPE  H18S16372   3.194   1.130   9.245 -1.5827  2.1420 -0.6381
  148SAPE  C21916373   3.377   1.241   9.196 -0.0618 -0.6941 -0.2111
  148SAPE  H19R16374   3.446   1.184   9.261  0.1926  0.4262  0.5130
  148SAPE  H19S16375   3.345   1.328   9.257  0.9032 -2.2516  2.6227
  148SAPE  C22016376   3.467   1.285   9.084 -0.0551  0.0390  0.6034
  148SAPE  H20R16377   3.528   1.194   9.062  0.7207  0.8534 -0.6447
  148SAPE  H20S16378   3.529   1.355   9.143 -0.1191  0.6661 -0.0630
  148SAPE  H20T16379   3.422   1.335   8.996 -0.1591  2.5135  2.0144
  148SAPE   C3316380   2.639   0.596   9.683  0.2476 -0.6498 -0.3189
  148SAPE   H3X16381   2.708   0.663   9.739 -0.7968  0.5235 -0.3873
  148SAPE   H3Y16382   2.547   0.658   9.671 -0.6944 -1.3885  2.6536
  148SAPE   C3416383   2.693   0.557   9.540  0.1075  0.8617  0.7780
  148SAPE   H4X16384   2.629   0.479   9.495  1.1892 -0.2617  1.1705
  148SAPE   H4Y16385   2.794   0.513   9.557 -0.4020 -0.5635  0.1800
  148SAPE   C3516386   2.721   0.664   9.441  0.6651  0.0373  0.3997
  148SAPE   H5X16387   2.776   0.737   9.504  1.6746  0.4931 -0.9944
  148SAPE   H5Y16388   2.627   0.719   9.415  0.5921 -0.1370  0.2978
  148SAPE   C3616389   2.770   0.624   9.304  0.0100  0.2685 -0.6232
  148SAPE   H6X16390   2.692   0.573   9.244 -0.9623 -2.7883  3.0450
  148SAPE   H6Y16391   2.848   0.548   9.325 -1.0058 -0.6694 -0.1953
  148SAPE   C3716392   2.843   0.738   9.221 -1.3831  0.7364  0.0874
  148SAPE   H7X16393   2.905   0.793   9.295  0.6439  1.4818 -2.0905
  148SAPE   H7Y16394   2.763   0.801   9.177 -2.1051 -0.6331 -0.5977
  148SAPE   C3816395   2.926   0.677   9.108 -0.4602 -0.4935 -0.2217
  148SAPE   H8X16396   2.993   0.605   9.158  1.0334 -0.0839 -1.5802
  148SAPE   H8Y16397   2.989   0.761   9.070 -0.1951  0.1578  1.6128
  148SAPE   C3916398   2.849   0.614   8.992 -0.8464 -0.2265 -0.1278
  148SAPE   H9X16399   2.778   0.685   8.946 -0.2512 -1.2449 -2.7095
  148SAPE   H9Y16400   2.785   0.535   9.038 -0.9549 -0.9358 -1.4700
  148SAPE  C31016401   2.948   0.550   8.895 -0.1689  0.3850  0.2373
  148SAPE  H10X16402   2.900   0.489   8.815  0.8445 -2.8013  1.9934
  148SAPE  H10Y16403   3.020   0.485   8.948 -1.8122 -0.2273  1.8040
  148SAPE  C31116404   3.048   0.647   8.831  1.0659  0.2642  1.2407
  148SAPE  H11X16405   3.091   0.596   8.743  0.6082 -1.7097  2.1231
  148SAPE  H11Y16406   3.132   0.686   8.893  3.5687  1.4827 -2.7138
  148SAPE  C31216407   2.986   0.774   8.773 -0.3629 -1.0630 -0.0146
  148SAPE  H12X16408   2.949   0.842   8.852  2.4281 -0.2244  0.6279
  148SAPE  H12Y16409   2.903   0.746   8.704 -0.2357  1.1240 -1.0780
  148SAPE  C31316410   3.086   0.856   8.683 -0.8696 -0.8476  0.9620
  148SAPE  H13X16411   3.113   0.792   8.596 -0.4681 -0.3061  0.6847
  148SAPE  H13Y16412   3.186   0.859   8.729  0.2597 -0.6263 -1.4127
  148SAPE  C31416413   3.037   1.005   8.643  0.4187  0.1760  0.8911
  148SAPE  H14X16414   3.010   1.054   8.740 -1.3497  0.7888  0.1090
  148SAPE  H14Y16415   2.955   0.990   8.570 -0.0835 -1.5193  1.7680
  148SAPE  C31516416   3.147   1.094   8.581 -0.4640 -0.3268 -0.0025
  148SAPE  H15X16417   3.113   1.170   8.507  2.4304  0.4755 -0.5720
  148SAPE  H15Y16418   3.217   1.024   8.530  0.1379  0.3710 -0.1424
  148SAPE  C31616419   3.226   1.173   8.690  0.2003 -0.1788  0.0805
  148SAPE  H16X16420   3.268   1.100   8.762  2.7711  1.0514 -0.1281
  148SAPE  H16Y16421   3.170   1.256   8.739  1.1878  1.1904 -1.0745
  148SAPE  C31716422   3.344   1.246   8.618 -0.3907  0.2290 -0.3485
  148SAPE  H17X16423   3.406   1.175   8.559 -0.8471  0.6718 -1.3818
  148SAPE  H17Y16424   3.412   1.283   8.697 -1.3626  0.1569  0.5259
  148SAPE  C31816425   3.304   1.369   8.527 -0.2341 -0.5331 -0.7713
  148SAPE  H18X16426   3.259   1.443   8.597  1.8804 -0.4638  0.5898
  148SAPE  H18Y16427   3.239   1.342   8.441  0.2371  0.1326 -1.3467
  148SAPE  H18Z16428   3.399   1.413   8.488 -0.3917 -0.7305 -1.3771
  149SAPE     N16429   5.022   2.367  11.135  0.3330 -0.2079  0.2539
  149SAPE   HN116430   4.929   2.323  11.149  0.1234 -0.1638 -0.9063
  149SAPE   HN216431   5.089   2.289  11.123 -0.1549 -0.8733  1.8089
  149SAPE   HN316432   5.044   2.417  11.223 -0.7304  3.5046 -1.4513
  149SAPE   C1216433   5.039   2.442  11.007  0.1372  0.0818 -0.6670
  149SAPE  H12A16434   4.943   2.494  10.988 -1.3901 -1.7182  1.6921
  149SAPE  H12B16435   5.048   2.359  10.934 -1.9141 -0.2119 -0.6277
  149SAPE   C1116436   5.163   2.529  11.012 -0.0576  0.0502 -0.0439
  149SAPE  H11A16437   5.156   2.633  10.972 -1.2276  0.4834  1.2405
  149SAPE  H11B16438   5.244   2.469  10.967  1.8020  0.7809  2.2174
  149SAPE     P16439   5.334   2.556  11.213  0.0365  0.0141 -0.2134
  149SAPE   O1316440   5.324   2.650  11.329  0.1976  0.0475  0.1473
  149SAPE   O1416441   5.368   2.418  11.239 -0.3052 -0.0413 -0.2410
  149SAPE   O1216442   5.197   2.560  11.150 -0.4780 -0.6407  0.3873
  149SAPE   O1116443   5.434   2.604  11.104 -0.3221  0.1854  0.6388
  149SAPE    C116444   5.469   2.743  11.104  0.1288  0.1414 -0.2115
  149SAPE    HA16445   5.398   2.821  11.140 -0.7345 -0.0083 -1.5581
  149SAPE    HB16446   5.560   2.752  11.168  1.3363  0.7868 -1.9752
  149SAPE    C216447   5.521   2.772  10.964  0.5465  0.4765  0.4566
  149SAPE    HS16448   5.569   2.872  10.962  0.7275  0.3807 -2.0469
  149SAPE   O2116449   5.411   2.768  10.869  0.5070 -0.6688  0.8205
  149SAPE   C2116450   5.339   2.878  10.857 -0.5800 -0.6697  0.8985
  149SAPE   O2216451   5.352   2.983  10.923  0.0661  0.1955  0.1900
  149SAPE   C2216452   5.218   2.845  10.761 -0.4113  0.2975  0.3503
  149SAPE   H2R16453   5.151   2.774  10.815  0.3375 -0.9042 -0.2674
  149SAPE   H2S16454   5.168   2.942  10.743  0.3660  0.6049 -0.1502
  149SAPE    C316455   5.635   2.674  10.921 -0.3450 -0.5845 -0.3295
  149SAPE    HX16456   5.584   2.577  10.931  0.3237 -0.9982 -0.8629
  149SAPE    HY16457   5.703   2.687  11.008 -2.0337  1.0667  0.7882
  149SAPE   O3116458   5.689   2.700  10.783 -0.0281  0.0850  0.0207
  149SAPE   C3116459   5.673   2.606  10.694 -0.3569 -0.0686  0.6791
  149SAPE   O3216460   5.612   2.501  10.712  0.5078  0.0546 -0.2182
  149SAPE   C3216461   5.753   2.632  10.561 -0.1662  0.1116  0.1382
  149SAPE   H2X16462   5.854   2.594  10.586 -0.4965 -0.2996  0.8573
  149SAPE   H2Y16463   5.743   2.741  10.541  0.4099 -0.1722 -1.7932
  149SAPE   C2316464   5.262   2.769  10.627  0.3474 -0.8441  0.0083
  149SAPE   H3R16465   5.311   2.671  10.643  3.5437  1.0614  2.3340
  149SAPE   H3S16466   5.333   2.842  10.582  1.8262  0.8936  4.8307
  149SAPE   C2416467   5.151   2.753  10.514  0.4073  0.3061 -0.4339
  149SAPE   H4R16468   5.203   2.730  10.419  1.0311  0.7645 -0.2112
  149SAPE   H4S16469   5.105   2.853  10.506 -1.1975 -0.4639 -0.9304
  149SAPE   C2516470   5.048   2.650  10.547  0.0822  0.1053 -0.2139
  149SAPE   H5R16471   5.020   2.648  10.653  0.2233 -0.0813 -0.1793
  149SAPE   C2616472   4.985   2.561  10.463 -0.3027 -0.2441 -0.1171
  149SAPE   H6R16473   4.902   2.499  10.500  0.6083  0.0430  2.4419
  149SAPE   C2716474   5.011   2.559  10.313 -0.7136 -0.4090 -0.0447
  149SAPE   H7R16475   5.100   2.495  10.300  0.6896  1.3347  0.8027
  149SAPE   H7S16476   5.037   2.660  10.275  0.1203 -0.8568 -0.6660
  149SAPE   C2816477   4.900   2.503  10.222 -0.2142  0.8487 -0.1560
  149SAPE   H8R16478   4.803   2.489  10.273 -0.6255  2.4616 -0.4474
  149SAPE   C2916479   4.897   2.501  10.086 -0.6770 -0.1047  0.4366
  149SAPE   H9R16480   4.800   2.470  10.045 -0.7632  2.1683 -1.2110
  149SAPE  C21016481   5.002   2.544   9.986 -0.6429 -0.0733 -0.5280
  149SAPE  H10R16482   5.007   2.481   9.895  0.3578 -1.5092  0.4890
  149SAPE  H10S16483   5.101   2.542  10.038 -0.4129 -1.2140 -0.9817
  149SAPE  C21116484   4.975   2.689   9.948  0.9821 -0.2780  0.3348
  149SAPE  H11R16485   4.945   2.764  10.023  0.8394  1.0495 -1.0092
  149SAPE  C21216486   4.978   2.732   9.821 -0.0330 -0.2417 -0.5080
  149SAPE  H12R16487   4.944   2.834   9.800  0.6655  0.5344  1.9691
  149SAPE  C21316488   5.015   2.670   9.688  0.3822  0.6158  0.3874
  149SAPE  H13R16489   5.119   2.633   9.681 -0.1009 -0.3689 -2.0269
  149SAPE  H13S16490   5.001   2.753   9.615 -0.0829  0.7028  0.5765
  149SAPE  C21416491   4.939   2.551   9.645  0.2997 -0.6421  0.4603
  149SAPE  H14R16492   4.862   2.514   9.714  1.6911 -2.2640  1.1859
  149SAPE  C21516493   4.966   2.484   9.529 -0.0241 -0.9398  1.0409
  149SAPE  H15R16494   4.907   2.397   9.496 -0.4749  0.3309 -1.6844
  149SAPE  C21616495   5.083   2.511   9.427  0.1871  0.6267  0.0818
  149SAPE  H16R16496   5.166   2.438   9.441 -0.2587 -0.0730 -0.8678
  149SAPE  H16S16497   5.115   2.614   9.454 -1.0121  0.6323  1.5321
  149SAPE  C21716498   5.035   2.487   9.283  0.2906 -0.1313  0.0471
  149SAPE  H17R16499   4.994   2.385   9.269 -1.4755  0.3730  1.3982
  149SAPE  H17S16500   5.110   2.517   9.207  1.6024 -1.0531  0.9569
  149SAPE  C21816501   4.927   2.592   9.237 -0.3727  0.0852 -0.0198
  149SAPE  H18R16502   4.964   2.696   9.247  2.5501 -0.8226 -0.8871
  149SAPE  H18S16503   4.841   2.582   9.306 -0.5368  0.1624 -0.2118
  149SAPE  C21916504   4.879   2.568   9.095 -0.2187  0.3837 -0.2286
  149SAPE  H19R16505   4.829   2.664   9.070  1.2995  1.4291  0.6722
  149SAPE  H19S16506   4.802   2.488   9.092 -0.4701  0.6065  0.1540
  149SAPE  C22016507   4.980   2.542   8.986 -0.2683 -0.5247 -0.7292
  149SAPE  H20R16508   4.928   2.526   8.889  0.1298 -0.6255 -0.9257
  149SAPE  H20S16509   5.034   2.447   9.003  0.3268  0.3095  2.3651
  149SAPE  H20T16510   5.049   2.628   8.973 -0.2238  0.0062  2.7057
  149SAPE   C3316511   5.702   2.562  10.434 -0.5046 -0.2202 -0.6688
  149SAPE   H3X16512   5.596   2.592  10.421  0.0691  2.5503  0.7994
  149SAPE   H3Y16513   5.711   2.453  10.454 -0.2729 -0.5865 -2.6159
  149SAPE   C3416514   5.781   2.595  10.300  0.1682  0.0237 -0.9165
  149SAPE   H4X16515   5.889   2.590  10.323  0.2318 -2.5115 -1.6027
  149SAPE   H4Y16516   5.749   2.697  10.270 -1.4781 -0.4232 -0.7721
  149SAPE   C3516517   5.762   2.491  10.194  0.1559  0.1280  0.7118
  149SAPE   H5X16518   5.654   2.470  10.176  0.6435 -3.3462  1.3490
  149SAPE   H5Y16519   5.805   2.393  10.226 -0.8538 -0.5933 -0.0734
  149SAPE   C3616520   5.836   2.530  10.060  0.2996  0.2416  0.3163
  149SAPE   H6X16521   5.903   2.449  10.022 -1.5482 -0.6916 -1.0000
  149SAPE   H6Y16522   5.908   2.611  10.085 -0.3841 -0.1325  3.7300
  149SAPE   C3716523   5.745   2.570   9.941 -0.4942 -0.0470  0.4356
  149SAPE   H7X16524   5.686   2.662   9.956 -1.6485 -0.6498 -0.2902
  149SAPE   H7Y16525   5.677   2.486   9.915  0.5024 -0.3101 -1.4486
  149SAPE   C3816526   5.833   2.606   9.817  0.4539  0.1316  0.4705
  149SAPE   H8X16527   5.925   2.544   9.817  2.2445  2.6845  3.0112
  149SAPE   H8Y16528   5.868   2.710   9.834 -1.7560  1.1646 -1.0001
  149SAPE   C3916529   5.765   2.585   9.684  0.1582 -0.3195 -0.1913
  149SAPE   H9X16530   5.686   2.663   9.689  0.2481 -0.2010 -0.6000
  149SAPE   H9Y16531   5.719   2.485   9.698 -3.1788  1.0709 -0.5674
  149SAPE  C31016532   5.845   2.602   9.557 -0.2090  0.1802  0.2449
  149SAPE  H10X16533   5.927   2.528   9.562 -1.4007 -1.1726  0.0028
  149SAPE  H10Y16534   5.887   2.705   9.552  1.8524 -0.6583 -0.0388
  149SAPE  C31116535   5.787   2.568   9.426  0.6653  0.5341 -0.7348
  149SAPE  H11X16536   5.702   2.639   9.421  0.3039  0.1981  0.5240
  149SAPE  H11Y16537   5.744   2.466   9.427 -1.4545  1.4130  0.0971
  149SAPE  C31216538   5.882   2.594   9.310 -0.0436 -0.2062 -0.5429
  149SAPE  H12X16539   5.954   2.510   9.299  0.7227  0.3826 -0.1207
  149SAPE  H12Y16540   5.935   2.687   9.339 -0.1540 -0.2310 -0.2632
  149SAPE  C31316541   5.813   2.601   9.179 -0.0432 -0.2577 -0.5466
  149SAPE  H13X16542   5.714   2.641   9.209  0.4691  0.9248 -0.4060
  149SAPE  H13Y16543   5.799   2.495   9.148  0.9217 -1.6805  3.5400
  149SAPE  C31416544   5.866   2.683   9.070 -0.3061 -1.3437 -0.0087
  149SAPE  H14X16545   5.970   2.656   9.039  0.7704 -0.5948  2.7426
  149SAPE  H14Y16546   5.869   2.792   9.093 -0.1514 -1.1612 -0.8981
  149SAPE  C31516547   5.791   2.654   8.941  0.6565 -0.8445  0.0963
  149SAPE  H15X16548   5.696   2.711   8.956  0.8321 -0.4737 -0.1976
  149SAPE  H15Y16549   5.758   2.549   8.930 -1.5997 -0.3923  2.1394
  149SAPE  C31616550   5.859   2.699   8.810 -0.6235  0.7058  0.0177
  149SAPE  H16X16551   5.797   2.665   8.725 -0.1855 -0.0391 -0.0054
  149SAPE  H16Y16552   5.962   2.657   8.803 -0.4475  1.1440 -0.0206
  149SAPE  C31716553   5.868   2.853   8.805  0.0570 -0.1834  0.3508
  149SAPE  H17X16554   5.907   2.889   8.903  0.3571 -1.0066  0.5415
  149SAPE  H17Y16555   5.764   2.891   8.813  0.4026  1.0135 -0.7721
  149SAPE  C31816556   5.939   2.915   8.685  0.2761 -0.6613 -0.1566
  149SAPE  H18X16557   5.924   2.868   8.585 -0.1533 -1.4065  0.2491
  149SAPE  H18Y16558   6.048   2.917   8.703  0.0833 -1.4371  1.1918
  149SAPE  H18Z16559   5.906   3.020   8.671  0.1118 -0.2309  3.1496
  150SAPE     N16560   0.380   2.419  10.708  0.5675 -0.7228 -0.3303
  150SAPE   HN116561   0.365   2.515  10.670 -1.0524 -0.6502  0.4368
  150SAPE   HN216562   0.483   2.409  10.697  0.8965  1.9147 -0.1771
  150SAPE   HN316563   0.337   2.348  10.646 -1.2536  1.0857 -1.2183
  150SAPE   C1216564   0.333   2.423  10.856 -0.3761  0.0053  0.4126
  150SAPE  H12A16565   0.227   2.453  10.860 -0.8790 -1.6164 -0.0544
  150SAPE  H12B16566   0.387   2.507  10.904 -0.7924  1.2990 -1.3245
  150SAPE   C1116567   0.369   2.284  10.912  0.1331 -0.1178 -0.1960
  150SAPE  H11A16568   0.358   2.281  11.023  0.0640 -0.3009 -0.2092
  150SAPE  H11B16569   0.480   2.279  10.900 -0.1404 -1.8537 -2.1873
  150SAPE     P16570   0.268   2.041  10.893  0.3020 -0.0517  0.1028
  150SAPE   O1316571   0.380   1.948  10.869  0.4379  0.1836 -0.0935
  150SAPE   O1416572   0.234   2.054  11.035  0.1386  0.0478  0.6257
  150SAPE   O1216573   0.309   2.176  10.832 -0.3373 -0.0372 -0.0359
  150SAPE   O1116574   0.144   1.997  10.809  0.8425 -0.0322 -0.2546
  150SAPE    C116575   0.109   2.033  10.675  0.4317 -0.4408 -0.5306
  150SAPE    HA16576   0.008   1.988  10.667  0.7373 -0.7173 -3.4460
  150SAPE    HB16577   0.103   2.144  10.675 -1.6694 -0.5399  0.0797
  150SAPE    C216578   0.199   1.986  10.557 -0.3129  0.5295  0.1078
  150SAPE    HS16579   0.304   2.004  10.589 -0.4167  1.3998 -0.0300
  150SAPE   O2116580   0.157   2.061  10.443  0.0945  0.1542 -0.1841
  150SAPE   C2116581   0.205   2.180  10.445  0.5889 -0.4561  0.3880
  150SAPE   O2216582   0.277   2.233  10.527  0.0699  0.0682  0.0267
  150SAPE   C2216583   0.166   2.255  10.309  0.8327  0.5883 -0.6151
  150SAPE   H2R16584   0.267   2.288  10.277  0.9628 -0.7081 -1.5821
  150SAPE   H2S16585   0.116   2.183  10.240 -2.2226  0.6738  1.3893
  150SAPE    C316586   0.180   1.840  10.518  0.8061  0.1795  0.0843
  150SAPE    HX16587   0.074   1.814  10.494  0.4482  1.2453  0.4578
  150SAPE    HY16588   0.206   1.763  10.594  1.2279  0.2618  0.0230
  150SAPE   O3116589   0.261   1.806  10.404 -0.0487 -0.3206  0.5882
  150SAPE   C3116590   0.198   1.767  10.293  0.2798 -0.2413 -0.0618
  150SAPE   O3216591   0.079   1.750  10.273 -0.6394  0.8875  0.3829
  150SAPE   C3216592   0.303   1.762  10.179 -0.1259  0.0136 -0.5354
  150SAPE   H2X16593   0.342   1.658  10.179 -1.0519 -0.4031  2.3567
  150SAPE   H2Y16594   0.381   1.836  10.206  2.3063 -2.7645  0.4043
  150SAPE   C2316595   0.080   2.375  10.334  0.1857  0.0141 -0.0047
  150SAPE   H3R16596   0.138   2.434  10.407  0.7106  2.7906 -2.5701
  150SAPE   H3S16597  -0.021   2.347  10.373 -0.6807  0.5415 -1.7799
  150SAPE   C2416598   0.064   2.457  10.211  0.8923 -0.2793  0.2426
  150SAPE   H4R16599   0.162   2.472  10.162  1.0309 -1.0207  0.2810
  150SAPE   H4S16600   0.035   2.554  10.256  0.6394 -0.9772  1.5913
  150SAPE   C2516601  -0.028   2.412  10.099 -0.2253 -0.1339 -0.4239
  150SAPE   H5R16602  -0.136   2.424  10.117  0.1274  1.7812  0.5189
  150SAPE   C2616603   0.014   2.368   9.972 -0.0042 -0.9166  0.0249
  150SAPE   H6R16604  -0.057   2.338   9.894 -1.2832 -2.1250  1.5937
  150SAPE   C2716605   0.157   2.351   9.925 -0.9159  0.0112  0.0507
  150SAPE   H7R16606   0.230   2.353  10.009  0.0430  1.3034 -0.7910
  150SAPE   H7S16607   0.176   2.443   9.865  2.5275 -1.3566 -1.0851
  150SAPE   C2816608   0.192   2.231   9.832 -0.1064  0.5236  0.5642
  150SAPE   H8R16609   0.202   2.133   9.882  0.2194 -0.2428 -0.9670
  150SAPE   C2916610   0.214   2.246   9.701  0.0634 -0.3745  0.4224
  150SAPE   H9R16611   0.242   2.157   9.642 -1.9050  0.1902 -1.4365
  150SAPE  C21016612   0.206   2.373   9.620 -0.1057 -0.3975 -0.6547
  150SAPE  H10R16613   0.307   2.419   9.630 -0.9059  1.2206  0.3209
  150SAPE  H10S16614   0.128   2.442   9.658  0.4181  0.0890 -0.4443
  150SAPE  C21116615   0.184   2.358   9.469  0.4742  0.3794 -0.9638
  150SAPE  H11R16616   0.278   2.350   9.413 -0.7970 -1.8119 -2.8804
  150SAPE  C21216617   0.066   2.347   9.402 -0.3497  0.6252  0.5113
  150SAPE  H12R16618   0.066   2.357   9.293 -3.3626 -0.7809  0.3280
  150SAPE  C21316619  -0.072   2.339   9.464 -0.6929  0.1929  0.1221
  150SAPE  H13R16620  -0.053   2.317   9.571 -1.6115  0.5337  0.3646
  150SAPE  H13S16621  -0.122   2.252   9.416 -0.8988  0.2083  0.3060
  150SAPE  C21416622  -0.147   2.466   9.467 -0.1056  0.3912  0.1902
  150SAPE  H14R16623  -0.088   2.549   9.509  0.7760  0.4291 -1.0950
  150SAPE  C21516624  -0.272   2.491   9.428 -0.1701  0.4105 -0.2126
  150SAPE  H15R16625  -0.324   2.588   9.437  2.6348  1.9654 -0.1673
  150SAPE  C21616626  -0.354   2.385   9.355 -0.0514  0.0708 -0.4486
  150SAPE  H16R16627  -0.412   2.318   9.421  1.6246  0.7636  1.7905
  150SAPE  H16S16628  -0.293   2.327   9.282  0.1314 -1.8260  1.1779
  150SAPE  C21716629  -0.457   2.460   9.273  0.0336 -0.7531  0.5152
  150SAPE  H17R16630  -0.520   2.522   9.340  2.5360  1.1984  1.1451
  150SAPE  H17S16631  -0.534   2.391   9.231 -0.1260 -0.1841 -0.1343
  150SAPE  C21816632  -0.409   2.544   9.146 -0.1099  1.0873  0.0358
  150SAPE  H18R16633  -0.348   2.469   9.091 -1.1902 -1.8508  2.7153
  150SAPE  H18S16634  -0.343   2.627   9.176 -0.5190  0.7661  1.8496
  150SAPE  C21916635  -0.522   2.593   9.055 -0.5508 -0.2379  0.3764
  150SAPE  H19R16636  -0.598   2.653   9.110 -2.4270 -3.3181  1.2676
  150SAPE  H19S16637  -0.577   2.507   9.012  1.7169 -1.3435 -0.4157
  150SAPE  C22016638  -0.465   2.677   8.943  0.4547 -0.2834 -0.6378
  150SAPE  H20R16639  -0.402   2.757   8.988  0.8645 -1.0939  0.2302
  150SAPE  H20S16640  -0.547   2.734   8.895  0.4784  0.9962  0.7987
  150SAPE  H20T16641  -0.408   2.626   8.863  0.2320 -3.1793  1.0094
  150SAPE   C3316642   0.241   1.778  10.043 -0.6896 -0.2415 -0.8689
  150SAPE   H3X16643   0.174   1.866  10.041 -2.0229 -1.0190  3.6696
  150SAPE   H3Y16644   0.184   1.683  10.030 -0.9041 -0.5221  1.8657
  150SAPE   C3416645   0.338   1.790   9.930 -0.3570 -0.3694 -0.6918
  150SAPE   H4X16646   0.406   1.705   9.950  1.2513  1.2722  0.9894
  150SAPE   H4Y16647   0.396   1.884   9.942 -0.4900 -0.5574  1.5796
  150SAPE   C3516648   0.281   1.776   9.788 -0.4718  0.7517  0.3112
  150SAPE   H5X16649   0.226   1.869   9.763 -0.9579  0.1045 -1.1089
  150SAPE   H5Y16650   0.208   1.693   9.794 -1.5621  1.8166  1.9828
  150SAPE   C3616651   0.388   1.747   9.684  0.2378  0.0543  0.3773
  150SAPE   H6X16652   0.455   1.667   9.721  1.4635  1.3192  0.9380
  150SAPE   H6Y16653   0.445   1.840   9.662  0.6602 -0.6701 -1.7809
  150SAPE   C3716654   0.324   1.718   9.552  0.1355  0.0485  0.2846
  150SAPE   H7X16655   0.252   1.634   9.553 -0.3985  0.4706 -1.3538
  150SAPE   H7Y16656   0.409   1.694   9.484 -0.2799  2.7856 -1.2777
  150SAPE   C3816657   0.251   1.832   9.490 -0.5315  0.9302  0.2933
  150SAPE   H8X16658   0.315   1.921   9.472  2.2299 -1.4280 -2.1049
  150SAPE   H8Y16659   0.170   1.870   9.555 -3.2865 -1.5137 -1.5914
  150SAPE   C3916660   0.189   1.790   9.359 -0.0131 -0.2855  0.4404
  150SAPE   H9X16661   0.138   1.691   9.362  1.1777 -1.0438 -2.6133
  150SAPE   H9Y16662   0.278   1.791   9.293  0.2460  1.3717  0.7972
  150SAPE  C31016663   0.082   1.891   9.299 -0.2775 -0.4613 -0.0019
  150SAPE  H10X16664   0.133   1.987   9.280  0.2140 -0.8314 -0.5692
  150SAPE  H10Y16665   0.008   1.907   9.381 -1.0582  1.0676 -0.9897
  150SAPE  C31116666   0.035   1.849   9.161 -0.3390  0.4524 -0.4213
  150SAPE  H11X16667  -0.013   1.749   9.167  0.4069  0.1365  0.5374
  150SAPE  H11Y16668   0.120   1.846   9.089  0.6773  1.1929  0.7122
  150SAPE  C31216669  -0.054   1.959   9.095  0.7492 -0.2643  0.2666
  150SAPE  H12X16670  -0.087   1.900   9.008 -0.4504  0.7789 -0.0001
  150SAPE  H12Y16671   0.019   2.037   9.065  0.0117  0.4346  0.2694
  150SAPE  C31316672  -0.171   2.012   9.175 -0.5790 -0.0074 -0.2735
  150SAPE  H13X16673  -0.137   2.080   9.256 -2.1106 -0.2018  0.5454
  150SAPE  H13Y16674  -0.220   1.926   9.226 -0.9295  0.3357 -0.0341
  150SAPE  C31416675  -0.266   2.075   9.073 -0.1841  0.8070  0.4400
  150SAPE  H14X16676  -0.359   2.086   9.134  0.3694 -1.2061  1.6974
  150SAPE  H14Y16677  -0.287   2.004   8.991  2.3571  2.0416 -1.3262
  150SAPE  C31516678  -0.203   2.198   9.012  0.3031 -0.0938 -0.0835
  150SAPE  H15X16679  -0.104   2.170   8.970  0.8899  1.1100  0.4671
  150SAPE  H15Y16680  -0.184   2.270   9.095  1.9440 -0.2153 -0.3416
  150SAPE  C31616681  -0.292   2.267   8.907 -0.8543 -0.1621  0.0473
  150SAPE  H16X16682  -0.274   2.376   8.915 -0.0098 -0.1097 -2.2592
  150SAPE  H16Y16683  -0.397   2.236   8.923 -0.8695 -1.1885 -1.8656
  150SAPE  C31716684  -0.247   2.225   8.765 -0.3995  0.2270  0.1718
  150SAPE  H17X16685  -0.237   2.114   8.759 -0.1197  0.2062  0.9412
  150SAPE  H17Y16686  -0.145   2.268   8.752  1.1730 -3.4981 -0.5298
  150SAPE  C31816687  -0.328   2.270   8.648  1.1918 -0.1959  0.0017
  150SAPE  H18X16688  -0.271   2.253   8.554  1.0476  2.4093 -0.6151
  150SAPE  H18Y16689  -0.341   2.380   8.662  2.0170 -0.5670  4.3109
  150SAPE  H18Z16690  -0.426   2.218   8.650  1.1038 -0.0095  0.7043
  151SAPE     N16691   3.704   6.056  10.603  0.4895 -0.5370 -0.2277
  151SAPE   HN116692   3.617   6.071  10.657  1.0923 -1.8838  1.1302
  151SAPE   HN216693   3.734   6.152  10.574 -0.9163 -0.3902 -1.2474
  151SAPE   HN316694   3.689   6.004  10.514 -0.3555 -0.1062 -0.3480
  151SAPE   C1216695   3.823   6.005  10.678  0.5263 -0.0393  0.2907
  151SAPE  H12A16696   3.793   5.911  10.729  2.0056 -1.4375 -1.3441
  151SAPE  H12B16697   3.828   6.072  10.766  0.1736  0.0769  0.2282
  151SAPE   C1116698   3.954   5.975  10.600  0.9953 -0.1257 -0.1031
  151SAPE  H11A16699   4.021   5.937  10.680 -0.7786  1.2123  2.0736
  151SAPE  H11B16700   3.988   6.072  10.557  1.3658 -0.3263 -0.2712
  151SAPE     P16701   4.021   5.772  10.457 -0.1551  0.2585 -0.5095
  151SAPE   O1316702   4.158   5.830  10.472 -0.0373  0.1723 -0.0787
  151SAPE   O1416703   4.001   5.645  10.532  0.4152  0.0920 -0.1888
  151SAPE   O1216704   3.912   5.876  10.506 -0.2206  0.1756  0.2815
  151SAPE   O1116705   3.995   5.760  10.298  0.4382 -0.8303 -0.1152
  151SAPE    C116706   3.966   5.886  10.243  0.0048  0.1032  0.2072
  151SAPE    HA16707   3.869   5.928  10.279  1.3799  0.8671  3.1455
  151SAPE    HB16708   4.044   5.962  10.263  1.3875 -1.5655  1.2934
  151SAPE    C216709   3.964   5.884  10.090  0.2290  0.2839  0.3511
  151SAPE    HS16710   3.900   5.968  10.056  1.1584 -0.2429 -2.9340
  151SAPE   O2116711   3.906   5.765  10.041  0.0447 -0.1975  0.0273
  151SAPE   C2116712   3.773   5.754  10.035 -0.8635 -0.6941 -1.2049
  151SAPE   O2216713   3.695   5.834  10.081  0.6732  0.3387  0.1771
  151SAPE   C2216714   3.738   5.628   9.964  0.7501 -0.3850 -0.5648
  151SAPE   H2R16715   3.799   5.553  10.019 -1.8110 -1.1591  1.3604
  151SAPE   H2S16716   3.632   5.611   9.994  0.8966  1.1518  0.9120
  151SAPE    C316717   4.104   5.896  10.025 -0.9547 -0.3762  0.1645
  151SAPE    HX16718   4.170   5.814  10.061  0.0396 -0.4182 -1.6901
  151SAPE    HY16719   4.145   5.993  10.058 -0.9227  0.4964 -2.3570
  151SAPE   O3116720   4.104   5.891   9.884  0.5038 -0.4907  0.5476
  151SAPE   C3116721   4.082   6.002   9.806 -0.2734 -0.5194 -0.0653
  151SAPE   O3216722   4.073   6.118   9.846 -0.3167  0.2023 -0.8793
  151SAPE   C3216723   4.064   5.956   9.667  0.0355 -0.4399  0.1663
  151SAPE   H2X16724   3.953   5.950   9.657  0.0869 -1.0401 -0.0596
  151SAPE   H2Y16725   4.102   5.852   9.656 -0.6207 -0.6194 -0.4424
  151SAPE   C2316726   3.768   5.624   9.815 -0.7314 -0.4559  0.1131
  151SAPE   H3R16727   3.746   5.519   9.787 -0.5888 -0.5668  0.4144
  151SAPE   H3S16728   3.875   5.649   9.802 -1.2073  0.7916 -1.5748
  151SAPE   C2416729   3.682   5.722   9.733 -0.0829 -0.5842 -0.2415
  151SAPE   H4R16730   3.672   5.811   9.798 -0.8788  0.7592 -2.1777
  151SAPE   H4S16731   3.583   5.671   9.736 -0.0437 -0.6409  0.1142
  151SAPE   C2516732   3.719   5.761   9.597 -0.1701 -1.1059  0.4137
  151SAPE   H5R16733   3.825   5.782   9.575 -0.8506  0.8764 -1.0940
  151SAPE   C2616734   3.633   5.788   9.497 -0.1564 -0.6766  0.2230
  151SAPE   H6R16735   3.675   5.811   9.398  1.2787 -0.5747  0.8412
  151SAPE   C2716736   3.482   5.796   9.503 -0.5511  0.2017 -0.2075
  151SAPE   H7R16737   3.449   5.778   9.608  0.5337  1.2167  0.3263
  151SAPE   H7S16738   3.445   5.711   9.443  1.1114  0.8519 -2.2030
  151SAPE   C2816739   3.443   5.929   9.448  0.6782  0.0482 -0.7107
  151SAPE   H8R16740   3.397   5.994   9.525  3.6203  1.2558  0.0805
  151SAPE   C2916741   3.414   5.950   9.317 -0.4139 -0.1812 -0.3241
  151SAPE   H9R16742   3.366   6.044   9.286 -1.7807  0.2955  3.0079
  151SAPE  C21016743   3.428   5.854   9.200  0.5469  0.7128 -0.6818
  151SAPE  H10R16744   3.522   5.794   9.207  0.5048  0.4895 -1.9560
  151SAPE  H10S16745   3.417   5.912   9.106 -4.4138  1.2007  0.0904
  151SAPE  C21116746   3.308   5.761   9.197  0.2213  0.2194  0.1381
  151SAPE  H11R16747   3.324   5.658   9.232  1.3284  1.6758  4.2019
  151SAPE  C21216748   3.181   5.791   9.186  0.7275  0.2892  0.3644
  151SAPE  H12R16749   3.106   5.712   9.179 -0.4575  1.3842  0.5262
  151SAPE  C21316750   3.123   5.931   9.160 -0.5918 -0.3543  0.2112
  151SAPE  H13R16751   3.088   5.932   9.055  2.9692  1.4848 -1.0324
  151SAPE  H13S16752   3.203   6.009   9.163 -1.0979  0.1340  2.4316
  151SAPE  C21416753   3.013   5.968   9.248  0.2550  0.3275  0.7403
  151SAPE  H14R16754   3.025   5.941   9.354 -1.7182  0.2611  0.9593
  151SAPE  C21516755   2.895   6.018   9.208  1.0038  0.5470  0.1554
  151SAPE  H15R16756   2.812   6.026   9.280  1.7209  0.0135  1.0523
  151SAPE  C21616757   2.859   6.067   9.065  0.0928 -0.2964  0.3015
  151SAPE  H16R16758   2.950   6.091   9.007  0.8615 -1.0797  1.1653
  151SAPE  H16S16759   2.812   6.165   9.089  0.4709  0.5855 -2.4552
  151SAPE  C21716760   2.766   5.982   8.973  0.0084 -0.4580  0.6346
  151SAPE  H17R16761   2.670   5.957   9.023  0.4113 -1.5367  0.8742
  151SAPE  H17S16762   2.810   5.887   8.937  0.0712  0.9522 -3.2706
  151SAPE  C21816763   2.728   6.062   8.845 -0.2383 -0.2939 -0.2197
  151SAPE  H18R16764   2.823   6.100   8.801 -0.3268 -1.9063 -1.8756
  151SAPE  H18S16765   2.670   6.154   8.868 -0.7846 -0.4924 -0.7876
  151SAPE  C21916766   2.654   5.977   8.743 -0.7922  0.6694 -0.6206
  151SAPE  H19R16767   2.686   5.874   8.768  1.5505  1.4020 -0.5025
  151SAPE  H19S16768   2.675   6.007   8.638  1.3614  2.2569  0.2369
  151SAPE  C22016769   2.499   5.994   8.767 -0.4522  0.1915 -0.4334
  151SAPE  H20R16770   2.472   6.099   8.740 -0.7467  0.3617  0.5008
  151SAPE  H20S16771   2.459   5.968   8.868  0.7210  0.8886  0.2156
  151SAPE  H20T16772   2.440   5.920   8.709 -3.4486 -0.6541  3.4244
  151SAPE   C3316773   4.125   6.039   9.555  0.1719 -0.3362 -0.1239
  151SAPE   H3X16774   4.236   6.032   9.548  0.0674 -0.4762 -1.8782
  151SAPE   H3Y16775   4.090   6.144   9.569 -0.1675 -0.6968  1.7741
  151SAPE   C3416776   4.083   5.980   9.415 -0.1192  0.4242  0.6472
  151SAPE   H4X16777   3.973   5.963   9.424 -0.2091  1.1506  0.9304
  151SAPE   H4Y16778   4.140   5.886   9.403  0.2819  0.7486 -0.0337
  151SAPE   C3516779   4.117   6.080   9.314  0.4086  0.0026  0.0891
  151SAPE   H5X16780   4.224   6.108   9.326 -0.4873  4.1397 -0.8143
  151SAPE   H5Y16781   4.060   6.168   9.351 -2.2692 -1.7229  0.1582
  151SAPE   C3616782   4.093   6.048   9.170 -0.1826  0.0775 -0.1129
  151SAPE   H6X16783   4.141   5.951   9.150 -3.5754 -2.4479  3.1753
  151SAPE   H6Y16784   4.142   6.128   9.111  0.5334 -0.3571 -0.1044
  151SAPE   C3716785   3.943   6.021   9.149  0.4783 -0.0583  1.4476
  151SAPE   H7X16786   3.891   6.094   9.214  0.2897  0.5968  0.5627
  151SAPE   H7Y16787   3.906   5.921   9.180 -3.1624  1.4887  2.2976
  151SAPE   C3816788   3.903   6.028   9.002 -0.1039  0.4207 -0.0232
  151SAPE   H8X16789   3.965   5.966   8.934  0.6705 -1.2220  2.1283
  151SAPE   H8Y16790   3.927   6.133   8.975  0.2006  0.3074 -0.1949
  151SAPE   C3916791   3.747   6.013   8.992 -0.5632 -0.2716  0.8065
  151SAPE   H9X16792   3.710   6.109   9.034  1.9798  0.7128  0.9083
  151SAPE   H9Y16793   3.711   5.932   9.058  2.2109 -0.1429  2.5473
  151SAPE  C31016794   3.691   5.987   8.851  0.8042  0.5277 -0.1285
  151SAPE  H10X16795   3.751   5.903   8.810 -0.8651 -1.3687  1.1946
  151SAPE  H10Y16796   3.720   6.068   8.780  0.2656  0.9401  0.1212
  151SAPE  C31116797   3.533   5.971   8.845 -1.0656  0.0651  0.0938
  151SAPE  H11X16798   3.490   5.884   8.900  0.5229 -1.6141 -1.2641
  151SAPE  H11Y16799   3.506   5.953   8.739  0.0012  0.0492 -0.1807
  151SAPE  C31216800   3.450   6.088   8.897 -0.3298 -0.8437  0.8919
  151SAPE  H12X16801   3.489   6.178   8.845 -2.6128 -0.8376 -0.8989
  151SAPE  H12Y16802   3.468   6.101   9.006 -0.4272 -3.2840  1.2289
  151SAPE  C31316803   3.302   6.068   8.864 -0.0611 -0.3525  0.1418
  151SAPE  H13X16804   3.241   6.136   8.928 -2.3615 -2.0805 -0.1638
  151SAPE  H13Y16805   3.271   5.966   8.896 -0.8935  0.9437  3.6910
  151SAPE  C31416806   3.256   6.084   8.719 -0.7531 -0.1223 -0.6037
  151SAPE  H14X16807   3.308   6.023   8.642 -1.5293 -1.6180  0.0328
  151SAPE  H14Y16808   3.270   6.192   8.695  2.3486 -0.7850 -1.9318
  151SAPE  C31516809   3.105   6.053   8.702  0.1267 -0.4246 -0.0058
  151SAPE  H15X16810   3.059   6.137   8.758 -0.3883  0.7437 -2.1063
  151SAPE  H15Y16811   3.072   5.957   8.745 -3.0791  1.4642  1.9244
  151SAPE  C31616812   3.057   6.061   8.551  0.1843 -0.0318 -0.1427
  151SAPE  H16X16813   3.110   6.150   8.511  2.5456 -0.3589  2.1123
  151SAPE  H16Y16814   2.950   6.086   8.565  0.3475  0.3698  0.4027
  151SAPE  C31716815   3.074   5.933   8.472  0.0943 -0.1336  0.8400
  151SAPE  H17X16816   3.022   5.846   8.518 -1.1805  0.7883  1.1710
  151SAPE  H17Y16817   3.183   5.914   8.460 -0.0273  1.1875 -2.9788
  151SAPE  C31816818   3.018   5.953   8.326  0.6725  0.2054 -0.5915
  151SAPE  H18X16819   2.933   5.882   8.311  0.0671  0.7113  0.3755
  151SAPE  H18Y16820   3.088   5.937   8.242 -0.6765  1.4397 -1.9783
  151SAPE  H18Z16821   2.977   6.056   8.318  0.7438  0.0944 -2.4802
  152SAPE     N16822   5.231   6.018  10.462 -0.1474  0.0547  1.0369
  152SAPE   HN116823   5.176   5.942  10.418  1.9207  0.0727 -1.7228
  152SAPE   HN216824   5.165   6.090  10.499  0.9672  1.8363 -0.3519
  152SAPE   HN316825   5.297   6.059  10.392 -1.0881  0.4096  0.3493
  152SAPE   C1216826   5.311   5.969  10.578  0.1184 -0.3303  0.1663
  152SAPE  H12A16827   5.254   5.973  10.673  0.2082 -0.8233  0.2437
  152SAPE  H12B16828   5.390   6.045  10.593  0.5866 -0.5969 -0.8973
  152SAPE   C1116829   5.356   5.823  10.541  0.3115 -0.1984 -0.5402
  152SAPE  H11A16830   5.422   5.795  10.626  0.9636 -1.2449 -1.3799
  152SAPE  H11B16831   5.423   5.819  10.453 -0.2869 -0.3951 -0.9938
  152SAPE     P16832   5.243   5.580  10.554  0.3389 -0.2363  0.3588
  152SAPE   O1316833   5.325   5.564  10.679  0.1510 -0.4727 -0.1137
  152SAPE   O1416834   5.105   5.528  10.538 -0.2428 -0.2384 -0.6413
  152SAPE   O1216835   5.238   5.737  10.525 -0.5630 -0.1959  0.2384
  152SAPE   O1116836   5.333   5.531  10.441 -0.2271 -0.0535  0.9198
  152SAPE    C116837   5.304   5.562  10.305  0.4607 -0.4504 -0.1135
  152SAPE    HA16838   5.225   5.493  10.268  0.5622 -0.3297 -0.5674
  152SAPE    HB16839   5.259   5.662  10.286  0.8411 -0.6794 -2.3880
  152SAPE    C216840   5.438   5.552  10.222 -0.6990  0.7486  0.6168
  152SAPE    HS16841   5.510   5.484  10.274 -2.7510 -2.0538 -0.0545
  152SAPE   O2116842   5.501   5.680  10.205 -0.2754 -0.3280 -0.3474
  152SAPE   C2116843   5.636   5.688  10.198  0.6234  1.2383 -0.1994
  152SAPE   O2216844   5.709   5.593  10.212 -0.1566  0.7271 -0.2038
  152SAPE   C2216845   5.681   5.826  10.154  0.0436 -0.3315 -0.1346
  152SAPE   H2R16846   5.656   5.902  10.231  2.5802  0.0027  0.3782
  152SAPE   H2S16847   5.791   5.827  10.160 -0.0023  0.0473  0.7321
  152SAPE    C316848   5.410   5.483  10.085 -0.2786  0.2939  0.0473
  152SAPE    HX16849   5.350   5.553  10.024 -2.2139 -0.0857  1.4377
  152SAPE    HY16850   5.343   5.395  10.101 -3.5322  2.9423  1.5564
  152SAPE   O3116851   5.525   5.452  10.017 -0.3705  0.0918  0.0575
  152SAPE   C3116852   5.608   5.358  10.072  0.6069  0.2374  0.0847
  152SAPE   O3216853   5.578   5.290  10.167  0.1136  0.1764 -0.2500
  152SAPE   C3216854   5.725   5.348   9.979  0.3436  0.7347  0.1457
  152SAPE   H2X16855   5.739   5.238   9.973  3.1476  0.9451  1.9732
  152SAPE   H2Y16856   5.818   5.396  10.017  2.0325 -2.4212  0.1300
  152SAPE   C2316857   5.638   5.868  10.012 -0.6575  0.2979  1.0000
  152SAPE   H3R16858   5.527   5.864  10.007 -0.6298  0.4134  0.2059
  152SAPE   H3S16859   5.676   5.786   9.946 -0.9377  0.6666  0.3763
  152SAPE   C2416860   5.698   5.998   9.972 -0.1972  0.1304  0.3276
  152SAPE   H4R16861   5.683   6.076  10.050  0.4042  0.6760 -0.0988
  152SAPE   H4S16862   5.655   6.034   9.876  0.7052 -0.7680 -0.4215
  152SAPE   C2516863   5.845   5.988   9.952 -0.5061  0.7295 -0.4448
  152SAPE   H5R16864   5.897   5.961  10.045  0.0608  1.9698 -0.3837
  152SAPE   C2616865   5.915   6.010   9.838  0.1109  0.1081 -0.2186
  152SAPE   H6R16866   6.024   6.024   9.845  0.3922 -2.6569  1.3019
  152SAPE   C2716867   5.850   6.048   9.702 -0.6869  0.0709 -0.3778
  152SAPE   H7R16868   5.934   6.080   9.637  0.3304  0.0122  0.8803
  152SAPE   H7S16869   5.779   6.132   9.711  0.5293  1.2299 -1.4194
  152SAPE   C2816870   5.770   5.943   9.635  0.2111  0.3735  0.0913
  152SAPE   H8R16871   5.691   5.898   9.696  0.9350 -0.7798  0.1952
  152SAPE   C2916872   5.789   5.901   9.509 -0.4748 -0.0970  0.5621
  152SAPE   H9R16873   5.730   5.820   9.463  0.1310 -0.8376  1.0853
  152SAPE  C21016874   5.895   5.949   9.410  0.5338  0.4519 -0.3574
  152SAPE  H10R16875   5.918   5.861   9.348 -0.7774 -0.0657 -0.1397
  152SAPE  H10S16876   5.978   5.996   9.467 -0.4643 -1.6843  3.0274
  152SAPE  C21116877   5.838   6.064   9.329 -0.1863 -1.0346 -0.4497
  152SAPE  H11R16878   5.767   6.130   9.381  1.3439  0.6008 -0.3829
  152SAPE  C21216879   5.872   6.108   9.201  0.3103 -0.8742 -0.2558
  152SAPE  H12R16880   5.823   6.199   9.162 -0.1906 -0.2866  1.6372
  152SAPE  C21316881   5.962   6.029   9.114 -0.7020  0.5107 -0.3886
  152SAPE  H13R16882   5.906   5.933   9.111 -0.2829  0.2813 -0.8803
  152SAPE  H13S16883   6.052   5.993   9.169 -0.8550 -1.2313 -1.2610
  152SAPE  C21416884   5.977   6.092   8.977 -0.7446 -0.6714 -0.3293
  152SAPE  H14R16885   6.070   6.151   8.970 -1.1715 -0.0025 -0.3883
  152SAPE  C21516886   5.892   6.109   8.872 -0.1067  0.9626 -0.3162
  152SAPE  H15R16887   5.927   6.155   8.779  2.3403  0.5408  0.3479
  152SAPE  C21616888   5.751   6.064   8.873  0.5920  0.4109  0.3942
  152SAPE  H16R16889   5.677   6.146   8.864 -1.2522 -1.4395 -1.8179
  152SAPE  H16S16890   5.736   6.011   8.969 -0.0809  1.2790  0.7758
  152SAPE  C21716891   5.721   5.971   8.754 -0.2377 -0.7565 -0.6013
  152SAPE  H17R16892   5.734   6.022   8.656  2.9316 -0.5876 -0.1551
  152SAPE  H17S16893   5.611   5.959   8.767 -0.5780 -1.1881 -3.5085
  152SAPE  C21816894   5.781   5.832   8.756  0.3521  0.0409 -0.4150
  152SAPE  H18R16895   5.707   5.765   8.706  0.8694 -0.1400 -0.9437
  152SAPE  H18S16896   5.805   5.791   8.857 -0.7911  0.8460  0.1981
  152SAPE  C21916897   5.904   5.821   8.666  0.2103  0.5901 -0.2663
  152SAPE  H19R16898   5.932   5.714   8.675  1.0407  0.5209 -2.9386
  152SAPE  H19S16899   5.998   5.872   8.696  1.3240 -1.0731 -0.8474
  152SAPE  C22016900   5.888   5.855   8.514 -0.2014 -0.2857 -0.0654
  152SAPE  H20R16901   5.799   5.797   8.481 -0.2705  0.6516 -1.5490
  152SAPE  H20S16902   5.972   5.814   8.454 -0.2097  1.3130 -1.1909
  152SAPE  H20T16903   5.870   5.963   8.498  0.7467 -0.1150  0.0015
  152SAPE   C3316904   5.715   5.387   9.830  0.1186  0.8227  0.3531
  152SAPE   H3X16905   5.715   5.498   9.826 -0.1941  0.8844  1.6902
  152SAPE   H3Y16906   5.611   5.373   9.796  0.0901  1.6898  0.0738
  152SAPE   C3416907   5.822   5.328   9.730 -0.3550 -0.7910 -0.0311
  152SAPE   H4X16908   5.817   5.217   9.735 -1.9871 -0.6413  2.9568
  152SAPE   H4Y16909   5.918   5.360   9.775 -0.1135 -2.6069  0.7834
  152SAPE   C3516910   5.813   5.370   9.580 -0.2135 -0.0054 -0.1623
  152SAPE   H5X16911   5.813   5.481   9.567 -2.7409  0.1490  0.9393
  152SAPE   H5Y16912   5.710   5.338   9.552 -0.7043  0.2588  1.3022
  152SAPE   C3616913   5.933   5.312   9.504  0.6889  0.1684  0.2127
  152SAPE   H6X16914   5.940   5.201   9.512  0.3232  0.0501 -0.9029
  152SAPE   H6Y16915   6.023   5.367   9.537  0.7920 -0.6656  1.3371
  152SAPE   C3716916   5.916   5.329   9.352  0.3095  0.2726  0.4918
  152SAPE   H7X16917   6.018   5.317   9.309  0.8250 -0.7099  1.9461
  152SAPE   H7Y16918   5.880   5.432   9.333 -1.6175 -0.0745  2.1234
  152SAPE   C3816919   5.828   5.225   9.281 -0.7751 -0.0247  0.6241
  152SAPE   H8X16920   5.720   5.230   9.307 -1.2230 -0.7337 -1.0517
  152SAPE   H8Y16921   5.856   5.123   9.315  0.9851  0.8693  1.9396
  152SAPE   C3916922   5.847   5.223   9.129 -0.6870 -0.2374  0.4109
  152SAPE   H9X16923   5.826   5.119   9.093  0.3814 -0.8055  1.4031
  152SAPE   H9Y16924   5.953   5.249   9.107  0.2638  0.2684  5.1348
  152SAPE  C31016925   5.761   5.322   9.042  0.1053 -0.2908  0.1622
  152SAPE  H10X16926   5.806   5.421   9.065  0.6080 -0.7499  1.1985
  152SAPE  H10Y16927   5.654   5.320   9.073  0.0551 -2.3358 -0.0311
  152SAPE  C31116928   5.777   5.309   8.887 -0.1458  0.1168 -0.0569
  152SAPE  H11X16929   5.879   5.344   8.860 -0.0585  0.2355  0.4165
  152SAPE  H11Y16930   5.704   5.384   8.849 -1.1003 -0.6715  0.2012
  152SAPE  C31216931   5.727   5.175   8.824 -0.6562 -0.3903  0.0349
  152SAPE  H12X16932   5.627   5.140   8.857 -0.6305  2.5320  3.4375
  152SAPE  H12Y16933   5.801   5.095   8.845  1.3185  1.5256  0.5322
  152SAPE  C31316934   5.728   5.184   8.667  0.6659 -0.1544  0.3863
  152SAPE  H13X16935   5.829   5.188   8.620  0.4395  0.1753 -0.0814
  152SAPE  H13Y16936   5.663   5.266   8.629 -1.2003 -0.8736  1.9272
  152SAPE  C31416937   5.669   5.054   8.607  0.3728 -0.6068 -0.2344
  152SAPE  H14X16938   5.571   5.048   8.658  0.5006  1.4280  0.2960
  152SAPE  H14Y16939   5.735   4.969   8.638 -0.2007 -1.0425 -0.2048
  152SAPE  C31516940   5.674   5.056   8.455 -0.3462 -0.4300 -0.2742
  152SAPE  H15X16941   5.776   5.053   8.411 -0.4636 -0.0716 -0.5745
  152SAPE  H15Y16942   5.616   5.145   8.419  0.9516  0.2544 -0.6992
  152SAPE  C31616943   5.605   4.934   8.396  0.1436  0.2836 -0.0127
  152SAPE  H16X16944   5.523   4.904   8.464  0.1296 -2.0181 -1.0109
  152SAPE  H16Y16945   5.683   4.856   8.407 -0.0980  0.2693  1.8503
  152SAPE  C31716946   5.580   4.947   8.245  0.0869  0.2763 -0.1436
  152SAPE  H17X16947   5.675   4.979   8.197 -0.2533  2.9131  0.8931
  152SAPE  H17Y16948   5.513   5.032   8.223 -2.9770 -2.1916 -0.6697
  152SAPE  C31816949   5.528   4.823   8.194  0.2569  0.2216  0.2021
  152SAPE  H18X16950   5.425   4.799   8.228 -0.1603  0.8141 -0.6277
  152SAPE  H18Y16951   5.595   4.739   8.222  0.2355  0.5901  1.3818
  152SAPE  H18Z16952   5.515   4.838   8.085 -0.3270  0.3992  0.2947
  153SAPE     N16953   5.100   0.339  10.472 -0.5351  0.0744 -0.1779
  153SAPE   HN116954   5.123   0.418  10.408  1.5013  1.8950  2.6957
  153SAPE   HN216955   5.114   0.255  10.413  1.4621  0.2395  0.0285
  153SAPE   HN316956   4.998   0.337  10.491 -0.5331 -2.1731 -0.2570
  153SAPE   C1216957   5.189   0.339  10.588  0.2272 -0.1614 -0.1580
  153SAPE  H12A16958   5.160   0.254  10.654  0.0989  0.1948  0.2456
  153SAPE  H12B16959   5.198   0.435  10.643 -0.6437 -0.3897  0.3889
  153SAPE   C1116960   5.339   0.316  10.546 -0.0092 -0.3819  0.1431
  153SAPE  H11A16961   5.412   0.322  10.630  1.2779  1.3475 -1.0825
  153SAPE  H11B16962   5.370   0.409  10.494 -1.2311  0.2004  0.4595
  153SAPE     P16963   5.384   0.070  10.538 -0.3721 -0.0669  0.2093
  153SAPE   O1316964   5.510   0.082  10.613  0.5153  0.0887 -0.4992
  153SAPE   O1416965   5.269   0.032  10.619 -0.2262 -0.4093 -0.0714
  153SAPE   O1216966   5.356   0.203  10.461 -0.1050  0.4220  0.4225
  153SAPE   O1116967   5.407  -0.040  10.424 -0.4200 -0.3086 -0.0792
  153SAPE    C116968   5.520  -0.030  10.337 -0.0284 -0.1894 -1.3231
  153SAPE    HA16969   5.604   0.034  10.371  1.7383 -2.7476 -0.7118
  153SAPE    HB16970   5.574  -0.127  10.336  0.5965  0.1321 -0.0718
  153SAPE    C216971   5.481   0.020  10.192 -0.0138 -0.5961 -0.5991
  153SAPE    HS16972   5.582   0.030  10.146  0.4829 -0.0766  0.5739
  153SAPE   O2116973   5.399   0.142  10.194 -0.3405  0.5368 -0.0326
  153SAPE   C2116974   5.459   0.256  10.199  0.2463 -0.1999 -0.3152
  153SAPE   O2216975   5.576   0.277  10.222  0.3257  0.1591 -0.1745
  153SAPE   C2216976   5.357   0.362  10.158  0.4986 -0.1521 -0.3513
  153SAPE   H2R16977   5.273   0.370  10.231 -0.9216  1.7215 -2.1277
  153SAPE   H2S16978   5.406   0.461  10.168 -1.0257  0.8221 -2.1081
  153SAPE    C316979   5.411  -0.095  10.116 -0.2139  0.3137 -0.7705
  153SAPE    HX16980   5.327  -0.127  10.182  1.5289 -1.2463  0.7300
  153SAPE    HY16981   5.491  -0.172  10.117 -0.6672 -0.2163 -2.4816
  153SAPE   O3116982   5.368  -0.056   9.980  0.4506 -0.1398  0.4544
  153SAPE   C3116983   5.243  -0.027   9.958 -0.1430 -0.5820 -0.4599
  153SAPE   O3216984   5.150  -0.012  10.034  0.1251  0.7448 -0.2359
  153SAPE   C3216985   5.227   0.010   9.811 -0.1797  0.0990 -0.2506
  153SAPE   H2X16986   5.292   0.098   9.790  0.9024 -1.0502 -1.8942
  153SAPE   H2Y16987   5.120   0.036   9.795 -0.6029 -1.2180  0.3517
  153SAPE   C2316988   5.297   0.349  10.016 -0.0052 -0.1881  0.4913
  153SAPE   H3R16989   5.223   0.430   9.999  0.0085 -0.6776 -1.9752
  153SAPE   H3S16990   5.248   0.250  10.009 -0.4206 -0.2506  3.3942
  153SAPE   C2416991   5.400   0.382   9.903  0.0952  0.4381  0.1969
  153SAPE   H4R16992   5.435   0.485   9.923  0.1292  0.4743 -0.0476
  153SAPE   H4S16993   5.335   0.397   9.814 -1.3012 -2.2033  0.7234
  153SAPE   C2516994   5.515   0.292   9.880 -0.3071 -0.1210  0.7132
  153SAPE   H5R16995   5.545   0.232   9.967 -0.1538 -0.0024  0.7415
  153SAPE   C2616996   5.590   0.274   9.769  0.7738  0.3960  0.0119
  153SAPE   H6R16997   5.680   0.212   9.783 -1.2880 -3.3132 -2.0921
  153SAPE   C2716998   5.575   0.341   9.639  0.6525  0.2144 -0.4603
  153SAPE   H7R16999   5.600   0.449   9.641  0.3956  0.2837 -0.9808
  153SAPE   H7S17000   5.467   0.345   9.612  0.3520  1.1223  0.8547
  153SAPE   C2817001   5.664   0.281   9.535  0.1095  0.1920 -0.5637
  153SAPE   H8R17002   5.691   0.177   9.556 -0.2079  0.5388  1.8151
  153SAPE   C2917003   5.691   0.330   9.415 -0.4031  0.3735  0.2339
  153SAPE   H9R17004   5.759   0.271   9.351  0.0621 -0.7428  1.7250
  153SAPE  C21017005   5.640   0.465   9.364  0.4121 -0.7143 -0.4510
  153SAPE  H10R17006   5.728   0.519   9.324 -0.7843  0.6724 -1.2648
  153SAPE  H10S17007   5.601   0.537   9.439  0.1933 -1.2296 -0.0681
  153SAPE  C21117008   5.546   0.458   9.252 -0.0979  0.1299  0.7126
  153SAPE  H11R17009   5.439   0.461   9.277 -0.3297 -0.5197 -0.1451
  153SAPE  C21217010   5.581   0.443   9.122 -1.0078 -0.0994 -0.2754
  153SAPE  H12R17011   5.503   0.434   9.045  0.3238  3.0062 -2.0938
  153SAPE  C21317012   5.721   0.442   9.056  0.0310 -0.0811 -0.2947
  153SAPE  H13R17013   5.795   0.455   9.138 -2.3537  0.8042  1.7501
  153SAPE  H13S17014   5.737   0.526   8.986  2.7539 -0.1528  0.1669
  153SAPE  C21417015   5.737   0.313   8.977 -0.0536  0.2496 -0.1197
  153SAPE  H14R17016   5.716   0.219   9.030 -0.1287  0.4313  0.1736
  153SAPE  C21517017   5.775   0.299   8.848  0.5097 -0.0243 -0.2469
  153SAPE  H15R17018   5.763   0.204   8.795  0.8899  1.3315 -2.8298
  153SAPE  C21617019   5.803   0.410   8.750 -0.5089  0.7968 -0.4171
  153SAPE  H16R17020   5.904   0.450   8.768 -0.2799  0.2962 -0.5640
  153SAPE  H16S17021   5.739   0.499   8.766 -1.5488 -0.3564  2.2302
  153SAPE  C21717022   5.775   0.372   8.599  1.0268 -0.4428  0.3263
  153SAPE  H17R17023   5.837   0.283   8.573  0.5688 -0.1076 -2.0622
  153SAPE  H17S17024   5.808   0.457   8.535  0.3773 -0.0449  0.5170
  153SAPE  C21817025   5.627   0.347   8.558 -0.6306 -0.5685 -0.5207
  153SAPE  H18R17026   5.599   0.246   8.596 -2.7071  0.4473  0.7807
  153SAPE  H18S17027   5.613   0.348   8.448  1.9140 -0.0555 -0.8765
  153SAPE  C21917028   5.518   0.444   8.623  0.3700  1.2140  0.2604
  153SAPE  H19R17029   5.565   0.543   8.643  1.7865 -0.0857  3.8932
  153SAPE  H19S17030   5.495   0.405   8.724 -1.3358 -0.1768 -0.6510
  153SAPE  C22017031   5.395   0.462   8.536  0.4314  0.7192 -0.0125
  153SAPE  H20R17032   5.426   0.510   8.441 -1.1619  0.2392 -0.7836
  153SAPE  H20S17033   5.324   0.529   8.590 -0.8399 -1.0828  0.6244
  153SAPE  H20T17034   5.354   0.368   8.495 -2.3380  1.7334  0.3365
  153SAPE   C3317035   5.263  -0.105   9.708 -0.0829 -0.4722 -0.1733
  153SAPE   H3X17036   5.167  -0.154   9.679  0.3233  0.0268 -2.4855
  153SAPE   H3Y17037   5.330  -0.172   9.765  1.6050  3.0057  2.1349
  153SAPE   C3417038   5.326  -0.038   9.584 -0.9312  0.3322  0.4438
  153SAPE   H4X17039   5.388   0.051   9.607 -0.3429  0.4316 -1.4279
  153SAPE   H4Y17040   5.243   0.007   9.526 -0.2261  2.1195  0.7798
  153SAPE   C3517041   5.398  -0.125   9.480  0.8191 -0.0601 -0.2258
  153SAPE   H5X17042   5.324  -0.192   9.433 -1.3619  2.8480 -1.0895
  153SAPE   H5Y17043   5.479  -0.182   9.530  0.6080 -0.1212  0.0460
  153SAPE   C3617044   5.465  -0.045   9.362 -0.0306  0.7792  0.1413
  153SAPE   H6X17045   5.517  -0.116   9.294 -0.7977  0.6371 -0.3097
  153SAPE   H6Y17046   5.554   0.011   9.398 -0.0171  0.7262  0.1929
  153SAPE   C3717047   5.376   0.046   9.285 -0.3610  0.9895 -0.0934
  153SAPE   H7X17048   5.386   0.146   9.333 -0.5539  1.0811 -0.2471
  153SAPE   H7Y17049   5.271   0.016   9.303  0.2445 -0.1825  1.7670
  153SAPE   C3817050   5.410   0.070   9.138  0.9404  0.0579  0.1836
  153SAPE   H8X17051   5.375  -0.026   9.094 -0.0545 -0.5577  2.2101
  153SAPE   H8Y17052   5.520   0.079   9.135  0.9722 -0.0929  0.6828
  153SAPE   C3917053   5.322   0.186   9.083 -0.1386  0.1062 -0.5206
  153SAPE   H9X17054   5.354   0.270   9.149 -1.4006 -0.5693  0.9792
  153SAPE   H9Y17055   5.215   0.172   9.109 -0.7445 -0.7058 -3.3722
  153SAPE  C31017056   5.346   0.209   8.927  0.2839 -0.3455  0.0589
  153SAPE  H10X17057   5.453   0.185   8.908  0.5790 -0.1265  1.3748
  153SAPE  H10Y17058   5.312   0.313   8.912 -0.9873 -0.9877 -1.6793
  153SAPE  C31117059   5.256   0.115   8.842 -0.0197  0.4739 -0.3870
  153SAPE  H11X17060   5.153   0.107   8.883 -0.3871 -2.2515 -1.6897
  153SAPE  H11Y17061   5.284   0.007   8.840 -0.9534  0.2356 -2.7117
  153SAPE  C31217062   5.240   0.172   8.697  0.1056 -0.8080 -0.4435
  153SAPE  H12X17063   5.334   0.177   8.639  0.6931  1.1995  0.6077
  153SAPE  H12Y17064   5.213   0.279   8.710  1.6995 -0.5839  1.1172
  153SAPE  C31317065   5.120   0.097   8.640 -0.4750 -0.6721 -0.0160
  153SAPE  H13X17066   5.100   0.005   8.701  1.8072 -0.7302  0.7160
  153SAPE  H13Y17067   5.142   0.063   8.537 -2.2918  0.3499 -0.7353
  153SAPE  C31417068   4.996   0.185   8.625 -0.0406  0.0437 -0.2395
  153SAPE  H14X17069   5.014   0.262   8.547 -0.5530 -0.9518 -1.3644
  153SAPE  H14Y17070   4.987   0.221   8.730 -1.7564 -1.7893  0.2736
  153SAPE  C31517071   4.864   0.121   8.590 -0.3445 -0.3646 -0.2409
  153SAPE  H15X17072   4.784   0.199   8.590 -0.6388 -0.6406  1.0745
  153SAPE  H15Y17073   4.821   0.041   8.655 -0.1413  1.0650  1.6995
  153SAPE  C31617074   4.874   0.056   8.450 -0.6041  1.0014  0.0643
  153SAPE  H16X17075   4.911  -0.046   8.475 -0.4633  0.4034 -2.4600
  153SAPE  H16Y17076   4.951   0.095   8.380  0.7899 -0.2227  0.8854
  153SAPE  C31717077   4.740   0.051   8.376 -0.1438  0.4410  0.4790
  153SAPE  H17X17078   4.696   0.148   8.345  0.5386  0.7261  0.4052
  153SAPE  H17Y17079   4.670   0.010   8.452 -1.4032  0.3402 -0.7207
  153SAPE  C31817080   4.724  -0.043   8.252  0.8134  0.1130 -0.5283
  153SAPE  H18X17081   4.616  -0.059   8.231 -0.2610  2.0397  3.0946
  153SAPE  H18Y17082   4.771  -0.141   8.271  0.0261 -0.4374 -1.3776
  153SAPE  H18Z17083   4.768   0.009   8.164 -0.2166 -2.3081 -2.5453
  154SAPE     N17084   6.574   0.019  10.511 -0.8850  0.0543  0.2796
  154SAPE   HN117085   6.533  -0.076  10.527 -1.1649 -0.0061 -0.7515
  154SAPE   HN217086   6.615   0.014  10.416 -2.4694  0.3060 -0.4404
  154SAPE   HN317087   6.644   0.042  10.584 -1.0397  1.1128  0.1041
  154SAPE   C1217088   6.469   0.128  10.525  0.8676  0.5200 -0.3724
  154SAPE  H12A17089   6.519   0.225  10.504  4.0537 -0.9787 -0.0285
  154SAPE  H12B17090   6.436   0.137  10.631 -1.5316  0.5406 -1.1160
  154SAPE   C1117091   6.350   0.100  10.435 -0.0903 -0.6048 -0.0444
  154SAPE  H11A17092   6.403   0.087  10.338 -0.4323 -1.0981 -0.1649
  154SAPE  H11B17093   6.270   0.177  10.424 -0.3902 -1.1203 -1.6395
  154SAPE     P17094   6.174  -0.023  10.571 -0.0539  0.3807  0.1368
  154SAPE   O1317095   6.135  -0.160  10.608 -0.6716  0.1919 -0.7003
  154SAPE   O1417096   6.192   0.075  10.683  0.1400 -0.6134 -0.6381
  154SAPE   O1217097   6.299  -0.026  10.481  0.1474 -0.2956  0.3078
  154SAPE   O1117098   6.067   0.046  10.479  0.2309 -0.3819  0.0171
  154SAPE    C117099   5.981  -0.030  10.392  0.3389  0.5025 -0.0803
  154SAPE    HA17100   6.002  -0.139  10.395 -0.7835  0.2948  0.9880
  154SAPE    HB17101   5.874  -0.008  10.415 -0.2114  0.8169 -2.8191
  154SAPE    C217102   6.002   0.019  10.246  0.6896 -0.4453 -0.0709
  154SAPE    HS17103   5.939  -0.044  10.179 -0.1078  1.2293 -0.9330
  154SAPE   O2117104   6.138   0.018  10.205  0.0873  0.1342 -0.1124
  154SAPE   C2117105   6.178  -0.105  10.188  0.5631  0.9297 -0.5649
  154SAPE   O2217106   6.103  -0.204  10.185  0.4938  0.1204 -0.3645
  154SAPE   C2217107   6.325  -0.103  10.145 -0.5149  0.3614 -0.3231
  154SAPE   H2R17108   6.358   0.003  10.134  0.8808 -0.0628 -0.2023
  154SAPE   H2S17109   6.380  -0.153  10.227  0.3113  1.3722 -0.2426
  154SAPE    C317110   5.951   0.162  10.226 -0.2920  0.1870  0.9469
  154SAPE    HX17111   6.004   0.214  10.309  0.1346  0.2728  0.6255
  154SAPE    HY17112   5.844   0.165  10.255 -1.6895 -0.2683 -3.6876
  154SAPE   O3117113   5.980   0.223  10.099 -0.8994 -0.0711  0.4253
  154SAPE   C3117114   5.923   0.163   9.996 -0.4752 -0.6140 -0.1664
  154SAPE   O3217115   5.834   0.080   9.998  0.7439 -0.4356 -0.2439
  154SAPE   C3217116   5.983   0.219   9.862 -0.1165  0.0170  0.2332
  154SAPE   H2X17117   6.094   0.223   9.869  0.0059 -1.4470 -0.7592
  154SAPE   H2Y17118   5.947   0.324   9.851 -2.3043 -0.7015  0.4154
  154SAPE   C2317119   6.347  -0.176  10.013 -0.7470  0.6310 -0.3286
  154SAPE   H3R17120   6.306  -0.279  10.010  0.6050  0.0922 -0.8492
  154SAPE   H3S17121   6.457  -0.181   9.999 -0.8692 -1.6500 -0.7454
  154SAPE   C2417122   6.275  -0.101   9.901 -0.1648 -0.7572 -0.3685
  154SAPE   H4R17123   6.170  -0.088   9.933  0.4305  0.9127  1.0452
  154SAPE   H4S17124   6.271  -0.155   9.805  0.8775 -2.9303  0.7667
  154SAPE   C2517125   6.332   0.037   9.876  0.0202 -0.2671 -0.0875
  154SAPE   H5R17126   6.307   0.109   9.955 -0.6354 -0.6806  0.0905
  154SAPE   C2617127   6.402   0.075   9.766 -0.7535  0.1038 -0.5925
  154SAPE   H6R17128   6.425   0.182   9.752 -0.2824  0.2139  0.9349
  154SAPE   C2717129   6.435  -0.002   9.646 -0.4945  0.4934 -0.0020
  154SAPE   H7R17130   6.398   0.055   9.558 -0.3755  1.3200  0.4774
  154SAPE   H7S17131   6.379  -0.098   9.644 -4.4466  2.7112 -0.7851
  154SAPE   C2817132   6.587  -0.031   9.640  0.4330  0.5143  0.0781
  154SAPE   H8R17133   6.632  -0.049   9.739 -0.4266 -1.2249  0.1604
  154SAPE   C2917134   6.656  -0.039   9.528 -0.8073 -0.0090  0.6338
  154SAPE   H9R17135   6.765  -0.044   9.541 -0.8528 -2.0039  0.3340
  154SAPE  C21017136   6.596  -0.014   9.388 -0.3153  0.7404 -0.1872
  154SAPE  H10R17137   6.502  -0.072   9.380 -0.6244  1.0312  1.1220
  154SAPE  H10S17138   6.672  -0.064   9.325  0.2641  1.5857 -0.1752
  154SAPE  C21117139   6.572   0.130   9.345 -0.1245 -0.0912 -0.4175
  154SAPE  H11R17140   6.511   0.188   9.416 -0.2731  1.8216 -2.0752
  154SAPE  C21217141   6.620   0.184   9.227  0.5600 -0.7652 -0.6306
  154SAPE  H12R17142   6.601   0.289   9.203 -0.1600 -0.2226  2.0544
  154SAPE  C21317143   6.714   0.115   9.129  0.1815 -0.0801 -0.0341
  154SAPE  H13R17144   6.791   0.052   9.178  1.7700 -0.8075 -3.2677
  154SAPE  H13S17145   6.769   0.196   9.076 -2.1215  0.4591 -1.6807
  154SAPE  C21417146   6.639   0.025   9.034 -0.5373  1.1593 -0.1314
  154SAPE  H14R17147   6.621  -0.076   9.073  1.3005  1.6488  2.0595
  154SAPE  C21517148   6.588   0.071   8.913  0.1751  0.6304  0.6474
  154SAPE  H15R17149   6.534  -0.009   8.860  2.3690 -0.6174  0.2422
  154SAPE  C21617150   6.603   0.201   8.834  0.2293 -0.0579  0.4136
  154SAPE  H16R17151   6.627   0.271   8.917  1.8659 -0.8665  0.6338
  154SAPE  H16S17152   6.497   0.230   8.814  1.1457  4.3405  1.5354
  154SAPE  C21717153   6.687   0.200   8.712  0.3740 -0.4875  0.1018
  154SAPE  H17R17154   6.787   0.159   8.740  0.4566 -0.2411  0.1678
  154SAPE  H17S17155   6.711   0.305   8.686  0.8017 -0.8215 -0.8767
  154SAPE  C21817156   6.623   0.138   8.577 -0.1411 -0.5388  0.2792
  154SAPE  H18R17157   6.515   0.162   8.580  0.2253  1.5140 -1.5094
  154SAPE  H18S17158   6.643   0.029   8.569  2.2643 -0.0574 -0.6799
  154SAPE  C21917159   6.677   0.221   8.454 -0.0157 -0.0970 -0.7964
  154SAPE  H19R17160   6.786   0.199   8.442  0.3189  1.0298  0.0738
  154SAPE  H19S17161   6.670   0.330   8.469  0.5552 -0.2341  0.5653
  154SAPE  C22017162   6.609   0.181   8.323 -0.2878 -0.4246 -0.7167
  154SAPE  H20R17163   6.505   0.217   8.306  0.3804  1.5636 -0.7269
  154SAPE  H20S17164   6.593   0.071   8.316 -0.8582 -0.5015  1.4055
  154SAPE  H20T17165   6.665   0.221   8.235  1.6215  2.9402  1.8986
  154SAPE   C3317166   5.955   0.130   9.744 -0.3381  0.2415  0.2978
  154SAPE   H3X17167   5.845   0.127   9.728  0.0067 -0.9012 -2.0032
  154SAPE   H3Y17168   5.988   0.025   9.756 -2.2132 -0.3022  0.9718
  154SAPE   C3417169   6.031   0.169   9.616 -0.5972  0.2855 -0.0875
  154SAPE   H4X17170   6.137   0.183   9.644  0.4198 -2.1942 -2.5111
  154SAPE   H4Y17171   5.994   0.265   9.576 -0.4189  0.1256 -0.6433
  154SAPE   C3517172   6.004   0.060   9.508 -0.1443 -0.3024  0.0321
  154SAPE   H5X17173   5.898   0.027   9.518 -0.4955  0.5801 -0.7935
  154SAPE   H5Y17174   6.060  -0.035   9.521 -0.0305  0.0147  2.1430
  154SAPE   C3617175   6.020   0.124   9.371  0.3587 -0.2027 -0.1994
  154SAPE   H6X17176   5.961   0.216   9.348  1.7638  0.3677 -1.6750
  154SAPE   H6Y17177   5.980   0.046   9.303 -2.4575  1.3414 -0.4012
  154SAPE   C3717178   6.164   0.165   9.337  0.3614  0.1916  0.4171
  154SAPE   H7X17179   6.235   0.086   9.369 -0.2740 -0.1879  0.9197
  154SAPE   H7Y17180   6.190   0.251   9.402 -2.3174  0.5478  1.1116
  154SAPE   C3817181   6.178   0.210   9.192  0.6272  0.2488 -0.8008
  154SAPE   H8X17182   6.281   0.247   9.172  0.7943 -0.6314 -1.6456
  154SAPE   H8Y17183   6.103   0.289   9.170 -0.0891 -0.2413 -0.1476
  154SAPE   C3917184   6.148   0.113   9.076 -0.3716  0.0709  0.3912
  154SAPE   H9X17185   6.053   0.058   9.091 -0.1650 -0.5094 -0.3325
  154SAPE   H9Y17186   6.227   0.034   9.068 -0.2054  0.4523 -2.1728
  154SAPE  C31017187   6.138   0.190   8.948  0.0017 -0.2525  0.8728
  154SAPE  H10X17188   6.236   0.243   8.947  0.7415 -1.6161 -1.6963
  154SAPE  H10Y17189   6.052   0.259   8.962  0.7610  0.8713  0.1633
  154SAPE  C31117190   6.102   0.123   8.814 -0.3318 -0.2296  0.4914
  154SAPE  H11X17191   5.992   0.106   8.813 -0.3697  0.0205  0.0890
  154SAPE  H11Y17192   6.164   0.033   8.798 -0.2006 -0.3579  1.7473
  154SAPE  C31217193   6.123   0.222   8.697  0.4626  0.0928 -0.6569
  154SAPE  H12X17194   6.227   0.259   8.713 -0.0063  0.7425  0.9839
  154SAPE  H12Y17195   6.045   0.301   8.698 -1.2393 -1.5253  2.1488
  154SAPE  C31317196   6.121   0.152   8.560 -0.1358  0.0857 -0.8532
  154SAPE  H13X17197   6.023   0.099   8.555 -0.7735  1.2740 -1.3807
  154SAPE  H13Y17198   6.204   0.080   8.551 -0.9442 -0.7245 -1.9935
  154SAPE  C31417199   6.142   0.253   8.445  0.4786 -0.7869 -0.9564
  154SAPE  H14X17200   6.252   0.262   8.433  0.3845  0.9565 -0.6080
  154SAPE  H14Y17201   6.104   0.346   8.491  1.1508 -0.4133 -1.1460
  154SAPE  C31517202   6.067   0.207   8.316 -0.3672  0.5283 -0.2154
  154SAPE  H15X17203   6.086   0.287   8.241  1.9070 -0.6959 -0.9705
  154SAPE  H15Y17204   5.956   0.209   8.329 -0.4914 -0.1764 -1.1547
  154SAPE  C31617205   6.129   0.073   8.267  0.3894 -0.1032 -0.0698
  154SAPE  H16X17206   6.077  -0.010   8.319 -2.8786  0.1278 -2.7430
  154SAPE  H16Y17207   6.238   0.073   8.291 -0.0468  0.2539  2.0066
  154SAPE  C31717208   6.113   0.040   8.113  0.2720  0.4926 -0.4484
  154SAPE  H17X17209   6.158   0.114   8.044  1.8773  0.4716  0.5663
  154SAPE  H17Y17210   6.004   0.027   8.092  0.1545  1.6883 -0.6267
  154SAPE  C31817211   6.177  -0.101   8.081 -0.0718  0.2638  0.1663
  154SAPE  H18X17212   6.140  -0.183   8.146 -0.1543 -1.4871 -2.0328
  154SAPE  H18Y17213   6.286  -0.081   8.090  0.0969 -0.8819  0.7826
  154SAPE  H18Z17214   6.147  -0.124   7.977 -1.8737  0.4096  0.6478
  155SAPE     N17215   0.034   1.183  11.101  0.3024  0.0507  0.2159
  155SAPE   HN117216   0.062   1.242  11.020  0.3065 -1.8999 -1.2507
  155SAPE   HN217217  -0.025   1.241  11.163 -0.9458 -1.3496  0.3630
  155SAPE   HN317218   0.113   1.142  11.155  1.5080 -1.2982 -2.4284
  155SAPE   C1217219  -0.042   1.068  11.042 -0.2817  0.7478 -0.5252
  155SAPE  H12A17220  -0.144   1.110  11.028 -0.6832  0.5385  1.5491
  155SAPE  H12B17221  -0.044   0.982  11.113 -0.4945  1.6475  0.5721
  155SAPE   C1117222   0.024   1.012  10.911  0.1273  0.4001 -0.1569
  155SAPE  H11A17223   0.038   1.091  10.835  3.1112 -0.4551 -0.5414
  155SAPE  H11B17224  -0.046   0.931  10.881  0.2700  0.2354 -0.0431
  155SAPE     P17225   0.193   0.814  10.871  0.1287  0.4146 -0.1903
  155SAPE   O1317226   0.342   0.817  10.880  0.6123  1.0028 -0.3186
  155SAPE   O1417227   0.126   0.702  10.937 -1.0915  0.0025  0.0555
  155SAPE   O1217228   0.146   0.944  10.947  0.1271 -0.4743 -0.4595
  155SAPE   O1117229   0.143   0.837  10.720  0.4604  0.3256  0.2795
  155SAPE    C117230   0.209   0.941  10.642  0.3513  0.0556  0.2755
  155SAPE    HA17231   0.144   1.031  10.635  0.2266 -0.1674 -1.6123
  155SAPE    HB17232   0.306   0.971  10.688  0.4912  2.7436 -1.6333
  155SAPE    C217233   0.240   0.880  10.497 -0.2511 -0.3678 -0.0559
  155SAPE    HS17234   0.320   0.803  10.501  2.0159  2.0336  2.6733
  155SAPE   O2117235   0.288   0.990  10.408  0.4790  0.4405  0.3192
  155SAPE   C2117236   0.410   1.026  10.435 -0.2703 -0.0936  0.8492
  155SAPE   O2217237   0.485   0.993  10.531  0.2037  0.6477 -0.1117
  155SAPE   C2217238   0.447   1.129  10.318 -0.4092 -0.0290 -0.1083
  155SAPE   H2R17239   0.468   1.063  10.231 -1.8100 -2.1335  1.1208
  155SAPE   H2S17240   0.361   1.196  10.296 -1.2888 -1.7287 -2.0107
  155SAPE    C317241   0.111   0.823  10.429  0.0089  0.1452 -0.0796
  155SAPE    HX17242   0.031   0.900  10.436 -0.4812 -0.3209 -0.4638
  155SAPE    HY17243   0.079   0.729  10.479  0.1910  0.0967 -0.0506
  155SAPE   O3117244   0.118   0.807  10.283  0.2121 -0.1958  0.0717
  155SAPE   C3117245   0.193   0.707  10.254  0.3508 -0.1248 -0.0065
  155SAPE   O3217246   0.225   0.621  10.329 -0.3231  0.1510  0.4337
  155SAPE   C3217247   0.224   0.708  10.108 -0.4691 -0.0926  0.2924
  155SAPE   H2X17248   0.133   0.668  10.058 -1.7803 -0.0379  2.6106
  155SAPE   H2Y17249   0.306   0.634  10.093 -1.0948 -0.8894  0.7619
  155SAPE   C2317250   0.587   1.190  10.354  0.3425  0.1492  0.1884
  155SAPE   H3R17251   0.654   1.113  10.399 -0.8482 -0.5898  0.7299
  155SAPE   H3S17252   0.568   1.269  10.430  0.0011  0.0653  0.1919
  155SAPE   C2417253   0.678   1.244  10.240  0.1583  0.1187 -0.4025
  155SAPE   H4R17254   0.696   1.163  10.166  1.4054  0.5952 -0.6258
  155SAPE   H4S17255   0.781   1.263  10.279  0.4218 -1.3295 -0.3709
  155SAPE   C2517256   0.619   1.375  10.181 -0.0886 -0.0992  0.2012
  155SAPE   H5R17257   0.602   1.449  10.261 -1.4343 -0.1960  0.0160
  155SAPE   C2617258   0.601   1.409  10.051 -0.4339 -0.0367 -0.5844
  155SAPE   H6R17259   0.568   1.512  10.035  0.6067  0.2127 -1.1668
  155SAPE   C2717260   0.623   1.328   9.928  0.8405  0.4330 -0.3632
  155SAPE   H7R17261   0.524   1.320   9.878  0.9310  1.0598 -0.6546
  155SAPE   H7S17262   0.665   1.228   9.952 -0.5110 -0.5935 -2.1351
  155SAPE   C2817263   0.717   1.411   9.840 -0.0606  0.8166 -0.0325
  155SAPE   H8R17264   0.790   1.469   9.898 -0.6877 -0.3252  1.9574
  155SAPE   C2917265   0.722   1.422   9.707 -0.9963  0.4191  0.4491
  155SAPE   H9R17266   0.804   1.483   9.665  0.2659 -0.6963  1.2379
  155SAPE  C21017267   0.642   1.347   9.603 -0.5355  0.1572  0.2948
  155SAPE  H10R17268   0.565   1.409   9.552  0.0947  0.1403 -0.7139
  155SAPE  H10S17269   0.590   1.262   9.651  1.2649 -0.8260  0.5341
  155SAPE  C21117270   0.727   1.284   9.489 -0.0234  0.0443  0.0782
  155SAPE  H11R17271   0.793   1.202   9.522 -1.0144 -1.3150 -1.2724
  155SAPE  C21217272   0.720   1.310   9.360 -0.2128  0.5321  0.1131
  155SAPE  H12R17273   0.788   1.261   9.288  1.4575  1.1192  1.2413
  155SAPE  C21317274   0.630   1.411   9.297  0.0775 -0.0558  0.2648
  155SAPE  H13R17275   0.527   1.378   9.321  0.4448 -0.5863  1.1649
  155SAPE  H13S17276   0.630   1.395   9.187 -4.2964 -1.7021  0.4170
  155SAPE  C21417277   0.662   1.555   9.318  0.7874  0.3348 -0.4552
  155SAPE  H14R17278   0.678   1.577   9.424  1.4046  2.2283 -0.9291
  155SAPE  C21517279   0.671   1.662   9.237  0.3500  0.2988 -0.0261
  155SAPE  H15R17280   0.681   1.761   9.285  1.0883 -0.1459  0.7601
  155SAPE  C21617281   0.652   1.660   9.092  0.4405  0.0058 -0.5819
  155SAPE  H16R17282   0.655   1.556   9.052  1.3922 -0.9643  1.9153
  155SAPE  H16S17283   0.730   1.717   9.036 -0.2693  1.7059  0.1131
  155SAPE  C21717284   0.524   1.716   9.036  0.1144 -0.4810 -0.8845
  155SAPE  H17R17285   0.513   1.824   9.059 -0.0005 -0.2236 -2.1535
  155SAPE  H17S17286   0.437   1.668   9.086  0.4566  1.6662  1.9307
  155SAPE  C21817287   0.510   1.702   8.885  0.1975 -0.1828 -0.5896
  155SAPE  H18R17288   0.450   1.611   8.866  0.1182  0.0374 -1.4498
  155SAPE  H18S17289   0.612   1.703   8.840  0.5372  0.4826  0.1842
  155SAPE  C21917290   0.424   1.802   8.813 -0.2112 -0.2396  0.2837
  155SAPE  H19R17291   0.331   1.808   8.874  0.5094 -0.6927  1.4362
  155SAPE  H19S17292   0.400   1.746   8.720  1.2401 -0.5511  0.0949
  155SAPE  C22017293   0.496   1.932   8.781  0.1871 -0.5125 -1.3339
  155SAPE  H20R17294   0.505   1.975   8.883  0.4554 -0.0802 -1.5384
  155SAPE  H20S17295   0.437   2.000   8.716 -0.7149 -0.9368 -0.9555
  155SAPE  H20T17296   0.594   1.924   8.730  0.7825  1.1422 -0.4838
  155SAPE   C3317297   0.272   0.850  10.054  0.2240  0.0951  0.4923
  155SAPE   H3X17298   0.354   0.898  10.111  0.3740  0.7959 -0.2889
  155SAPE   H3Y17299   0.185   0.917  10.070  0.6123  0.5541  0.6956
  155SAPE   C3417300   0.301   0.859   9.902  0.0354  0.3629  0.1057
  155SAPE   H4X17301   0.216   0.809   9.850  1.3788 -1.0085 -0.8173
  155SAPE   H4Y17302   0.388   0.790   9.890 -0.5586 -0.3287 -0.2771
  155SAPE   C3517303   0.323   1.002   9.851 -0.2310 -0.0534  0.3521
  155SAPE   H5X17304   0.384   1.066   9.918  2.2884  0.9367 -2.7796
  155SAPE   H5Y17305   0.223   1.050   9.863 -0.2811 -0.3486  1.2004
  155SAPE   C3617306   0.389   0.996   9.707  0.0004 -0.0103  0.3138
  155SAPE   H6X17307   0.493   0.962   9.725 -0.0084  0.0287  0.4315
  155SAPE   H6Y17308   0.402   1.102   9.673 -2.6385  1.0366  2.4339
  155SAPE   C3717309   0.326   0.897   9.604  0.2707  0.5461  0.5211
  155SAPE   H7X17310   0.228   0.940   9.574 -0.1200 -1.5982 -1.4123
  155SAPE   H7Y17311   0.292   0.806   9.657 -1.3564  1.9761  2.0115
  155SAPE   C3817312   0.399   0.843   9.482  0.2202 -0.1039  0.6065
  155SAPE   H8X17313   0.490   0.800   9.530  0.9764 -0.4136 -1.0725
  155SAPE   H8Y17314   0.430   0.919   9.408 -0.0097  0.0375  0.6558
  155SAPE   C3917315   0.340   0.729   9.402  0.6710  0.0147 -0.2479
  155SAPE   H9X17316   0.233   0.746   9.376 -0.0484 -1.1398  1.8770
  155SAPE   H9Y17317   0.335   0.638   9.465  1.4729  0.3645  0.3301
  155SAPE  C31017318   0.426   0.679   9.280  0.6346  0.1927 -0.3883
  155SAPE  H10X17319   0.366   0.592   9.245 -0.7631  0.8555  0.3268
  155SAPE  H10Y17320   0.529   0.652   9.312  0.9787 -0.9529 -2.3561
  155SAPE  C31117321   0.424   0.784   9.166 -0.0048  0.6296 -0.6001
  155SAPE  H11X17322   0.491   0.870   9.186 -2.7199  3.5539 -3.4741
  155SAPE  H11Y17323   0.323   0.830   9.163 -0.3024  0.1117  1.0373
  155SAPE  C31217324   0.438   0.720   9.029  0.3519 -0.0653 -0.1031
  155SAPE  H12X17325   0.349   0.665   8.992  0.8664 -0.8414 -0.2102
  155SAPE  H12Y17326   0.525   0.651   9.024  0.5209  0.2268 -1.5213
  155SAPE  C31317327   0.464   0.825   8.922  0.1064  0.0397  0.3682
  155SAPE  H13X17328   0.550   0.893   8.942 -1.1289  1.3001  1.4721
  155SAPE  H13Y17329   0.373   0.887   8.909 -0.1583 -0.2498  0.8249
  155SAPE  C31417330   0.497   0.754   8.794  0.2154  1.1789 -0.0751
  155SAPE  H14X17331   0.435   0.663   8.780 -0.2539  1.6427 -1.0317
  155SAPE  H14Y17332   0.604   0.724   8.792  0.7526  3.0952 -1.5425
  155SAPE  C31517333   0.473   0.841   8.669  0.4565  0.1062 -0.2331
  155SAPE  H15X17334   0.534   0.933   8.681 -1.6684  1.6728 -1.1047
  155SAPE  H15Y17335   0.371   0.885   8.667 -0.8507 -2.8494 -0.6612
  155SAPE  C31617336   0.498   0.768   8.540 -0.4700 -0.0454  0.6435
  155SAPE  H16X17337   0.421   0.689   8.526 -1.3465  0.6456  1.5246
  155SAPE  H16Y17338   0.597   0.718   8.547 -0.7041 -0.8620 -1.4320
  155SAPE  C31717339   0.494   0.849   8.401  0.0337 -0.4439  0.1883
  155SAPE  H17X17340   0.527   0.798   8.309 -2.5399  0.6425 -1.3986
  155SAPE  H17Y17341   0.566   0.933   8.414 -0.1050 -0.2579 -0.2366
  155SAPE  C31817342   0.351   0.905   8.382  0.2997  0.2237 -0.5605
  155SAPE  H18X17343   0.273   0.826   8.383  1.7414 -1.2426 -0.9467
  155SAPE  H18Y17344   0.333   0.947   8.280  2.4509  1.3170 -0.5353
  155SAPE  H18Z17345   0.316   0.980   8.456 -0.7802 -0.9226  0.0991
  156SAPE     N17346   4.926   5.374  10.660  0.0531 -0.5588 -0.1896
  156SAPE   HN117347   4.971   5.403  10.749  0.6303 -0.7227 -0.4316
  156SAPE   HN217348   4.971   5.280  10.655  2.2840  0.3871  1.2406
  156SAPE   HN317349   4.954   5.432  10.579  3.0349  0.2667  1.3818
  156SAPE   C1217350   4.781   5.370  10.686 -0.5067 -0.0883  0.2222
  156SAPE  H12A17351   4.764   5.332  10.790  2.9994 -0.5801  0.6689
  156SAPE  H12B17352   4.738   5.298  10.614  0.5159 -0.8741  0.3864
  156SAPE   C1117353   4.707   5.500  10.666 -0.2190  0.1084 -0.6336
  156SAPE  H11A17354   4.720   5.581  10.741  1.7365 -0.5516 -0.2489
  156SAPE  H11B17355   4.602   5.465  10.681 -0.2905  0.5093 -0.1654
  156SAPE     P17356   4.676   5.682  10.475 -0.0313 -0.8940 -0.3132
  156SAPE   O1317357   4.532   5.678  10.483 -0.3087 -0.6382  0.0177
  156SAPE   O1417358   4.750   5.785  10.551 -0.1544 -1.0209 -0.1312
  156SAPE   O1217359   4.735   5.543  10.531  0.4055 -0.0922 -0.3669
  156SAPE   O1117360   4.723   5.686  10.326  0.3965 -0.0520  0.3568
  156SAPE    C117361   4.848   5.630  10.282  0.5297 -0.2579  0.4140
  156SAPE    HA17362   4.933   5.669  10.343  1.8471  0.0723 -1.5874
  156SAPE    HB17363   4.843   5.522  10.306  1.3128 -0.2389  0.6771
  156SAPE    C217364   4.877   5.661  10.136 -0.6120  0.2733  0.3003
  156SAPE    HS17365   4.934   5.755  10.130 -0.3076  0.0758  0.1108
  156SAPE   O2117366   4.761   5.679  10.056 -0.3281  0.2342  0.0144
  156SAPE   C2117367   4.699   5.794  10.068  0.6132  0.2002 -0.4267
  156SAPE   O2217368   4.734   5.894  10.126 -0.8308 -0.0985  0.0554
  156SAPE   C2217369   4.566   5.779   9.994 -0.1247  0.3227  0.3756
  156SAPE   H2R17370   4.501   5.715  10.057 -0.7602  0.5434 -0.0519
  156SAPE   H2S17371   4.514   5.877   9.988 -1.7476 -0.3267  2.9594
  156SAPE    C317372   4.974   5.560  10.068 -0.3023 -0.6467  0.6995
  156SAPE    HX17373   4.931   5.458  10.059  3.0094 -2.0447  0.1526
  156SAPE    HY17374   5.074   5.541  10.110  0.3765 -0.3155 -0.7254
  156SAPE   O3117375   5.006   5.610   9.937 -0.6851 -0.3739  0.0345
  156SAPE   C3117376   5.104   5.701   9.921  0.0240 -0.2875 -0.3077
  156SAPE   O3217377   5.167   5.743  10.011  0.1160  0.1757 -1.0052
  156SAPE   C3217378   5.107   5.755   9.776 -0.1269 -0.2849  0.0953
  156SAPE   H2X17379   5.011   5.806   9.756  0.1580 -0.2319 -1.1723
  156SAPE   H2Y17380   5.129   5.669   9.710  0.3268 -1.3573  1.6123
  156SAPE   C2317381   4.579   5.730   9.852 -0.1911 -0.7016  0.1652
  156SAPE   H3R17382   4.475   5.721   9.813  0.9807 -0.3354 -3.2832
  156SAPE   H3S17383   4.637   5.636   9.860  4.3902  1.9737  0.4711
  156SAPE   C2417384   4.655   5.809   9.749  0.8890  0.7294  0.0899
  156SAPE   H4R17385   4.681   5.752   9.657 -1.3425  1.0442 -0.7681
  156SAPE   H4S17386   4.751   5.855   9.782 -0.8684  2.2727  3.2399
  156SAPE   C2517387   4.581   5.934   9.701 -0.1053 -0.2512 -0.0044
  156SAPE   H5R17388   4.612   6.024   9.756  1.6204 -1.9744  1.9425
  156SAPE   C2617389   4.503   5.942   9.596 -0.0199 -0.3580  0.4614
  156SAPE   H6R17390   4.449   6.037   9.578 -1.1349 -0.7728  1.5114
  156SAPE   C2717391   4.471   5.826   9.500 -0.3097 -0.1864 -0.4457
  156SAPE   H7R17392   4.392   5.775   9.560  2.6399 -0.8083  3.0527
  156SAPE   H7S17393   4.554   5.752   9.495  0.7198  0.9916 -0.9457
  156SAPE   C2817394   4.419   5.875   9.364  0.6593  0.4807  0.3068
  156SAPE   H8R17395   4.377   5.976   9.358 -0.6198 -0.0603  0.0065
  156SAPE   C2917396   4.423   5.805   9.251 -0.1988 -1.2298 -0.1651
  156SAPE   H9R17397   4.364   5.849   9.170  0.0107 -1.1233 -0.2591
  156SAPE  C21017398   4.489   5.671   9.241 -0.4705 -0.0959 -0.2939
  156SAPE  H10R17399   4.422   5.598   9.292  0.5208  1.2077  3.0144
  156SAPE  H10S17400   4.585   5.663   9.296 -0.6799 -0.8760 -0.0372
  156SAPE  C21117401   4.518   5.622   9.099  0.0992  0.6689  0.3507
  156SAPE  H11R17402   4.622   5.635   9.065  0.9198  0.0939  2.5647
  156SAPE  C21217403   4.435   5.542   9.022  0.2560 -0.3346  0.3924
  156SAPE  H12R17404   4.464   5.520   8.919 -1.0978 -1.0214  0.1396
  156SAPE  C21317405   4.291   5.504   9.059 -0.1008 -0.3861  0.0552
  156SAPE  H13R17406   4.249   5.548   9.152  1.9714  0.1886  0.7431
  156SAPE  H13S17407   4.294   5.393   9.070  0.0894 -0.5711 -1.7097
  156SAPE  C21417408   4.203   5.566   8.949 -0.3909 -0.3300 -0.6645
  156SAPE  H14R17409   4.197   5.674   8.965  0.8569 -0.4768  0.9637
  156SAPE  C21517410   4.141   5.492   8.854  0.1379  0.1651  0.7179
  156SAPE  H15R17411   4.093   5.544   8.770 -2.5902  0.1182  2.2043
  156SAPE  C21617412   4.148   5.343   8.831  0.9517  0.0594 -0.3402
  156SAPE  H16R17413   4.047   5.298   8.842  1.1924  0.2143  2.7283
  156SAPE  H16S17414   4.217   5.293   8.902 -0.8542  0.7536  1.9819
  156SAPE  C21717415   4.187   5.335   8.684  0.5207 -0.1320  0.1115
  156SAPE  H17R17416   4.109   5.385   8.623  0.6042  0.2995  0.3551
  156SAPE  H17S17417   4.192   5.228   8.656 -0.8720 -0.5307  1.2861
  156SAPE  C21817418   4.328   5.385   8.643 -0.5191 -0.4775 -0.3649
  156SAPE  H18R17419   4.393   5.316   8.702  0.5822  0.8268 -0.0204
  156SAPE  H18S17420   4.337   5.489   8.679  0.0690 -1.4479  2.4094
  156SAPE  C21917421   4.345   5.380   8.491 -0.4735 -0.4926  0.2599
  156SAPE  H19R17422   4.260   5.436   8.447 -1.2950 -1.2503  0.8472
  156SAPE  H19S17423   4.320   5.277   8.457  0.0452 -0.6814  0.4510
  156SAPE  C22017424   4.480   5.433   8.445 -0.2422 -0.2725  0.1367
  156SAPE  H20R17425   4.500   5.424   8.336  0.2869  0.7757  0.1425
  156SAPE  H20S17426   4.561   5.373   8.492  0.5844 -0.8221 -1.9339
  156SAPE  H20T17427   4.497   5.538   8.476 -1.0647 -0.2853  0.6474
  156SAPE   C3317428   5.207   5.873   9.766  0.2000  0.2573  0.9288
  156SAPE   H3X17429   5.188   5.951   9.843  2.5364  1.1845  0.6216
  156SAPE   H3Y17430   5.201   5.930   9.670 -0.1627 -1.1086  0.1269
  156SAPE   C3417431   5.357   5.827   9.775  0.3480 -0.1276 -0.2181
  156SAPE   H4X17432   5.362   5.758   9.862  1.5257 -1.7291 -1.5161
  156SAPE   H4Y17433   5.420   5.916   9.796 -0.5666  0.2443  0.9778
  156SAPE   C3517434   5.401   5.752   9.644  0.3356  0.4319 -0.3223
  156SAPE   H5X17435   5.334   5.670   9.612 -0.9240 -0.0996  3.4580
  156SAPE   H5Y17436   5.496   5.698   9.664  0.0992  0.7287  1.7213
  156SAPE   C3617437   5.411   5.842   9.516 -0.7767 -0.2910  0.4077
  156SAPE   H6X17438   5.505   5.901   9.526 -0.4935 -0.3801 -1.4823
  156SAPE   H6Y17439   5.322   5.907   9.506  0.3021  1.1354 -0.1801
  156SAPE   C3717440   5.432   5.768   9.377  0.1766  0.9085  0.8870
  156SAPE   H7X17441   5.346   5.701   9.357  0.5454  0.6297  0.2009
  156SAPE   H7Y17442   5.513   5.693   9.391 -0.1673  0.3794  0.0762
  156SAPE   C3817443   5.465   5.864   9.263 -0.1252  0.2978  0.0312
  156SAPE   H8X17444   5.542   5.936   9.297  2.7903 -3.9342  2.8803
  156SAPE   H8Y17445   5.375   5.922   9.235  1.0188  0.3889 -3.7803
  156SAPE   C3917446   5.516   5.797   9.134 -0.1980 -0.1415  0.5148
  156SAPE   H9X17447   5.594   5.724   9.164 -1.2807 -1.1054  0.9970
  156SAPE   H9Y17448   5.567   5.872   9.069 -0.8101 -1.9530 -2.1372
  156SAPE  C31017449   5.412   5.714   9.054  0.5898 -0.9468  0.6099
  156SAPE  H10X17450   5.341   5.789   9.014  0.4816 -1.0166  0.6731
  156SAPE  H10Y17451   5.361   5.635   9.112 -3.3754 -0.4228 -1.9561
  156SAPE  C31117452   5.464   5.657   8.921 -0.7703 -0.3229 -0.2983
  156SAPE  H11X17453   5.551   5.594   8.947 -1.2247 -0.4316  1.0215
  156SAPE  H11Y17454   5.486   5.743   8.854  1.8981  1.3467  2.6092
  156SAPE  C31217455   5.361   5.574   8.844  0.1735  0.2880 -0.2027
  156SAPE  H12X17456   5.287   5.652   8.815  0.1835  0.4999  0.3388
  156SAPE  H12Y17457   5.312   5.499   8.910  0.5263 -0.1993 -0.4911
  156SAPE  C31317458   5.399   5.525   8.703 -0.5257  0.2402  0.5892
  156SAPE  H13X17459   5.498   5.476   8.719 -0.9937 -1.8248 -2.5236
  156SAPE  H13Y17460   5.418   5.605   8.628  0.4937 -0.6528 -0.1153
  156SAPE  C31417461   5.321   5.417   8.635  0.0258 -0.0538 -0.1531
  156SAPE  H14X17462   5.358   5.404   8.531 -0.7947 -0.4591 -0.3971
  156SAPE  H14Y17463   5.215   5.447   8.620  0.6266  2.3996  0.3915
  156SAPE  C31517464   5.311   5.284   8.718  0.4875  0.2894 -0.1547
  156SAPE  H15X17465   5.252   5.309   8.808  1.8743 -3.0173  1.7358
  156SAPE  H15Y17466   5.410   5.244   8.749  0.5817 -1.5111 -2.6126
  156SAPE  C31617467   5.250   5.177   8.629 -0.4836 -0.2652 -0.0411
  156SAPE  H16X17468   5.330   5.160   8.554 -0.3497  3.4177 -0.8347
  156SAPE  H16Y17469   5.157   5.211   8.580  0.2899  2.0190  0.0179
  156SAPE  C31717470   5.217   5.049   8.714 -0.0388  0.3314 -0.3630
  156SAPE  H17X17471   5.289   5.031   8.796  0.9583  0.6616 -1.1632
  156SAPE  H17Y17472   5.242   4.958   8.655 -0.3311 -0.0726  0.1225
  156SAPE  C31817473   5.071   5.048   8.773  0.2805 -0.8057 -0.3023
  156SAPE  H18X17474   5.007   5.048   8.682 -0.9606 -1.3110  0.5634
  156SAPE  H18Y17475   5.063   5.141   8.834  2.7432  0.1591 -1.3612
  156SAPE  H18Z17476   5.050   4.964   8.842 -0.1867 -0.3495  0.1060
  157SAPE     N17477   3.167   5.126  10.769 -0.9195 -0.3696 -0.1869
  157SAPE   HN117478   3.117   5.136  10.860 -0.4202  1.7290 -0.1130
  157SAPE   HN217479   3.206   5.220  10.747 -2.4236  0.7294  1.6504
  157SAPE   HN317480   3.097   5.095  10.699 -0.1407 -0.4462 -0.9299
  157SAPE   C1217481   3.274   5.014  10.764 -0.7956 -0.3688 -0.4157
  157SAPE  H12A17482   3.220   4.918  10.746 -0.0406 -0.9545  0.3859
  157SAPE  H12B17483   3.309   5.010  10.870  2.7958 -4.7428 -1.6017
  157SAPE   C1117484   3.398   5.041  10.677 -0.6398 -0.4850 -0.1351
  157SAPE  H11A17485   3.370   5.033  10.570  0.8504 -2.1104 -0.4188
  157SAPE  H11B17486   3.488   4.979  10.695 -0.5310  0.0324  1.1989
  157SAPE     P17487   3.421   5.305  10.622 -0.4856 -0.1910 -0.4178
  157SAPE   O1317488   3.285   5.356  10.645 -0.1162 -0.4077 -0.9808
  157SAPE   O1417489   3.525   5.402  10.656  0.6702  0.3508  0.4669
  157SAPE   O1217490   3.450   5.173  10.701 -0.2035  0.8529 -0.1786
  157SAPE   O1117491   3.431   5.262  10.466 -0.5733  0.1029 -0.1817
  157SAPE    C117492   3.564   5.291  10.409  0.5357 -0.5464 -0.7650
  157SAPE    HA17493   3.568   5.400  10.389  1.3289 -0.6389 -1.1515
  157SAPE    HB17494   3.651   5.266  10.474  0.0385 -0.3734 -0.0296
  157SAPE    C217495   3.580   5.238  10.266 -0.0138 -0.0642 -0.4679
  157SAPE    HS17496   3.678   5.274  10.228 -0.2383  2.3516  1.1450
  157SAPE   O2117497   3.477   5.286  10.182  0.0288 -0.3511  0.3043
  157SAPE   C2117498   3.504   5.311  10.059 -0.7823 -0.3622 -0.0067
  157SAPE   O2217499   3.613   5.308  10.007 -0.7880 -0.0057 -0.8943
  157SAPE   C2217500   3.374   5.352   9.996 -0.6746 -0.3738  0.7339
  157SAPE   H2R17501   3.315   5.258   9.994  0.3169 -1.0113 -2.1615
  157SAPE   H2S17502   3.346   5.432  10.067  0.8765  1.5791 -0.7837
  157SAPE    C317503   3.584   5.087  10.267  0.1164  0.8352  0.1342
  157SAPE    HX17504   3.481   5.050  10.286  0.1922  0.3558 -0.3684
  157SAPE    HY17505   3.634   5.031  10.349  1.6480  0.9218 -0.7212
  157SAPE   O3117506   3.615   5.038  10.137  0.6382  0.4999  0.3192
  157SAPE   C3117507   3.746   5.043  10.108 -1.2953  0.4661  0.2243
  157SAPE   O3217508   3.832   5.078  10.186  0.2097  0.2345 -0.3394
  157SAPE   C3217509   3.777   5.007   9.965 -0.0387  0.0053 -0.3860
  157SAPE   H2X17510   3.790   5.096   9.899 -1.8427 -0.3618 -1.2665
  157SAPE   H2Y17511   3.687   4.962   9.917  0.1971 -0.7435 -0.1383
  157SAPE   C2317512   3.378   5.428   9.856 -0.3902  0.5369 -0.4822
  157SAPE   H3R17513   3.463   5.500   9.862  0.6019 -0.6811  0.4931
  157SAPE   H3S17514   3.284   5.485   9.843  0.9288  2.6356 -1.0831
  157SAPE   C2417515   3.402   5.337   9.732  0.1176  0.0347 -0.2581
  157SAPE   H4R17516   3.313   5.271   9.739  1.0105 -1.0849  0.8857
  157SAPE   H4S17517   3.495   5.276   9.743  0.5039  0.6809  0.0591
  157SAPE   C2517518   3.414   5.417   9.610 -0.1290 -0.0913  0.4628
  157SAPE   H5R17519   3.500   5.486   9.614 -1.4179  1.4396  2.7885
  157SAPE   C2617520   3.336   5.413   9.496  0.1827  0.7542  0.4215
  157SAPE   H6R17521   3.354   5.486   9.416 -0.4115  0.8966  0.4202
  157SAPE   C2717522   3.226   5.312   9.474 -0.2367 -0.3632 -0.2556
  157SAPE   H7R17523   3.238   5.213   9.524  0.8080 -0.6232 -1.0010
  157SAPE   H7S17524   3.206   5.289   9.367 -2.6933  1.4061 -0.2288
  157SAPE   C2817525   3.102   5.381   9.523  0.3534  0.0326  0.6049
  157SAPE   H8R17526   3.090   5.482   9.482  0.2362 -0.1733  0.1277
  157SAPE   C2917527   2.996   5.326   9.579 -0.4345  0.5074 -0.4096
  157SAPE   H9R17528   2.915   5.399   9.594 -0.4472  0.1410  1.3881
  157SAPE  C21017529   2.970   5.185   9.612  0.0311  0.3731 -1.2897
  157SAPE  H10R17530   2.989   5.179   9.721 -0.4415  0.0809 -1.2220
  157SAPE  H10S17531   3.052   5.124   9.569 -1.6219 -3.7601  1.1350
  157SAPE  C21117532   2.834   5.124   9.583 -0.3817  0.5092 -0.4521
  157SAPE  H11R17533   2.758   5.163   9.651  1.2083 -1.1280  2.3885
  157SAPE  C21217534   2.795   5.033   9.498  0.4511  0.8879 -0.0221
  157SAPE  H12R17535   2.688   5.010   9.488  0.4048  0.5102  1.3022
  157SAPE  C21317536   2.886   4.955   9.404 -0.2247 -0.0354 -0.2555
  157SAPE  H13R17537   2.988   4.930   9.439  0.2089  2.8650  0.6867
  157SAPE  H13S17538   2.909   5.009   9.310  1.5155 -0.5715 -0.1593
  157SAPE  C21417539   2.830   4.813   9.385 -0.7548 -0.4299 -0.2816
  157SAPE  H14R17540   2.820   4.756   9.479 -0.4352  1.1462  0.7346
  157SAPE  C21517541   2.808   4.751   9.269 -0.0859  0.4537  0.2734
  157SAPE  H15R17542   2.779   4.645   9.264 -0.1972  0.4924  0.1004
  157SAPE  C21617543   2.832   4.820   9.141 -0.0648 -0.7453 -0.1549
  157SAPE  H16R17544   2.934   4.858   9.124 -1.1082  1.4892 -1.6059
  157SAPE  H16S17545   2.774   4.915   9.141  1.6315  0.3187  1.1938
  157SAPE  C21717546   2.789   4.735   9.016 -0.0891 -0.2549  0.1634
  157SAPE  H17R17547   2.795   4.794   8.922  2.6459 -0.2060  0.3300
  157SAPE  H17S17548   2.685   4.699   9.027 -0.4300  1.1599  1.6732
  157SAPE  C21817549   2.877   4.611   8.993 -0.8560 -0.3386 -0.0552
  157SAPE  H18R17550   2.860   4.542   9.079  0.9541 -1.4092 -0.5231
  157SAPE  H18S17551   2.981   4.651   8.996 -0.2565 -1.9483  1.1893
  157SAPE  C21917552   2.833   4.552   8.858 -0.6502 -0.0345  0.2504
  157SAPE  H19R17553   2.870   4.625   8.783 -0.5085  1.8404  2.0799
  157SAPE  H19S17554   2.721   4.557   8.859 -0.6880 -0.3480 -1.8916
  157SAPE  C22017555   2.880   4.412   8.826 -0.6473  0.5926  0.5246
  157SAPE  H20R17556   2.990   4.405   8.831 -0.6423 -1.8302 -1.5299
  157SAPE  H20S17557   2.849   4.383   8.723  2.9841 -0.2872 -0.3709
  157SAPE  H20T17558   2.835   4.339   8.897 -1.3980 -0.2278 -0.7552
  157SAPE   C3317559   3.899   4.910   9.965  0.5695 -0.1106 -0.0220
  157SAPE   H3X17560   3.881   4.826  10.035  0.1845 -1.8185 -2.1153
  157SAPE   H3Y17561   3.992   4.964   9.992  0.1971 -0.1809  1.4172
  157SAPE   C3417562   3.926   4.845   9.825  0.1272 -1.4481  0.2112
  157SAPE   H4X17563   4.027   4.800   9.836  1.4685  1.1679 -0.9235
  157SAPE   H4Y17564   3.934   4.929   9.753  0.8992 -1.2041  0.5711
  157SAPE   C3517565   3.822   4.737   9.780  0.1750 -0.4906  0.3278
  157SAPE   H5X17566   3.716   4.768   9.790  0.7237  1.0113  1.7961
  157SAPE   H5Y17567   3.843   4.644   9.837 -2.2089 -2.0792 -1.3127
  157SAPE   C3617568   3.831   4.709   9.626 -0.1372  0.0911 -0.4374
  157SAPE   H6X17569   3.774   4.621   9.589  0.4722  0.5358 -2.5069
  157SAPE   H6Y17570   3.934   4.676   9.601  0.5812  1.8259  0.1052
  157SAPE   C3717571   3.803   4.824   9.528  0.6585 -0.5621  0.1973
  157SAPE   H7X17572   3.863   4.915   9.551  0.9083 -1.0337  1.4656
  157SAPE   H7Y17573   3.697   4.853   9.546  0.6921 -0.4349  0.1925
  157SAPE   C3817574   3.825   4.779   9.380 -0.3311 -0.5055  0.1418
  157SAPE   H8X17575   3.764   4.690   9.355  2.2540 -2.3418  0.2679
  157SAPE   H8Y17576   3.933   4.759   9.365 -0.1382 -0.2839  1.1592
  157SAPE   C3917577   3.774   4.889   9.282  0.2221 -0.4202  0.2516
  157SAPE   H9X17578   3.741   4.973   9.347 -1.5461 -0.8607 -0.0459
  157SAPE   H9Y17579   3.684   4.851   9.228 -0.5681  2.8197 -0.7905
  157SAPE  C31017580   3.872   4.940   9.173 -0.1738 -0.6832  0.7985
  157SAPE  H10X17581   3.917   4.848   9.129 -1.0378 -0.7478  0.0349
  157SAPE  H10Y17582   3.940   5.013   9.222  2.0301 -2.0661 -0.1303
  157SAPE  C31117583   3.809   5.017   9.057  0.5618 -0.1761 -0.5302
  157SAPE  H11X17584   3.895   5.058   9.000  1.8369 -0.6189  1.0471
  157SAPE  H11Y17585   3.761   5.108   9.098  2.0950  1.0858 -1.5048
  157SAPE  C31217586   3.717   4.938   8.961  0.6219  0.3635  0.0106
  157SAPE  H12X17587   3.634   4.897   9.023  2.7200 -2.3632  1.1291
  157SAPE  H12Y17588   3.779   4.850   8.933  2.9020  1.3212  1.9304
  157SAPE  C31317589   3.673   5.031   8.842 -0.2979  0.0036  0.1236
  157SAPE  H13X17590   3.762   5.058   8.782  0.8951 -2.8802  0.5139
  157SAPE  H13Y17591   3.630   5.122   8.890 -0.1811 -0.3984  1.0059
  157SAPE  C31417592   3.576   4.965   8.754  0.1119  0.1571 -0.0820
  157SAPE  H14X17593   3.510   4.912   8.826  1.0942 -0.0032  0.7056
  157SAPE  H14Y17594   3.617   4.882   8.692 -2.4300 -0.7344 -0.6362
  157SAPE  C31517595   3.492   5.067   8.666  0.3471  0.1394  0.0908
  157SAPE  H15X17596   3.570   5.130   8.618 -0.9954 -1.6841 -4.7349
  157SAPE  H15Y17597   3.429   5.120   8.742  0.1068  0.0304 -0.0341
  157SAPE  C31617598   3.392   4.998   8.567  0.0251  0.0715 -0.5036
  157SAPE  H16X17599   3.311   4.954   8.629  0.6182  1.2092  1.1094
  157SAPE  H16Y17600   3.449   4.915   8.518 -0.7423 -0.3464 -0.6934
  157SAPE  C31717601   3.340   5.104   8.474  0.1495 -0.1012  0.6636
  157SAPE  H17X17602   3.279   5.050   8.398  1.1472  0.6434 -0.7009
  157SAPE  H17Y17603   3.425   5.158   8.428 -0.0390 -0.3462  0.0175
  157SAPE  C31817604   3.251   5.203   8.548  0.3501 -0.6044 -0.6502
  157SAPE  H18X17605   3.199   5.273   8.479 -0.7197 -0.0795  0.6472
  157SAPE  H18Y17606   3.307   5.275   8.612  0.7440 -3.5177  2.4488
  157SAPE  H18Z17607   3.167   5.157   8.605  1.3273 -0.7039  0.7498
  158SAPE     N17608   4.812   6.053  10.592  0.3121 -0.3194 -0.2506
  158SAPE   HN117609   4.744   5.976  10.612 -3.7045  2.9221 -0.7543
  158SAPE   HN217610   4.837   6.053  10.492  0.7736  0.3861 -0.1339
  158SAPE   HN317611   4.900   6.039  10.645  1.2760 -1.9064 -2.2362
  158SAPE   C1217612   4.731   6.178  10.627 -0.1290  0.1650 -0.9471
  158SAPE  H12A17613   4.688   6.163  10.728 -1.3025  0.4504 -1.3921
  158SAPE  H12B17614   4.645   6.174  10.556 -2.5773 -1.8668  1.9807
  158SAPE   C1117615   4.813   6.308  10.616  0.0549  0.2821 -0.3809
  158SAPE  H11A17616   4.862   6.327  10.714  0.3961 -1.5803 -0.1734
  158SAPE  H11B17617   4.743   6.395  10.620 -2.0239 -1.3733  0.0918
  158SAPE     P17618   5.038   6.320  10.496 -0.2458  0.7493  0.3437
  158SAPE   O1317619   5.065   6.455  10.543  0.2546 -0.2877 -0.6791
  158SAPE   O1417620   5.100   6.210  10.578  0.0054  0.3931 -0.2725
  158SAPE   O1217621   4.879   6.298  10.488  0.6898  0.0954 -0.5768
  158SAPE   O1117622   5.081   6.298  10.351 -0.4937  0.4319  0.7265
  158SAPE    C117623   5.022   6.382  10.252 -0.2418  0.2252  0.2873
  158SAPE    HA17624   4.920   6.343  10.232  0.6596 -1.5587 -1.0344
  158SAPE    HB17625   5.016   6.491  10.272 -2.0089  0.7246 -2.6542
  158SAPE    C217626   5.083   6.347  10.110 -0.0192 -0.0625 -0.5144
  158SAPE    HS17627   5.067   6.434  10.042  0.2653  1.0904  0.8630
  158SAPE   O2117628   5.027   6.230  10.048  0.0227  0.0017  0.5189
  158SAPE   C2117629   4.900   6.250  10.001  0.0335  0.2185 -0.3867
  158SAPE   O2217630   4.844   6.358  10.003  0.1409 -0.2829 -0.1195
  158SAPE   C2217631   4.853   6.126   9.918  0.0191 -0.6853 -0.2486
  158SAPE   H2R17632   4.933   6.049   9.931 -1.6411 -2.6387 -1.3059
  158SAPE   H2S17633   4.756   6.083   9.949 -1.0252  1.1842 -0.8644
  158SAPE    C317634   5.238   6.335  10.118 -0.1703 -0.2023  0.6028
  158SAPE    HX17635   5.261   6.235  10.162 -0.1644  0.3189  1.8040
  158SAPE    HY17636   5.281   6.423  10.171  2.1936  0.2086 -1.8895
  158SAPE   O3117637   5.303   6.334   9.990  0.1486  0.2127 -0.5051
  158SAPE   C3117638   5.385   6.229   9.954  0.8445  0.1944  0.0363
  158SAPE   O3217639   5.379   6.118   9.999 -0.2640 -0.1940  0.2527
  158SAPE   C3217640   5.471   6.274   9.835 -0.5216  0.5235  0.4462
  158SAPE   H2X17641   5.577   6.258   9.862 -0.6608  1.2233  1.4054
  158SAPE   H2Y17642   5.455   6.383   9.820  0.8250  0.4125 -2.0147
  158SAPE   C2317643   4.850   6.161   9.768  0.6591  0.4543  0.7419
  158SAPE   H3R17644   4.786   6.250   9.750 -0.1425 -0.2350  0.1579
  158SAPE   H3S17645   4.807   6.086   9.699  1.6865  0.0503  0.5277
  158SAPE   C2417646   4.986   6.204   9.709  0.1962  0.3080  0.3372
  158SAPE   H4R17647   5.042   6.108   9.707 -2.0481 -1.0208 -0.0898
  158SAPE   H4S17648   5.037   6.271   9.782  0.4354  1.0102 -0.4553
  158SAPE   C2517649   4.978   6.266   9.569 -0.6837 -0.1011 -0.1577
  158SAPE   H5R17650   4.980   6.376   9.569 -0.8239 -0.0794  1.1958
  158SAPE   C2617651   4.986   6.199   9.451 -0.3641  0.1987  0.0651
  158SAPE   H6R17652   4.987   6.257   9.357 -1.5891 -1.6830 -1.1465
  158SAPE   C2717653   4.992   6.046   9.432 -0.0168  0.4657  0.5865
  158SAPE   H7R17654   5.010   6.001   9.532 -0.3606 -1.0266 -0.0191
  158SAPE   H7S17655   5.080   6.027   9.367 -1.2008  1.3753 -1.3297
  158SAPE   C2817656   4.873   5.987   9.371 -0.6094  0.1644 -0.6059
  158SAPE   H8R17657   4.815   5.928   9.444 -0.5345  2.2137  1.1539
  158SAPE   C2917658   4.822   6.006   9.249  0.4178 -0.0464  0.5977
  158SAPE   H9R17659   4.737   5.950   9.208 -0.3267  1.5131 -0.0188
  158SAPE  C21017660   4.890   6.089   9.139  0.1326 -0.2001 -0.2106
  158SAPE  H10R17661   4.994   6.114   9.168 -0.1234  2.6633 -1.5127
  158SAPE  H10S17662   4.844   6.190   9.131  0.4945  0.4003  4.1844
  158SAPE  C21117663   4.877   6.020   8.998 -0.1308  0.1922 -0.2600
  158SAPE  H11R17664   4.861   5.911   8.985  1.5395 -0.1040  0.0789
  158SAPE  C21217665   4.872   6.083   8.881 -0.2987  0.4746 -0.2526
  158SAPE  H12R17666   4.871   6.029   8.785 -0.7120 -0.4979  0.2989
  158SAPE  C21317667   4.866   6.232   8.861 -0.2779 -0.7436 -0.2695
  158SAPE  H13R17668   4.966   6.272   8.833  0.7515 -2.0714  1.4476
  158SAPE  H13S17669   4.841   6.286   8.955  1.8057  0.5587 -0.4380
  158SAPE  C21417670   4.772   6.268   8.745 -0.7085  0.1288 -0.5888
  158SAPE  H14R17671   4.664   6.262   8.766 -1.2214  3.0014 -2.1479
  158SAPE  C21517672   4.811   6.284   8.618 -0.5400  0.1507 -0.2627
  158SAPE  H15R17673   4.733   6.310   8.545  0.0526 -0.7561 -1.2435
  158SAPE  C21617674   4.950   6.276   8.557 -0.1566  0.7945 -0.7046
  158SAPE  H16R17675   4.955   6.207   8.471  3.7007  4.1096 -3.3476
  158SAPE  H16S17676   5.022   6.239   8.633  0.0624  2.5281 -0.0408
  158SAPE  C21717677   4.995   6.415   8.524  0.0261  0.5464 -0.1567
  158SAPE  H17R17678   5.008   6.484   8.611 -4.4995  2.7648 -1.1285
  158SAPE  H17S17679   4.922   6.470   8.461  0.6423  1.1188 -0.3821
  158SAPE  C21817680   5.137   6.414   8.462 -0.8311 -0.1450  0.6016
  158SAPE  H18R17681   5.153   6.335   8.385 -1.7420  1.0416 -0.8293
  158SAPE  H18S17682   5.208   6.394   8.545  2.4498 -2.5415 -2.5980
  158SAPE  C21917683   5.177   6.541   8.396  0.9532  0.6656 -0.9285
  158SAPE  H19R17684   5.173   6.624   8.470  0.8733 -0.4864  0.3769
  158SAPE  H19S17685   5.105   6.556   8.312 -1.2905 -3.5355  0.1282
  158SAPE  C22017686   5.322   6.535   8.331  0.4244 -0.5460 -0.2282
  158SAPE  H20R17687   5.391   6.578   8.407 -1.7996  0.6890  1.1490
  158SAPE  H20S17688   5.332   6.590   8.235 -0.9793  1.4497  0.7093
  158SAPE  H20T17689   5.342   6.429   8.308  1.4228 -0.1299 -1.3179
  158SAPE   C3317690   5.443   6.200   9.705  0.3925 -0.6105 -0.1469
  158SAPE   H3X17691   5.333   6.204   9.697  0.0080 -1.4804  3.7146
  158SAPE   H3Y17692   5.456   6.090   9.709 -0.1824 -0.7427 -1.6774
  158SAPE   C3417693   5.522   6.253   9.589  0.3200  0.2370 -0.2022
  158SAPE   H4X17694   5.620   6.204   9.573 -0.6543 -1.3605 -1.4269
  158SAPE   H4Y17695   5.536   6.363   9.602 -0.8623  0.3473  0.1758
  158SAPE   C3517696   5.442   6.231   9.459  0.1444 -0.6374  0.3028
  158SAPE   H5X17697   5.336   6.265   9.464  1.1658  2.3143  3.0348
  158SAPE   H5Y17698   5.447   6.123   9.432  0.6310 -0.7782  0.9546
  158SAPE   C3617699   5.488   6.309   9.331 -0.0480 -0.2036 -0.1898
  158SAPE   H6X17700   5.599   6.319   9.340 -0.2071  0.7900  0.6825
  158SAPE   H6Y17701   5.450   6.412   9.322 -2.9006 -1.3558 -1.9020
  158SAPE   C3717702   5.472   6.237   9.193 -0.7611 -0.2947  0.4681
  158SAPE   H7X17703   5.523   6.140   9.177 -0.9243 -0.6076  1.7945
  158SAPE   H7Y17704   5.509   6.301   9.111 -1.1543 -2.6685 -1.6471
  158SAPE   C3817705   5.325   6.218   9.172 -0.2788  0.4883 -0.3890
  158SAPE   H8X17706   5.268   6.298   9.224 -1.3267  1.1060 -2.4156
  158SAPE   H8Y17707   5.300   6.124   9.226 -0.7925  1.0997  0.4535
  158SAPE   C3917708   5.282   6.212   9.025  0.0214  0.2515 -0.7706
  158SAPE   H9X17709   5.330   6.301   8.978  3.0697 -0.1877  1.3207
  158SAPE   H9Y17710   5.171   6.208   9.015 -0.0164  3.9908 -2.7680
  158SAPE  C31017711   5.319   6.081   8.950 -0.4240 -0.2790  0.1972
  158SAPE  H10X17712   5.264   5.997   8.999 -0.8884 -0.4744 -0.6530
  158SAPE  H10Y17713   5.428   6.062   8.945 -0.8855 -2.5053 -2.8837
  158SAPE  C31117714   5.272   6.082   8.806 -0.5055  0.7686 -0.3581
  158SAPE  H11X17715   5.323   6.177   8.778  0.5852  0.5280  0.7851
  158SAPE  H11Y17716   5.163   6.102   8.798 -0.7678 -0.0463  1.1392
  158SAPE  C31217717   5.310   5.980   8.706  0.4891  0.7246  0.2728
  158SAPE  H12X17718   5.256   5.886   8.728  0.8395  0.8498  1.7267
  158SAPE  H12Y17719   5.418   5.957   8.710  0.3992  0.4961  1.4722
  158SAPE  C31317720   5.276   6.022   8.555  0.0471  0.2619 -0.1743
  158SAPE  H13X17721   5.334   6.113   8.531  0.1380  0.4030  0.5640
  158SAPE  H13Y17722   5.169   6.053   8.553 -0.2319 -0.7270 -0.4403
  158SAPE  C31417723   5.298   5.919   8.450  0.6284  0.0454 -0.2246
  158SAPE  H14X17724   5.274   5.964   8.351  0.8788  0.8132  0.0569
  158SAPE  H14Y17725   5.246   5.822   8.467  0.3311  0.1255 -0.6718
  158SAPE  C31517726   5.444   5.884   8.438 -0.2905  0.1078  0.5695
  158SAPE  H15X17727   5.484   5.808   8.509 -1.8420 -0.3844  0.9299
  158SAPE  H15Y17728   5.509   5.973   8.454 -0.0930 -0.3949  2.6979
  158SAPE  C31617729   5.480   5.820   8.302  0.4884  0.2061  0.7046
  158SAPE  H16X17730   5.589   5.799   8.291  0.6903  1.3142  0.4733
  158SAPE  H16Y17731   5.471   5.896   8.221  1.6126 -1.3298 -0.8848
  158SAPE  C31717732   5.398   5.694   8.278 -0.0158 -0.6281 -0.3310
  158SAPE  H17X17733   5.291   5.720   8.297 -0.3062 -1.4736 -0.7868
  158SAPE  H17Y17734   5.439   5.624   8.354 -0.6999 -0.8301 -0.1450
  158SAPE  C31817735   5.407   5.644   8.132 -0.6040  0.0397  0.4208
  158SAPE  H18X17736   5.334   5.563   8.112 -0.1010  0.3529 -2.9991
  158SAPE  H18Y17737   5.506   5.599   8.110 -1.1108 -0.6687 -0.4377
  158SAPE  H18Z17738   5.377   5.724   8.062  0.2213  0.6699  0.7722
  159SAPE     N17739   5.408   2.444   6.404 -0.2055  0.2164 -0.9319
  159SAPE   HN117740   5.438   2.348   6.378 -1.9065 -0.6877  0.3261
  159SAPE   HN217741   5.312   2.448   6.364 -1.3368 -1.2870  1.5293
  159SAPE   HN317742   5.477   2.510   6.364  0.1262  1.3465  1.4166
  159SAPE   C1217743   5.397   2.465   6.555 -0.2730  0.0698  0.3581
  159SAPE  H12A17744   5.500   2.481   6.594 -0.0034 -1.2706  0.2510
  159SAPE  H12B17745   5.346   2.372   6.589 -0.6406  0.2322  0.2454
  159SAPE   C1117746   5.307   2.593   6.583  0.0253  0.0964  0.2781
  159SAPE  H11A17747   5.275   2.587   6.689  0.8702 -0.3622  0.5135
  159SAPE  H11B17748   5.210   2.591   6.529 -1.1552 -3.9628  2.3477
  159SAPE     P17749   5.484   2.781   6.638 -0.4335  0.1136  0.0049
  159SAPE   O1317750   5.611   2.708   6.607 -0.2106  0.1062  0.0939
  159SAPE   O1417751   5.473   2.925   6.608  0.0893  0.3790  0.1790
  159SAPE   O1217752   5.376   2.714   6.549  0.1204 -0.6408 -0.2198
  159SAPE   O1117753   5.444   2.738   6.788  0.2272 -0.2011 -0.3171
  159SAPE    C117754   5.334   2.792   6.858 -0.2234 -0.3357  0.5445
  159SAPE    HA17755   5.338   2.896   6.898 -2.7370 -0.0177  0.0530
  159SAPE    HB17756   5.246   2.789   6.791  0.3452  2.3272 -0.3844
  159SAPE    C217757   5.302   2.705   6.987 -0.2627  0.5849 -0.8140
  159SAPE    HS17758   5.258   2.609   6.950 -1.2410 -0.2318  2.3016
  159SAPE   O2117759   5.188   2.763   7.055 -0.5142  0.1425  0.0548
  159SAPE   C2117760   5.072   2.747   7.008  0.3041 -0.5237  0.3246
  159SAPE   O2217761   5.039   2.678   6.914 -0.0050  0.0100  0.2954
  159SAPE   C2217762   4.979   2.838   7.091 -0.1416  0.4177 -1.1380
  159SAPE   H2R17763   5.036   2.933   7.100 -1.3686  1.1894 -1.3804
  159SAPE   H2S17764   4.887   2.857   7.031 -2.7123 -1.5934  2.0286
  159SAPE    C317765   5.413   2.694   7.085  0.3054  0.1636 -0.3530
  159SAPE    HX17766   5.455   2.795   7.107  1.7715 -0.5318  0.0416
  159SAPE    HY17767   5.496   2.636   7.040 -1.7054 -2.1527 -1.2019
  159SAPE   O3117768   5.374   2.619   7.200 -0.8703 -0.3225 -0.0542
  159SAPE   C3117769   5.432   2.634   7.310 -0.7521  0.4254 -0.6449
  159SAPE   O3217770   5.535   2.693   7.330 -0.6322  0.2806  0.5196
  159SAPE   C3217771   5.347   2.564   7.416  0.5734  0.1037 -0.3623
  159SAPE   H2X17772   5.409   2.504   7.486  2.2895  1.9373 -0.2592
  159SAPE   H2Y17773   5.276   2.495   7.365  2.0574 -2.7582  1.2751
  159SAPE   C2317774   4.945   2.783   7.237  0.2913  0.3950  0.0779
  159SAPE   H3R17775   5.041   2.769   7.291  0.4791 -1.3988 -0.6869
  159SAPE   H3S17776   4.899   2.683   7.223  4.3106 -1.3891 -1.1434
  159SAPE   C2417777   4.885   2.896   7.332  0.7258 -0.6257  0.3935
  159SAPE   H4R17778   4.937   2.993   7.319  0.9582 -0.9580 -1.3090
  159SAPE   H4S17779   4.910   2.853   7.432 -0.5166  0.1653  1.0608
  159SAPE   C2517780   4.740   2.892   7.298 -0.5934 -0.2002  0.6203
  159SAPE   H5R17781   4.719   2.938   7.200 -0.3996  1.6410  1.4189
  159SAPE   C2617782   4.650   2.834   7.377  0.4530  0.2622 -0.3143
  159SAPE   H6R17783   4.544   2.826   7.350  0.1407  0.0547  0.9521
  159SAPE   C2717784   4.682   2.768   7.507  0.1827  0.5734 -0.1879
  159SAPE   H7R17785   4.774   2.813   7.550  0.9872 -0.5094 -0.7428
  159SAPE   H7S17786   4.710   2.663   7.485 -0.4550  0.3721 -0.0606
  159SAPE   C2817787   4.569   2.768   7.608  0.5744 -0.2969 -0.0782
  159SAPE   H8R17788   4.517   2.672   7.618  2.8961 -1.8201 -1.9068
  159SAPE   C2917789   4.519   2.874   7.682  0.7435  0.5098 -0.4026
  159SAPE   H9R17790   4.428   2.855   7.739  0.3697 -0.5560 -1.3409
  159SAPE  C21017791   4.564   3.018   7.672 -0.1830  0.3621 -0.6432
  159SAPE  H10R17792   4.650   3.009   7.603 -1.1386 -0.1108 -1.7964
  159SAPE  H10S17793   4.588   3.051   7.775 -3.5592  1.9128 -0.2660
  159SAPE  C21117794   4.461   3.119   7.629 -0.6804 -0.1016  0.3718
  159SAPE  H11R17795   4.478   3.145   7.523  2.5332  1.1261  1.1491
  159SAPE  C21217796   4.377   3.200   7.696 -0.1136  0.4066 -0.0550
  159SAPE  H12R17797   4.307   3.257   7.634 -0.0339  0.2644 -0.2755
  159SAPE  C21317798   4.359   3.210   7.850  0.4271 -0.0978  0.7811
  159SAPE  H13R17799   4.346   3.317   7.878 -0.5607 -0.1363  0.5033
  159SAPE  H13S17800   4.450   3.183   7.908 -0.1287 -1.1289  1.1806
  159SAPE  C21417801   4.255   3.124   7.900  0.3131 -0.0875  0.1426
  159SAPE  H14R17802   4.232   3.054   7.819  0.5886 -0.3419  0.2826
  159SAPE  C21517803   4.213   3.109   8.030  0.1474  0.0675 -0.5719
  159SAPE  H15R17804   4.146   3.023   8.044  0.6357  0.0063  1.5612
  159SAPE  C21617805   4.255   3.200   8.140 -0.0355 -0.6024  0.4704
  159SAPE  H16R17806   4.307   3.287   8.095  0.1412 -1.6950 -1.4505
  159SAPE  H16S17807   4.327   3.142   8.203  0.8660 -0.7280 -0.6639
  159SAPE  C21717808   4.136   3.240   8.226 -0.6331  0.5485 -0.1281
  159SAPE  H17R17809   4.051   3.287   8.172 -0.1248  1.7948  0.1420
  159SAPE  H17S17810   4.169   3.313   8.302  1.2949 -0.8304  0.3981
  159SAPE  C21817811   4.096   3.110   8.307  0.0580  0.5368 -0.2814
  159SAPE  H18R17812   4.183   3.081   8.369 -1.2184 -0.6507  0.9971
  159SAPE  H18S17813   4.078   3.022   8.242  2.4623 -0.3584  0.2389
  159SAPE  C21917814   3.967   3.131   8.404  0.0812  0.7199 -0.0660
  159SAPE  H19R17815   3.872   3.103   8.354 -2.0303  1.8013  3.1912
  159SAPE  H19S17816   3.954   3.233   8.447  1.2469 -0.4939  3.4075
  159SAPE  C22017817   3.992   3.042   8.523  0.2310 -0.2294 -0.0763
  159SAPE  H20R17818   3.907   3.053   8.594  0.2897  2.8103 -0.4181
  159SAPE  H20S17819   4.082   3.078   8.577  0.0493  1.9274 -1.1643
  159SAPE  H20T17820   3.995   2.936   8.490  1.0416 -0.2836  0.1551
  159SAPE   C3317821   5.277   2.669   7.514 -0.3116  0.3819 -0.0328
  159SAPE   H3X17822   5.228   2.744   7.448 -0.7880 -0.2423 -0.3932
  159SAPE   H3Y17823   5.358   2.712   7.577 -0.9040  0.2948  0.7993
  159SAPE   C3417824   5.167   2.606   7.605 -0.1134 -0.7905 -0.3078
  159SAPE   H4X17825   5.212   2.527   7.668 -0.8598 -0.8907  0.1071
  159SAPE   H4Y17826   5.100   2.551   7.535  2.8491 -3.0485 -1.4702
  159SAPE   C3517827   5.106   2.714   7.698  0.0167  0.2031 -0.0215
  159SAPE   H5X17828   5.066   2.805   7.649 -0.6422 -0.6915 -1.1681
  159SAPE   H5Y17829   5.178   2.755   7.772 -1.2546  1.6375  0.4465
  159SAPE   C3617830   4.995   2.653   7.779 -0.4418  0.5761 -0.0349
  159SAPE   H6X17831   5.029   2.581   7.858  0.7812  1.3412  0.1428
  159SAPE   H6Y17832   4.910   2.612   7.721  1.0134  1.2470 -2.6948
  159SAPE   C3717833   4.924   2.758   7.873 -0.0028  0.6932  0.7084
  159SAPE   H7X17834   4.900   2.849   7.813  0.4802 -1.0635 -2.2741
  159SAPE   H7Y17835   4.993   2.786   7.955  1.0021 -0.8313  0.4006
  159SAPE   C3817836   4.792   2.721   7.939 -0.1215  0.8808  0.1281
  159SAPE   H8X17837   4.722   2.710   7.853 -2.2039 -0.5976  1.9515
  159SAPE   H8Y17838   4.776   2.796   8.019  0.8683  0.8190  0.3892
  159SAPE   C3917839   4.788   2.586   8.012  0.3279  0.2045 -0.2083
  159SAPE   H9X17840   4.810   2.510   7.934 -0.8437 -0.1208 -0.2299
  159SAPE   H9Y17841   4.688   2.573   8.059  1.1920 -0.0993  1.5617
  159SAPE  C31017842   4.891   2.575   8.131 -0.0717 -0.9124 -0.2350
  159SAPE  H10X17843   4.851   2.643   8.210  0.0584 -1.5296  0.3699
  159SAPE  H10Y17844   4.990   2.609   8.095 -0.5542 -1.1652 -1.8538
  159SAPE  C31117845   4.894   2.434   8.183 -0.4274 -0.3314 -0.7399
  159SAPE  H11X17846   4.987   2.431   8.244 -1.6199  0.2687  1.1335
  159SAPE  H11Y17847   4.908   2.364   8.098  2.9750 -0.7833  0.0968
  159SAPE  C31217848   4.777   2.389   8.272  0.2331  0.2413  0.2618
  159SAPE  H12X17849   4.691   2.358   8.209 -0.1819  2.4577 -0.3030
  159SAPE  H12Y17850   4.736   2.480   8.321 -1.2742 -0.3957  0.1995
  159SAPE  C31317851   4.816   2.291   8.374  0.1776  0.7793 -0.5803
  159SAPE  H13X17852   4.896   2.327   8.441 -1.1014  0.2089  1.2990
  159SAPE  H13Y17853   4.840   2.191   8.331  1.7307  1.1229 -0.5401
  159SAPE  C31417854   4.694   2.275   8.467  0.1657  0.0401 -0.5070
  159SAPE  H14X17855   4.616   2.208   8.423  0.5450 -1.1462  0.5917
  159SAPE  H14Y17856   4.647   2.373   8.487 -0.5854 -0.3584 -0.2930
  159SAPE  C31517857   4.730   2.228   8.604  0.1546 -0.2243 -0.4391
  159SAPE  H15X17858   4.655   2.242   8.685  1.5712 -0.2663  0.8984
  159SAPE  H15Y17859   4.825   2.280   8.629  0.2076 -0.3151 -0.4523
  159SAPE  C31617860   4.785   2.079   8.603 -0.4879 -0.1968  0.2455
  159SAPE  H16X17861   4.837   2.057   8.698  0.5902  2.5869  0.3483
  159SAPE  H16Y17862   4.865   2.076   8.525  0.5550 -3.2664  1.3657
  159SAPE  C31717863   4.683   1.969   8.572  1.2264  0.1440 -1.1547
  159SAPE  H17X17864   4.738   1.872   8.575  1.4474  0.2988  0.1259
  159SAPE  H17Y17865   4.648   1.969   8.467  0.3952 -2.7313 -0.9088
  159SAPE  C31817866   4.573   1.958   8.669  0.1360 -0.7918  0.1154
  159SAPE  H18X17867   4.529   2.059   8.682  0.2642 -0.3430 -2.6176
  159SAPE  H18Y17868   4.618   1.909   8.758  0.0286  0.0217  0.6199
  159SAPE  H18Z17869   4.485   1.898   8.637 -1.1052  0.8020  0.4588
  160SAPE     N17870   4.364   4.243   6.317 -0.5828  0.4969  0.7279
  160SAPE   HN117871   4.425   4.273   6.238 -0.6004 -0.3281  0.3898
  160SAPE   HN217872   4.294   4.319   6.329  0.3954  1.5201  0.1031
  160SAPE   HN317873   4.411   4.236   6.409  0.5380  0.0076  0.1396
  160SAPE   C1217874   4.305   4.110   6.279  0.6602 -0.6032 -0.0554
  160SAPE  H12A17875   4.387   4.034   6.273  1.0703 -0.2365  0.8428
  160SAPE  H12B17876   4.264   4.116   6.176  1.9183 -0.1235 -0.5424
  160SAPE   C1117877   4.201   4.059   6.374  0.1311 -0.0090  0.1863
  160SAPE  H11A17878   4.133   3.987   6.325 -0.5909  0.6243  0.2514
  160SAPE  H11B17879   4.134   4.147   6.382 -0.5720 -0.4830 -0.3862
  160SAPE     P17880   4.171   3.958   6.621 -0.1143 -0.3065  0.2728
  160SAPE   O1317881   4.114   3.827   6.603 -0.1176  0.7057 -0.5378
  160SAPE   O1417882   4.260   3.978   6.740 -0.3337  0.4608  0.0882
  160SAPE   O1217883   4.257   4.014   6.497  0.8173 -0.0643 -0.3846
  160SAPE   O1117884   4.052   4.066   6.628 -0.8056 -0.1816 -0.6266
  160SAPE    C117885   4.079   4.202   6.658 -0.7402  0.0843  0.2353
  160SAPE    HA17886   4.186   4.231   6.647 -0.3805 -2.0034 -2.0302
  160SAPE    HB17887   4.023   4.269   6.590 -0.9665  1.3700  1.6417
  160SAPE    C217888   4.030   4.263   6.795  0.0434  0.1427  0.5205
  160SAPE    HS17889   4.093   4.216   6.873 -1.4306 -0.6136  1.2720
  160SAPE   O2117890   3.890   4.236   6.815 -0.2855  0.4594  0.0242
  160SAPE   C2117891   3.843   4.220   6.939 -0.6480  0.0203 -0.2884
  160SAPE   O2217892   3.906   4.234   7.042  0.1805 -0.5312 -0.0071
  160SAPE   C2217893   3.689   4.195   6.929  0.0279  0.1585  0.3105
  160SAPE   H2R17894   3.652   4.253   6.841 -1.6067 -0.5552  0.5148
  160SAPE   H2S17895   3.676   4.085   6.927 -0.3896  0.2277 -3.3401
  160SAPE    C317896   4.041   4.415   6.803 -0.1475 -0.2784  0.5011
  160SAPE    HX17897   3.980   4.450   6.717 -0.6802  0.0309  1.0028
  160SAPE    HY17898   4.138   4.461   6.774 -0.0796 -0.2864  0.7098
  160SAPE   O3117899   3.997   4.487   6.920  0.2697 -0.3599 -0.0941
  160SAPE   C3117900   4.085   4.472   7.027  0.5603 -0.3478 -0.1348
  160SAPE   O3217901   4.196   4.425   7.009  0.3968  0.1299  0.8843
  160SAPE   C3217902   4.028   4.514   7.154 -0.1508  0.6948  0.0029
  160SAPE   H2X17903   4.105   4.482   7.226  1.0982  0.9166 -1.2187
  160SAPE   H2Y17904   3.928   4.473   7.183  1.2054 -1.5689  1.6316
  160SAPE   C2317905   3.617   4.252   7.053 -0.0272 -0.7244 -0.1817
  160SAPE   H3R17906   3.624   4.362   7.041 -0.1666 -0.7487 -0.5218
  160SAPE   H3S17907   3.665   4.230   7.150  1.5791 -1.3940 -1.1201
  160SAPE   C2417908   3.471   4.217   7.049  0.6116  0.2958 -0.5971
  160SAPE   H4R17909   3.441   4.203   6.942  0.1351  0.3732 -0.4736
  160SAPE   H4S17910   3.413   4.299   7.097  1.6257 -0.2499  1.6016
  160SAPE   C2517911   3.444   4.090   7.114 -0.0185  0.2924 -0.2598
  160SAPE   H5R17912   3.518   4.012   7.091 -0.1069  0.1449 -0.0494
  160SAPE   C2617913   3.337   4.063   7.188 -0.6535  0.0736  0.2913
  160SAPE   H6R17914   3.336   3.961   7.228  2.1056 -0.0387  0.1430
  160SAPE   C2717915   3.221   4.152   7.218 -0.4329 -0.1360  0.8404
  160SAPE   H7R17916   3.198   4.214   7.128  0.4894 -1.7250 -0.5006
  160SAPE   H7S17917   3.253   4.231   7.289 -2.6315  1.9626 -0.4146
  160SAPE   C2817918   3.091   4.086   7.267 -0.0861  0.1900 -0.1093
  160SAPE   H8R17919   3.046   4.022   7.189 -1.5641 -0.3069  1.1186
  160SAPE   C2917920   3.044   4.091   7.390  0.2453 -0.2309  0.3400
  160SAPE   H9R17921   2.956   4.033   7.421 -0.0466 -0.2974 -0.5931
  160SAPE  C21017922   3.107   4.166   7.504 -0.6058  0.0560  0.4261
  160SAPE  H10R17923   3.113   4.270   7.466 -0.7508 -0.0792  0.0325
  160SAPE  H10S17924   3.207   4.123   7.524 -0.4167 -0.2682 -1.1811
  160SAPE  C21117925   3.035   4.166   7.635  0.6898 -0.4838 -0.0639
  160SAPE  H11R17926   2.941   4.109   7.639  0.9046 -0.8779 -0.5252
  160SAPE  C21217927   3.062   4.239   7.745 -0.0696  0.0649  0.0924
  160SAPE  H12R17928   2.997   4.218   7.832  0.5358 -0.7162  0.3593
  160SAPE  C21317929   3.175   4.336   7.779  0.6516  0.4805  0.6738
  160SAPE  H13R17930   3.137   4.414   7.849 -2.2113  0.9386 -1.3326
  160SAPE  H13S17931   3.207   4.383   7.684  2.3653 -0.2233  0.8899
  160SAPE  C21417932   3.301   4.285   7.841 -0.0321  0.2160  0.1427
  160SAPE  H14R17933   3.295   4.188   7.891 -4.1051 -0.0678 -0.7483
  160SAPE  C21517934   3.416   4.356   7.839 -0.2677  0.3403  0.9721
  160SAPE  H15R17935   3.510   4.312   7.873  0.8416  1.6817 -0.3092
  160SAPE  C21617936   3.434   4.501   7.776  0.1981  0.0108 -0.0127
  160SAPE  H16R17937   3.452   4.572   7.860  1.1190 -0.8304  0.5139
  160SAPE  H16S17938   3.354   4.542   7.710  1.0541 -0.8499 -1.6095
  160SAPE  C21717939   3.569   4.525   7.694 -0.1790 -0.5186  0.0468
  160SAPE  H17R17940   3.657   4.491   7.752  0.0303 -0.2703 -0.1269
  160SAPE  H17S17941   3.582   4.635   7.687 -0.7357 -0.4087  0.6599
  160SAPE  C21817942   3.570   4.459   7.553 -0.7428  0.5747  0.2728
  160SAPE  H18R17943   3.554   4.349   7.558 -0.0911  0.4943  0.6142
  160SAPE  H18S17944   3.668   4.468   7.500 -0.3321 -0.2622  0.8685
  160SAPE  C21917945   3.469   4.527   7.452  0.0863 -0.1324  0.6390
  160SAPE  H19R17946   3.466   4.635   7.476 -1.1453 -0.0696  0.1998
  160SAPE  H19S17947   3.363   4.496   7.465  0.1708 -0.6876  0.0583
  160SAPE  C22017948   3.503   4.511   7.298 -0.0394 -0.0625 -0.6846
  160SAPE  H20R17949   3.449   4.587   7.238  0.3701 -0.0685 -1.0650
  160SAPE  H20S17950   3.493   4.405   7.265 -0.3957 -0.3692  0.3729
  160SAPE  H20T17951   3.612   4.529   7.289  0.1307 -1.0964 -0.8109
  160SAPE   C3317952   4.013   4.666   7.161 -0.3239  0.0891 -0.7965
  160SAPE   H3X17953   3.955   4.701   7.073 -1.2451  0.5606 -0.0142
  160SAPE   H3Y17954   4.116   4.707   7.153 -0.4976  1.0378  1.5032
  160SAPE   C3417955   3.969   4.726   7.296  0.2538 -0.5311  0.0360
  160SAPE   H4X17956   3.866   4.689   7.311  0.1364  0.2605  1.2936
  160SAPE   H4Y17957   3.961   4.837   7.286  1.0526 -0.5284 -0.6664
  160SAPE   C3517958   4.070   4.707   7.409  0.3911 -0.1011  0.4122
  160SAPE   H5X17959   4.164   4.759   7.381  1.0663 -1.5854 -0.0927
  160SAPE   H5Y17960   4.086   4.598   7.420  0.7045  0.0956  2.1898
  160SAPE   C3617961   4.023   4.772   7.536  0.0241  0.4974  0.3842
  160SAPE   H6X17962   3.929   4.725   7.572  0.1292 -1.2142 -1.5574
  160SAPE   H6Y17963   4.006   4.881   7.521 -2.8237 -0.0254 -0.3611
  160SAPE   C3717964   4.126   4.762   7.651  1.0080 -0.0707 -0.4058
  160SAPE   H7X17965   4.230   4.774   7.613  0.2707  3.5464 -1.5337
  160SAPE   H7Y17966   4.106   4.662   7.695  1.3376  1.4215  3.3292
  160SAPE   C3817967   4.114   4.857   7.765  0.4651 -0.1991  0.0599
  160SAPE   H8X17968   4.004   4.867   7.777  0.2064 -2.7104  0.0627
  160SAPE   H8Y17969   4.161   4.953   7.734  1.2259 -0.4764  0.3534
  160SAPE   C3917970   4.183   4.807   7.890  0.4771  0.1365  0.0939
  160SAPE   H9X17971   4.285   4.771   7.864 -1.2817 -2.2085 -4.0609
  160SAPE   H9Y17972   4.142   4.709   7.920 -0.2226  0.4605  0.1996
  160SAPE  C31017973   4.179   4.908   8.003  0.5791 -0.0219 -0.3428
  160SAPE  H10X17974   4.074   4.940   8.020  0.0261 -1.3826 -1.1291
  160SAPE  H10Y17975   4.236   4.999   7.976 -2.5657  2.0312 -0.4072
  160SAPE  C31117976   4.225   4.848   8.133 -0.2646  0.4719 -0.2938
  160SAPE  H11X17977   4.208   4.925   8.212  0.2606  1.1502 -0.8388
  160SAPE  H11Y17978   4.334   4.834   8.117  0.0374 -0.5669  2.2787
  160SAPE  C31217979   4.161   4.712   8.173  0.0837  0.3833 -0.3313
  160SAPE  H12X17980   4.195   4.624   8.115 -0.0279  1.2600 -1.7580
  160SAPE  H12Y17981   4.054   4.703   8.147 -0.1138 -0.9619  0.9343
  160SAPE  C31317982   4.168   4.685   8.321  0.2101  0.0481  0.1146
  160SAPE  H13X17983   4.107   4.757   8.381  2.5880  2.9013 -0.7766
  160SAPE  H13Y17984   4.276   4.680   8.347  0.3968  0.5982 -0.5443
  160SAPE  C31417985   4.113   4.551   8.365 -0.5230 -0.2048  0.1800
  160SAPE  H14X17986   4.020   4.529   8.309 -1.7376  1.7586  1.3484
  160SAPE  H14Y17987   4.087   4.547   8.473 -0.1534 -1.6326  0.2187
  160SAPE  C31517988   4.219   4.442   8.339 -0.6738  0.0932 -0.0110
  160SAPE  H15X17989   4.314   4.457   8.394 -0.4740  0.1657 -0.3731
  160SAPE  H15Y17990   4.243   4.440   8.230  0.1565  2.0565  0.1135
  160SAPE  C31617991   4.161   4.297   8.351 -0.8112  0.6189 -0.5837
  160SAPE  H16X17992   4.117   4.280   8.451 -0.8577 -0.5551 -0.7958
  160SAPE  H16Y17993   4.245   4.225   8.344 -1.6129 -0.4443  0.3995
  160SAPE  C31717994   4.050   4.252   8.258  0.5274 -0.0388  0.0733
  160SAPE  H17X17995   4.084   4.280   8.156 -0.4562 -0.7428 -0.4595
  160SAPE  H17Y17996   3.948   4.294   8.272  1.1305  1.4868 -0.1032
  160SAPE  C31817997   4.039   4.102   8.237  0.7209  0.2541  0.2608
  160SAPE  H18X17998   3.993   4.050   8.324  0.0675  0.1266 -0.1456
  160SAPE  H18Y17999   4.141   4.069   8.210  0.8064  0.1924  0.6604
  160SAPE  H18Z18000   3.965   4.079   8.156  0.6502  0.9443  0.1316
  161SAPE     N18001   6.086   2.822   6.049  0.2472  0.1137  0.5482
  161SAPE   HN118002   6.007   2.773   6.003  0.8450 -0.7910  0.4708
  161SAPE   HN218003   6.053   2.865   6.137 -0.8035  0.4003  0.0181
  161SAPE   HN318004   6.125   2.893   5.984  1.1374 -1.9665 -1.2593
  161SAPE   C1218005   6.193   2.728   6.087  0.7629  0.1179  0.4032
  161SAPE  H12A18006   6.270   2.778   6.150  0.3926  0.0233  0.9368
  161SAPE  H12B18007   6.237   2.701   5.989  0.0687  0.8651 -0.1297
  161SAPE   C1118008   6.139   2.600   6.158 -0.1558  0.3225 -0.3213
  161SAPE  H11A18009   6.099   2.642   6.253  1.1304 -1.0410  0.8537
  161SAPE  H11B18010   6.225   2.533   6.180 -1.5339 -0.9738  1.2382
  161SAPE     P18011   5.981   2.407   6.148  0.4556 -0.0948  0.2947
  161SAPE   O1318012   5.835   2.395   6.115 -0.0671  0.2551 -0.8861
  161SAPE   O1418013   6.081   2.307   6.111  0.3804 -0.6730 -0.5262
  161SAPE   O1218014   6.029   2.544   6.090  0.5796  0.1661  0.2999
  161SAPE   O1118015   5.990   2.431   6.304  0.6807  0.4169 -0.3098
  161SAPE    C118016   6.086   2.371   6.390  0.7960 -0.5918  0.0371
  161SAPE    HA18017   6.185   2.349   6.344  1.1769  0.1020  0.5079
  161SAPE    HB18018   6.109   2.450   6.465  1.3307 -0.5052 -0.2170
  161SAPE    C218019   6.043   2.249   6.464 -0.9509 -0.2552 -0.1457
  161SAPE    HS18020   6.027   2.169   6.389 -0.6539 -1.6277  1.2267
  161SAPE   O2118021   5.921   2.283   6.534 -0.5722  0.1066  0.3550
  161SAPE   C2118022   5.860   2.188   6.595  0.0310 -0.2582  0.4344
  161SAPE   O2218023   5.894   2.067   6.595 -0.3776 -0.3957 -0.0070
  161SAPE   C2218024   5.737   2.237   6.669 -0.1014  0.6240 -0.0505
  161SAPE   H2R18025   5.666   2.265   6.588 -0.3229 -0.5971 -0.2948
  161SAPE   H2S18026   5.696   2.160   6.737  3.0619 -0.7789  0.3429
  161SAPE    C318027   6.165   2.203   6.552  0.2696  0.3715  0.0647
  161SAPE    HX18028   6.239   2.175   6.473 -1.5387 -3.3671 -0.3972
  161SAPE    HY18029   6.138   2.110   6.604 -1.8937  1.1726  0.4254
  161SAPE   O3118030   6.233   2.299   6.632  0.2727  0.6579  0.2993
  161SAPE   C3118031   6.173   2.311   6.752  0.7848 -0.4704  0.5914
  161SAPE   O3218032   6.095   2.230   6.799  0.5264  0.0220  0.0227
  161SAPE   C3218033   6.235   2.434   6.825 -0.0539  1.0218  0.2939
  161SAPE   H2X18034   6.253   2.509   6.745 -0.2523  0.3563 -0.3785
  161SAPE   H2Y18035   6.328   2.392   6.868 -1.8410 -3.2858  0.2648
  161SAPE   C2318036   5.757   2.355   6.763 -0.5580 -0.4055 -0.0998
  161SAPE   H3R18037   5.800   2.436   6.699  0.6286 -2.4592 -1.9840
  161SAPE   H3S18038   5.838   2.326   6.833  0.3916  1.1541 -0.5200
  161SAPE   C2418039   5.636   2.401   6.844  0.5668 -0.8622 -0.3802
  161SAPE   H4R18040   5.581   2.305   6.858  1.0810 -0.9275  1.3805
  161SAPE   H4S18041   5.579   2.477   6.786  1.0979 -0.3708 -0.2648
  161SAPE   C2518042   5.678   2.461   6.983  0.4600  0.0548  0.3409
  161SAPE   H5R18043   5.711   2.564   6.963 -0.4678  0.2452 -0.2693
  161SAPE   C2618044   5.674   2.401   7.098  0.0698  0.1192 -0.2498
  161SAPE   H6R18045   5.716   2.465   7.177  0.3346  0.8246 -0.9629
  161SAPE   C2718046   5.630   2.254   7.128 -0.0416  0.1473 -0.7964
  161SAPE   H7R18047   5.643   2.195   7.034  1.3993 -0.8401  0.0073
  161SAPE   H7S18048   5.524   2.250   7.160 -0.1355  1.4504 -0.9185
  161SAPE   C2818049   5.710   2.182   7.233 -0.0076 -0.5792  0.6412
  161SAPE   H8R18050   5.781   2.108   7.193  2.1337  1.7378  0.0369
  161SAPE   C2918051   5.692   2.190   7.363 -0.1565 -0.0267 -1.0406
  161SAPE   H9R18052   5.760   2.132   7.427  0.5787  0.8907 -0.9746
  161SAPE  C21018053   5.588   2.283   7.430 -0.2162 -0.1146 -0.2086
  161SAPE  H10R18054   5.492   2.283   7.375 -0.0766 -0.5928 -0.4592
  161SAPE  H10S18055   5.628   2.386   7.417  0.8109 -0.3988  0.6498
  161SAPE  C21118056   5.570   2.243   7.577 -0.3598  0.5594  0.2354
  161SAPE  H11R18057   5.504   2.156   7.588  1.8690 -1.1444  0.5131
  161SAPE  C21218058   5.626   2.305   7.682 -0.2576 -0.0568  0.0236
  161SAPE  H12R18059   5.601   2.263   7.781 -1.9209  0.7792 -0.0256
  161SAPE  C21318060   5.726   2.416   7.671 -0.3663 -0.1258  0.5104
  161SAPE  H13R18061   5.797   2.395   7.588  0.7791 -0.5587  1.5981
  161SAPE  H13S18062   5.779   2.422   7.768  1.1766  0.3725 -0.3493
  161SAPE  C21418063   5.664   2.555   7.648 -0.0876 -0.4245  0.5438
  161SAPE  H14R18064   5.669   2.591   7.544 -0.7380  1.0324  1.0050
  161SAPE  C21518065   5.606   2.635   7.742 -0.7829  0.5338 -0.5677
  161SAPE  H15R18066   5.561   2.722   7.692 -0.0368  1.5664  0.5189
  161SAPE  C21618067   5.579   2.599   7.889 -1.0747 -0.7024 -0.1450
  161SAPE  H16R18068   5.585   2.490   7.908 -1.7773 -0.4669  1.4681
  161SAPE  H16S18069   5.473   2.625   7.909  0.1817  0.7471  5.3461
  161SAPE  C21718070   5.665   2.682   7.988 -0.0491 -0.6878  0.9172
  161SAPE  H17R18071   5.595   2.766   8.007 -1.1064 -1.1622 -0.7579
  161SAPE  H17S18072   5.756   2.718   7.935 -1.3141  0.6385 -0.3833
  161SAPE  C21818073   5.706   2.609   8.121 -0.1579  0.7926  1.4887
  161SAPE  H18R18074   5.762   2.516   8.100  0.7407  1.3723  1.3049
  161SAPE  H18S18075   5.610   2.584   8.172  0.2022  0.4496  2.0047
  161SAPE  C21918076   5.793   2.701   8.205  0.2486  0.1437  0.0358
  161SAPE  H19R18077   5.756   2.806   8.209 -0.2176  0.0151 -0.8374
  161SAPE  H19S18078   5.896   2.715   8.168  0.0183  1.9543  0.0358
  161SAPE  C22018079   5.796   2.665   8.358  0.1274  0.6175  0.2556
  161SAPE  H20R18080   5.689   2.652   8.383  0.3378  1.0888  1.4403
  161SAPE  H20S18081   5.841   2.753   8.409 -0.6482 -0.1427  2.3073
  161SAPE  H20T18082   5.858   2.574   8.376  1.3371  1.2273 -0.7387
  161SAPE   C3318083   6.122   2.492   6.914  1.2544  0.3492  0.7314
  161SAPE   H3X18084   6.082   2.411   6.979 -0.1709 -0.4236 -1.0514
  161SAPE   H3Y18085   6.046   2.532   6.844  0.8724 -1.1983  0.2227
  161SAPE   C3418086   6.164   2.605   7.004  0.2889 -0.3218  0.4544
  161SAPE   H4X18087   6.073   2.641   7.056 -0.1388 -0.0573 -0.4658
  161SAPE   H4Y18088   6.196   2.690   6.940 -1.6590  0.5287  0.5826
  161SAPE   C3518089   6.277   2.563   7.095 -0.2620 -0.5085  0.1396
  161SAPE   H5X18090   6.321   2.644   7.157 -0.5963 -0.9434  0.9401
  161SAPE   H5Y18091   6.367   2.536   7.036 -0.8195  2.5795 -2.2449
  161SAPE   C3618092   6.245   2.455   7.202 -0.5111  0.9493  0.8778
  161SAPE   H6X18093   6.263   2.355   7.156 -1.0022  0.1042  2.4671
  161SAPE   H6Y18094   6.135   2.452   7.215 -0.5925 -2.8306 -0.1508
  161SAPE   C3718095   6.335   2.479   7.325 -0.2839  0.0901 -0.8722
  161SAPE   H7X18096   6.306   2.576   7.370  0.0875  0.9687 -2.4677
  161SAPE   H7Y18097   6.438   2.492   7.285 -0.1043  0.5445 -0.2567
  161SAPE   C3818098   6.338   2.363   7.422 -0.3699  0.4003 -0.5843
  161SAPE   H8X18099   6.398   2.404   7.506  0.5317  0.0920 -1.0714
  161SAPE   H8Y18100   6.405   2.285   7.380 -0.4525  0.9916 -1.8377
  161SAPE   C3918101   6.205   2.316   7.466 -0.0009 -0.2893 -0.0762
  161SAPE   H9X18102   6.145   2.272   7.383 -0.3367  2.0137 -1.1136
  161SAPE   H9Y18103   6.144   2.404   7.494 -0.3273  0.2094 -2.2774
  161SAPE  C31018104   6.212   2.231   7.592 -0.5864 -0.4520  0.1579
  161SAPE  H10X18105   6.273   2.290   7.664 -1.8873  0.3546  0.6031
  161SAPE  H10Y18106   6.266   2.139   7.561  1.8750  1.4363 -1.4260
  161SAPE  C31118107   6.071   2.208   7.657  0.3502  0.1380 -0.1386
  161SAPE  H11X18108   6.014   2.122   7.615  1.3562 -0.9411  0.6545
  161SAPE  H11Y18109   6.007   2.297   7.642  1.3069  1.1772  1.7174
  161SAPE  C31218110   6.082   2.182   7.806  0.8346  0.0835  0.0635
  161SAPE  H12X18111   6.134   2.269   7.852 -2.4500  0.6184  2.9823
  161SAPE  H12Y18112   6.139   2.092   7.836  0.7312 -0.3657 -1.0728
  161SAPE  C31318113   5.944   2.174   7.870 -0.7435 -0.5560  0.2518
  161SAPE  H13X18114   5.895   2.077   7.847  0.9900 -1.7477  1.4643
  161SAPE  H13Y18115   5.873   2.253   7.840 -1.6281 -1.3737  0.1675
  161SAPE  C31418116   5.944   2.183   8.018 -0.1350 -0.1015 -0.2103
  161SAPE  H14X18117   5.989   2.277   8.056  0.7088  0.6168 -2.9161
  161SAPE  H14Y18118   6.009   2.098   8.049 -1.2890 -0.5776  0.9585
  161SAPE  C31518119   5.806   2.152   8.081 -0.2613 -0.2255 -0.4487
  161SAPE  H15X18120   5.778   2.045   8.080 -1.3765  0.0668 -0.4577
  161SAPE  H15Y18121   5.732   2.208   8.021 -2.2560 -1.0278  1.2050
  161SAPE  C31618122   5.797   2.221   8.216  0.0323  0.1742  0.1360
  161SAPE  H16X18123   5.827   2.326   8.198 -1.2064  0.6319  0.6918
  161SAPE  H16Y18124   5.875   2.185   8.287  1.3692  0.9224 -0.9550
  161SAPE  C31718125   5.655   2.231   8.283  0.4573  0.0727 -0.1600
  161SAPE  H17X18126   5.627   2.127   8.311 -0.1159  0.5683  1.1270
  161SAPE  H17Y18127   5.592   2.274   8.202 -2.0411 -1.2047  1.0485
  161SAPE  C31818128   5.663   2.325   8.400  0.1319  0.2676  0.0950
  161SAPE  H18X18129   5.714   2.416   8.364 -0.3289  0.6912  0.5141
  161SAPE  H18Y18130   5.728   2.279   8.478  1.2849  0.1282 -0.9433
  161SAPE  H18Z18131   5.563   2.357   8.436  0.2676  2.5104 -1.4504
  162SAPE     N18132   4.378   5.114   5.868 -0.3759  0.2495  0.1928
  162SAPE   HN118133   4.350   5.210   5.842  0.2449  0.0224 -1.3874
  162SAPE   HN218134   4.451   5.131   5.940 -1.0998 -1.6786  1.4399
  162SAPE   HN318135   4.411   5.066   5.781 -0.7961 -2.5140  1.4877
  162SAPE   C1218136   4.256   5.035   5.910  0.4386  0.3760 -0.5909
  162SAPE  H12A18137   4.291   4.931   5.930  1.5325  0.3142 -2.6458
  162SAPE  H12B18138   4.195   5.015   5.819  1.1365 -0.3462 -0.9037
  162SAPE   C1118139   4.184   5.098   6.029  0.0982 -0.1336  0.2495
  162SAPE  H11A18140   4.260   5.110   6.109 -1.5761  2.2224  1.5359
  162SAPE  H11B18141   4.107   5.027   6.068  0.3080 -0.7476 -0.4423
  162SAPE     P18142   4.068   5.319   6.097  0.2177 -0.0631 -0.0458
  162SAPE   O1318143   4.076   5.455   6.040  0.1192  0.1791  0.0417
  162SAPE   O1418144   3.937   5.268   6.139 -0.0532  0.3003 -0.1385
  162SAPE   O1218145   4.122   5.219   5.987  0.3040  0.5929  0.3938
  162SAPE   O1118146   4.165   5.303   6.219  0.0312 -0.5484 -0.2308
  162SAPE    C118147   4.274   5.390   6.245  0.2942 -0.2229 -0.3333
  162SAPE    HA18148   4.364   5.363   6.187  0.2729  0.9319 -0.9174
  162SAPE    HB18149   4.249   5.494   6.216 -0.7451 -0.1409  0.8121
  162SAPE    C218150   4.314   5.386   6.395  0.1699  0.3963  0.5152
  162SAPE    HS18151   4.390   5.463   6.416  0.2482  0.9384 -1.6617
  162SAPE   O2118152   4.341   5.251   6.435  0.0967 -0.7646  0.0246
  162SAPE   C2118153   4.467   5.211   6.405 -0.0330 -0.6022  0.3819
  162SAPE   O2218154   4.553   5.282   6.355  0.2478 -0.1243 -0.2878
  162SAPE   C2218155   4.498   5.071   6.438 -0.1370  0.4706  0.2345
  162SAPE   H2R18156   4.425   5.003   6.390  0.5617  0.6636 -1.1345
  162SAPE   H2S18157   4.595   5.059   6.384 -0.0642  0.0384  0.4635
  162SAPE    C318158   4.190   5.433   6.483  0.2401  0.2688  0.1436
  162SAPE    HX18159   4.101   5.368   6.466  0.6957 -0.1872 -0.5289
  162SAPE    HY18160   4.162   5.533   6.443  1.1960 -0.1604 -1.6527
  162SAPE   O3118161   4.233   5.442   6.624 -0.4683  0.4849 -0.2398
  162SAPE   C3118162   4.152   5.519   6.695 -0.4447 -0.2325 -0.4910
  162SAPE   O3218163   4.056   5.582   6.653 -0.6229  0.5747 -0.7779
  162SAPE   C3218164   4.187   5.503   6.840 -0.1668  0.1632  0.0489
  162SAPE   H2X18165   4.276   5.441   6.864 -0.6082  0.5840  2.9036
  162SAPE   H2Y18166   4.098   5.446   6.875  0.3204 -0.7689 -0.2075
  162SAPE   C2318167   4.516   5.046   6.591 -0.2749 -0.2504 -0.0098
  162SAPE   H3R18168   4.546   4.943   6.617  1.5895  0.1251 -0.5735
  162SAPE   H3S18169   4.424   5.070   6.648  0.0683 -0.3766  0.6011
  162SAPE   C2418170   4.628   5.134   6.647 -0.5776  0.4181  0.1612
  162SAPE   H4R18171   4.604   5.242   6.652  0.0617  0.5824 -0.2860
  162SAPE   H4S18172   4.706   5.138   6.568  1.2878 -1.5206  1.8096
  162SAPE   C2518173   4.686   5.090   6.783  0.4042  0.2849 -0.0144
  162SAPE   H5R18174   4.715   4.984   6.793  1.7573  0.8567  2.4759
  162SAPE   C2618175   4.713   5.163   6.892 -0.4439 -0.2546 -0.4329
  162SAPE   H6R18176   4.752   5.123   6.987  1.1895  1.3123 -0.4131
  162SAPE   C2718177   4.688   5.310   6.902  0.1135 -1.1316  0.2139
  162SAPE   H7R18178   4.582   5.328   6.876  0.0618 -1.4383  0.2174
  162SAPE   H7S18179   4.747   5.359   6.821  1.4347 -2.7670  0.1540
  162SAPE   C2818180   4.733   5.376   7.028 -0.5770  0.2660 -0.0612
  162SAPE   H8R18181   4.839   5.405   7.025 -0.5281 -0.0653 -3.4595
  162SAPE   C2918182   4.667   5.391   7.147 -0.5274  1.1890  0.2928
  162SAPE   H9R18183   4.720   5.439   7.230  2.4357 -2.4707  0.6663
  162SAPE  C21018184   4.525   5.347   7.168 -0.5138 -0.5224  0.0740
  162SAPE  H10R18185   4.471   5.297   7.085 -1.5498 -0.7972  0.8973
  162SAPE  H10S18186   4.466   5.437   7.195  0.1124 -0.2872  0.6738
  162SAPE  C21118187   4.525   5.255   7.293 -0.0732 -0.0799  0.2949
  162SAPE  H11R18188   4.574   5.158   7.275 -0.8483 -0.5353  0.6653
  162SAPE  C21218189   4.480   5.266   7.418 -0.4685  0.2573 -0.0248
  162SAPE  H12R18190   4.495   5.176   7.478 -0.5472  0.4590  0.3012
  162SAPE  C21318191   4.406   5.380   7.486  0.1131 -0.4977 -0.0978
  162SAPE  H13R18192   4.299   5.357   7.506  0.1260 -0.9153 -0.4960
  162SAPE  H13S18193   4.408   5.468   7.418 -0.3178 -0.0464  0.4674
  162SAPE  C21418194   4.457   5.438   7.611 -0.7049  0.1334  0.4104
  162SAPE  H14R18195   4.545   5.501   7.595  1.1228 -1.9714  1.7818
  162SAPE  C21518196   4.428   5.402   7.737 -0.4608  0.0260  0.0736
  162SAPE  H15R18197   4.468   5.453   7.826 -0.6210 -0.6127  0.5147
  162SAPE  C21618198   4.317   5.306   7.769  0.3635  0.3607 -0.1112
  162SAPE  H16R18199   4.363   5.207   7.790 -1.1339 -0.5529 -1.0751
  162SAPE  H16S18200   4.253   5.288   7.681  0.6739 -0.1546 -0.2319
  162SAPE  C21718201   4.223   5.350   7.883  0.1693  0.5891 -0.0989
  162SAPE  H17R18202   4.137   5.281   7.897  0.4608  0.2815  0.1728
  162SAPE  H17S18203   4.191   5.453   7.855  0.8356  1.1221  1.0865
  162SAPE  C21818204   4.288   5.338   8.019 -0.0037  0.3507  0.0299
  162SAPE  H18R18205   4.379   5.400   8.007  0.0089 -0.0421 -2.0882
  162SAPE  H18S18206   4.310   5.231   8.042 -2.7286  0.0658  1.5497
  162SAPE  C21918207   4.198   5.383   8.134  0.2540  0.2703  0.1197
  162SAPE  H19R18208   4.181   5.489   8.107  0.3656 -0.0354 -1.1956
  162SAPE  H19S18209   4.254   5.374   8.229  1.3654  1.4623 -0.4087
  162SAPE  C22018210   4.064   5.305   8.155  0.8624  0.0967  0.8804
  162SAPE  H20R18211   4.008   5.298   8.060 -0.9206 -1.6689  2.0061
  162SAPE  H20S18212   4.008   5.357   8.236  2.0532  2.6905  0.0755
  162SAPE  H20T18213   4.080   5.201   8.190 -0.2822  0.4041  2.3834
  162SAPE   C3318214   4.192   5.632   6.924 -0.3075 -0.1097  0.3047
  162SAPE   H3X18215   4.121   5.703   6.876 -0.9192 -0.5269  0.5854
  162SAPE   H3Y18216   4.296   5.668   6.909 -1.1008  1.2140 -2.3070
  162SAPE   C3418217   4.155   5.607   7.071 -0.8067 -0.1492 -0.0440
  162SAPE   H4X18218   4.209   5.518   7.109 -2.0187 -0.9441 -0.1629
  162SAPE   H4Y18219   4.048   5.577   7.077 -1.2325  0.6137 -3.2856
  162SAPE   C3518220   4.164   5.733   7.157  0.0253 -0.0328  0.4904
  162SAPE   H5X18221   4.085   5.802   7.118  1.8628  4.4098  4.1752
  162SAPE   H5Y18222   4.260   5.788   7.143  1.0340 -2.0399 -0.7002
  162SAPE   C3618223   4.142   5.702   7.310  0.3736  0.1221  0.1985
  162SAPE   H6X18224   4.215   5.629   7.350  1.7720  1.6876  0.5385
  162SAPE   H6Y18225   4.044   5.651   7.326 -0.0250  0.4215 -1.2121
  162SAPE   C3718226   4.147   5.819   7.401 -0.3422 -0.0708 -1.0553
  162SAPE   H7X18227   4.062   5.881   7.366 -0.4342  0.6031  0.3411
  162SAPE   H7Y18228   4.246   5.870   7.390  0.1068 -0.5647  0.6677
  162SAPE   C3818229   4.130   5.777   7.554  0.3462 -0.1455 -0.1508
  162SAPE   H8X18230   4.201   5.691   7.559  0.4076 -0.3892 -3.5273
  162SAPE   H8Y18231   4.034   5.731   7.584 -0.2092  0.4218 -1.0096
  162SAPE   C3918232   4.165   5.897   7.636  0.2045 -0.1280 -0.6723
  162SAPE   H9X18233   4.090   5.977   7.618  0.4298  0.3617  0.5284
  162SAPE   H9Y18234   4.270   5.932   7.620  0.3777 -1.8251 -3.5156
  162SAPE  C31018235   4.164   5.858   7.786 -0.0691  0.6782 -0.0547
  162SAPE  H10X18236   4.247   5.793   7.818 -1.1150 -0.0012  1.3536
  162SAPE  H10Y18237   4.076   5.792   7.799  1.3187 -1.1608  0.1446
  162SAPE  C31118238   4.143   5.985   7.876 -0.8852 -0.2834 -0.5882
  162SAPE  H11X18239   4.061   6.051   7.841 -0.4143 -0.5058 -2.1599
  162SAPE  H11Y18240   4.239   6.039   7.881 -0.7251 -0.5543 -0.6823
  162SAPE  C31218241   4.096   5.938   8.018 -1.0043  0.7286 -0.1212
  162SAPE  H12X18242   4.176   5.875   8.063  0.9909  3.0515 -0.2876
  162SAPE  H12Y18243   3.994   5.896   8.012 -0.0230 -1.4313 -2.4033
  162SAPE  C31318244   4.081   6.055   8.107 -0.2264 -0.4307  0.6498
  162SAPE  H13X18245   4.002   6.114   8.057 -2.8341 -2.0650  2.6774
  162SAPE  H13Y18246   4.167   6.125   8.099 -0.8862  0.5921  2.2453
  162SAPE  C31418247   4.064   6.021   8.257 -0.3145  0.2196 -0.4360
  162SAPE  H14X18248   4.064   6.110   8.323 -1.2214 -0.9258  1.1484
  162SAPE  H14Y18249   4.146   5.951   8.284 -0.5765  1.4627  3.8687
  162SAPE  C31518250   3.929   5.953   8.289 -0.5641 -0.9160  0.2376
  162SAPE  H15X18251   3.868   5.923   8.201 -1.7557 -2.7041  1.6347
  162SAPE  H15Y18252   3.877   6.039   8.337  2.0468  1.3753 -0.8812
  162SAPE  C31618253   3.948   5.835   8.384  0.1489 -0.1312  0.0369
  162SAPE  H16X18254   3.984   5.877   8.480  0.1556  0.9374 -0.4190
  162SAPE  H16Y18255   4.030   5.780   8.333  1.1968  0.4384  1.0774
  162SAPE  C31718256   3.833   5.735   8.417 -0.0207  0.1699  0.6324
  162SAPE  H17X18257   3.778   5.690   8.331 -0.4761 -0.0936  1.0576
  162SAPE  H17Y18258   3.751   5.780   8.476 -1.5534 -0.3067 -1.0870
  162SAPE  C31818259   3.887   5.626   8.506 -0.4475 -0.1877 -0.1309
  162SAPE  H18X18260   3.973   5.585   8.449 -0.3526  0.5016 -0.4938
  162SAPE  H18Y18261   3.818   5.541   8.524 -0.3163  0.0451  1.6086
  162SAPE  H18Z18262   3.927   5.668   8.601 -0.3112 -2.2246  0.7379
  163SAPE     N18263   3.133   3.660   6.763 -0.1615 -0.5768 -0.0735
  163SAPE   HN118264   3.054   3.641   6.698 -0.1692 -0.6250 -0.0495
  163SAPE   HN218265   3.118   3.603   6.848 -2.8146  2.8227  1.8764
  163SAPE   HN318266   3.136   3.759   6.795  1.7189 -0.2008 -1.3062
  163SAPE   C1218267   3.256   3.620   6.703 -0.1458 -0.9055 -0.2741
  163SAPE  H12A18268   3.330   3.616   6.786 -0.1627 -2.2982 -0.3108
  163SAPE  H12B18269   3.288   3.690   6.623 -0.2466 -1.7289 -1.0339
  163SAPE   C1118270   3.260   3.475   6.650 -0.5944  0.3250 -0.0616
  163SAPE  H11A18271   3.237   3.399   6.728 -2.6278 -0.8258 -1.7377
  163SAPE  H11B18272   3.362   3.456   6.609  0.0043  0.7451  1.2155
  163SAPE     P18273   3.085   3.339   6.496  0.2075  0.4360 -0.4852
  163SAPE   O1318274   2.951   3.326   6.567 -0.6102  0.2562  0.0726
  163SAPE   O1418275   3.083   3.343   6.345 -0.3326  0.1557 -0.4847
  163SAPE   O1218276   3.170   3.469   6.540 -0.3710  0.1974  0.0058
  163SAPE   O1118277   3.172   3.226   6.546 -0.4643  0.4512  0.6586
  163SAPE    C118278   3.133   3.102   6.598 -0.3522  0.2646 -0.2568
  163SAPE    HA18279   3.030   3.072   6.565  0.7755 -1.6020 -2.2917
  163SAPE    HB18280   3.207   3.031   6.555  0.5455  0.2903  1.2146
  163SAPE    C218281   3.143   3.086   6.753 -0.2054 -0.8288  0.4188
  163SAPE    HS18282   3.077   3.168   6.788  0.3735  0.3212 -1.1093
  163SAPE   O2118283   3.280   3.113   6.792 -0.3576 -0.2662  0.1535
  163SAPE   C2118284   3.284   3.191   6.906  0.2599  0.3097 -0.8299
  163SAPE   O2218285   3.192   3.246   6.959 -0.0519  0.4917  0.4295
  163SAPE   C2218286   3.429   3.181   6.954 -0.2606  0.1375  0.3460
  163SAPE   H2R18287   3.432   3.106   7.037 -0.4799 -1.5045 -1.1062
  163SAPE   H2S18288   3.493   3.157   6.866 -1.2899  2.5958 -1.1232
  163SAPE    C318289   3.088   2.949   6.800 -0.1461 -0.5037 -0.1523
  163SAPE    HX18290   3.143   2.856   6.772  0.6815 -0.1259  0.1897
  163SAPE    HY18291   2.997   2.923   6.742 -0.4631  1.4814 -0.5520
  163SAPE   O3118292   3.044   2.937   6.939  0.1630  0.4859  0.1580
  163SAPE   C3118293   3.134   2.881   7.020 -0.3249  0.2687 -0.0236
  163SAPE   O3218294   3.234   2.826   6.988  0.1337  0.1954 -0.0452
  163SAPE   C3218295   3.072   2.895   7.156 -0.5361  0.1982 -0.9502
  163SAPE   H2X18296   2.978   2.837   7.155 -0.6315  0.3365 -0.1671
  163SAPE   H2Y18297   3.055   3.002   7.182  1.4303  0.3168 -0.0468
  163SAPE   C2318298   3.489   3.313   7.009 -0.2891 -0.1090 -0.3725
  163SAPE   H3R18299   3.449   3.333   7.111  1.0836  0.7750  0.0112
  163SAPE   H3S18300   3.445   3.392   6.946  0.3843 -0.1244 -0.8659
  163SAPE   C2418301   3.642   3.316   7.023 -0.2581  0.2180 -0.0689
  163SAPE   H4R18302   3.688   3.303   6.923  0.8333 -1.2187  0.6050
  163SAPE   H4S18303   3.676   3.230   7.085  1.0092  0.7228 -0.0402
  163SAPE   C2518304   3.693   3.451   7.080  0.0711 -0.7953 -1.1409
  163SAPE   H5R18305   3.696   3.527   7.001  1.4116  0.2436 -0.1108
  163SAPE   C2618306   3.735   3.476   7.208 -1.0852 -0.9961  0.4251
  163SAPE   H6R18307   3.780   3.570   7.245 -0.8528 -0.6667 -0.6781
  163SAPE   C2718308   3.730   3.369   7.314 -0.3728 -0.0951 -0.5049
  163SAPE   H7R18309   3.662   3.289   7.278  1.5786 -0.8019 -2.7412
  163SAPE   H7S18310   3.672   3.421   7.393 -2.1747  0.1495 -1.9417
  163SAPE   C2818311   3.858   3.313   7.370 -0.2659  0.4545  0.1999
  163SAPE   H8R18312   3.930   3.274   7.296 -4.2730 -2.6127 -2.3413
  163SAPE   C2918313   3.886   3.283   7.498 -0.3290  0.2522 -0.3388
  163SAPE   H9R18314   3.986   3.238   7.507 -1.1277 -1.5681 -0.2309
  163SAPE  C21018315   3.804   3.303   7.625  0.0691  0.1348  0.0230
  163SAPE  H10R18316   3.698   3.272   7.613  0.9987 -1.8611 -3.4079
  163SAPE  H10S18317   3.794   3.409   7.656  1.5933  0.3312 -0.1270
  163SAPE  C21118318   3.869   3.241   7.742  0.5542 -0.4041  0.0220
  163SAPE  H11R18319   3.923   3.148   7.719  1.5209  0.1494  0.0212
  163SAPE  C21218320   3.854   3.270   7.871 -0.1921 -0.5849  0.6286
  163SAPE  H12R18321   3.917   3.219   7.945  1.4860 -1.1148 -1.1271
  163SAPE  C21318322   3.766   3.383   7.932  0.5767 -0.3333  0.1638
  163SAPE  H13R18323   3.667   3.343   7.962  0.6493 -1.0943 -0.5786
  163SAPE  H13S18324   3.743   3.465   7.861  3.4216  0.0340 -0.4190
  163SAPE  C21418325   3.830   3.437   8.059 -0.8297 -0.3886  1.1021
  163SAPE  H14R18326   3.909   3.509   8.032 -1.9798  0.5865  0.2729
  163SAPE  C21518327   3.772   3.441   8.179  0.0964 -0.2216 -0.1782
  163SAPE  H15R18328   3.826   3.491   8.261  0.1763  2.0398 -1.6039
  163SAPE  C21618329   3.647   3.359   8.212  0.1622  0.5076 -0.5669
  163SAPE  H16R18330   3.663   3.251   8.191 -0.3852  0.5722 -1.3058
  163SAPE  H16S18331   3.555   3.389   8.157 -0.8143 -1.0717  0.1723
  163SAPE  C21718332   3.604   3.368   8.363  0.3749 -0.3182  0.0463
  163SAPE  H17R18333   3.587   3.473   8.395 -1.2228  0.2937 -2.6002
  163SAPE  H17S18334   3.689   3.333   8.425  1.1467  1.5052  0.0437
  163SAPE  C21818335   3.480   3.287   8.419 -0.9998  0.2135  0.6564
  163SAPE  H18R18336   3.478   3.188   8.368 -1.5827 -0.2168  1.5019
  163SAPE  H18S18337   3.397   3.351   8.384 -1.0686  1.1448  2.4890
  163SAPE  C21918338   3.494   3.258   8.569  0.5065 -0.5856  0.0835
  163SAPE  H19R18339   3.495   3.361   8.611 -0.4075  0.1925 -1.7294
  163SAPE  H19S18340   3.592   3.216   8.599  0.7621  0.8904  1.4058
  163SAPE  C22018341   3.371   3.175   8.618  0.7900 -0.5357 -0.3681
  163SAPE  H20R18342   3.391   3.141   8.722  0.9573 -0.4756 -0.3797
  163SAPE  H20S18343   3.351   3.093   8.546  0.3488  1.0295 -2.0689
  163SAPE  H20T18344   3.287   3.248   8.613  2.1942  1.0841 -0.7025
  163SAPE   C3318345   3.171   2.851   7.272 -0.0135 -0.0415  0.1913
  163SAPE   H3X18346   3.261   2.792   7.245  0.5012  1.1650 -0.7536
  163SAPE   H3Y18347   3.119   2.782   7.342 -0.1555 -1.0225 -0.8730
  163SAPE   C3418348   3.231   2.973   7.352 -0.3338  0.1964  0.0608
  163SAPE   H4X18349   3.285   3.031   7.274 -2.7203  0.9102 -1.1247
  163SAPE   H4Y18350   3.309   2.938   7.423  0.1181 -0.8372 -0.9343
  163SAPE   C3518351   3.132   3.072   7.428  0.1300  0.4310  0.3621
  163SAPE   H5X18352   3.105   3.033   7.529 -1.5087  1.4221  0.3335
  163SAPE   H5Y18353   3.037   3.078   7.370  0.1053  0.0501  0.3576
  163SAPE   C3618354   3.195   3.209   7.450 -0.4189 -0.4265  0.2519
  163SAPE   H6X18355   3.118   3.275   7.496 -0.6674 -0.6965  0.2272
  163SAPE   H6Y18356   3.225   3.251   7.351  0.8606  0.7780  1.1309
  163SAPE   C3718357   3.320   3.211   7.537  1.0986 -0.7005 -0.3317
  163SAPE   H7X18358   3.375   3.304   7.509 -1.6472 -0.0546 -3.9417
  163SAPE   H7Y18359   3.369   3.114   7.516 -0.2322 -0.6967 -3.9544
  163SAPE   C3818360   3.290   3.216   7.684 -0.2884 -0.4396  0.6919
  163SAPE   H8X18361   3.251   3.116   7.711  0.5996 -0.5352  1.6427
  163SAPE   H8Y18362   3.203   3.284   7.695  0.8071  1.6518 -2.4772
  163SAPE   C3918363   3.407   3.252   7.773  0.0588  0.1128 -0.0914
  163SAPE   H9X18364   3.458   3.347   7.748  0.9768 -0.3346  0.0855
  163SAPE   H9Y18365   3.482   3.175   7.748 -1.2126 -0.3992 -2.4728
  163SAPE  C31018366   3.359   3.252   7.924 -0.1683 -0.4150  0.1816
  163SAPE  H10X18367   3.448   3.234   7.988 -0.3810 -0.3694  0.4918
  163SAPE  H10Y18368   3.287   3.167   7.929  1.3806 -1.6621  1.4903
  163SAPE  C31118369   3.290   3.383   7.960  0.6530 -0.2398 -0.1724
  163SAPE  H11X18370   3.224   3.412   7.876  0.4266  0.6891  0.3245
  163SAPE  H11Y18371   3.371   3.457   7.978 -0.3918  0.5128  1.4885
  163SAPE  C31218372   3.189   3.371   8.074  0.2673 -0.0697  0.3215
  163SAPE  H12X18373   3.245   3.323   8.157  0.6319  0.6728  0.5091
  163SAPE  H12Y18374   3.102   3.314   8.033  1.4327 -0.1598 -2.1222
  163SAPE  C31318375   3.137   3.505   8.124  0.1423  0.1804 -0.2510
  163SAPE  H13X18376   3.094   3.565   8.041 -1.2255  1.6239  1.4659
  163SAPE  H13Y18377   3.211   3.569   8.175 -0.3136  0.6842 -0.2215
  163SAPE  C31418378   3.021   3.478   8.225 -0.4973 -0.0007 -0.4545
  163SAPE  H14X18379   3.058   3.398   8.293  0.2636 -0.4695 -1.4088
  163SAPE  H14Y18380   2.931   3.447   8.168 -0.6376  0.5289 -0.5206
  163SAPE  C31518381   2.985   3.598   8.320  0.0512  0.1210  0.3730
  163SAPE  H15X18382   3.064   3.675   8.310 -0.6837  0.5728 -2.6680
  163SAPE  H15Y18383   2.979   3.558   8.423 -0.1536 -3.3320 -0.9229
  163SAPE  C31618384   2.848   3.653   8.287 -0.4560  0.1794 -0.0669
  163SAPE  H16X18385   2.771   3.573   8.288 -0.2540 -0.0456  3.2858
  163SAPE  H16Y18386   2.851   3.689   8.182 -1.2836  0.2276 -0.0753
  163SAPE  C31718387   2.798   3.766   8.382  0.5230 -0.1213  0.0048
  163SAPE  H17X18388   2.703   3.782   8.327  1.3188 -1.9464 -1.9909
  163SAPE  H17Y18389   2.872   3.849   8.384  1.9646 -1.4116  2.5504
  163SAPE  C31818390   2.777   3.718   8.528  0.2987  0.1352  0.5270
  163SAPE  H18X18391   2.870   3.686   8.580  0.4070 -0.3098  0.0697
  163SAPE  H18Y18392   2.694   3.645   8.542 -0.1227  0.6378  0.6689
  163SAPE  H18Z18393   2.734   3.798   8.591 -1.0206 -1.4428  1.6890
  164SAPE     N18394   0.064   0.206   5.639 -0.2322  0.1347  0.1673
  164SAPE   HN118395   0.071   0.104   5.623  0.2278  0.1121  0.5173
  164SAPE   HN218396   0.136   0.257   5.583  0.4158 -0.4586  0.4542
  164SAPE   HN318397   0.118   0.219   5.727 -0.6895 -1.3479  0.6726
  164SAPE   C1218398  -0.081   0.251   5.655  0.5623 -0.0980  0.8335
  164SAPE  H12A18399  -0.132   0.217   5.562  2.0133 -2.2507  0.7971
  164SAPE  H12B18400  -0.073   0.362   5.665  0.9466 -0.0470 -0.0337
  164SAPE   C1118401  -0.166   0.191   5.776  0.0624 -0.0274  0.0685
  164SAPE  H11A18402  -0.121   0.092   5.796  0.2060 -0.5114 -2.4263
  164SAPE  H11B18403  -0.269   0.167   5.740 -1.1501  2.5705  1.6679
  164SAPE     P18404  -0.281   0.373   5.915  0.0473 -0.0966  0.2614
  164SAPE   O1318405  -0.287   0.459   5.797  0.6326  0.3631  0.3186
  164SAPE   O1418406  -0.405   0.305   5.950 -0.2782  0.3609 -0.0143
  164SAPE   O1218407  -0.164   0.271   5.900  0.9950  0.1882  0.2507
  164SAPE   O1118408  -0.232   0.464   6.034 -0.7246 -0.1225  0.6164
  164SAPE    C118409  -0.106   0.526   6.056 -0.1534 -0.1993 -0.4360
  164SAPE    HA18410  -0.026   0.505   5.981  0.6665  1.4444 -0.0504
  164SAPE    HB18411  -0.118   0.636   6.047 -1.1842 -0.2833 -0.1614
  164SAPE    C218412  -0.054   0.490   6.204  0.5137  0.1753  1.2358
  164SAPE    HS18413  -0.012   0.387   6.205 -2.0699 -0.9262  4.0490
  164SAPE   O2118414  -0.154   0.503   6.307 -0.3088 -0.1821  0.5578
  164SAPE   C2118415  -0.212   0.401   6.363 -0.7099  0.4797 -0.3179
  164SAPE   O2218416  -0.192   0.283   6.343  0.4504 -0.0848 -0.0026
  164SAPE   C2218417  -0.290   0.453   6.490 -0.6178 -0.3151  0.3013
  164SAPE   H2R18418  -0.378   0.386   6.498 -1.2359  0.6049  1.3598
  164SAPE   H2S18419  -0.226   0.430   6.578 -0.5098  2.6663  1.0698
  164SAPE    C318420   0.060   0.591   6.236 -0.0660 -0.3880 -0.3746
  164SAPE    HX18421   0.020   0.690   6.204 -2.2715 -1.4190 -0.9053
  164SAPE    HY18422   0.153   0.573   6.178 -1.0287 -0.9997 -1.7504
  164SAPE   O3118423   0.096   0.598   6.374  0.0373 -1.2509  0.1164
  164SAPE   C3118424   0.168   0.696   6.415 -0.4703 -0.3004 -0.0798
  164SAPE   O3218425   0.232   0.775   6.346 -0.2520 -0.1569 -0.6249
  164SAPE   C3218426   0.154   0.707   6.562  0.3098  1.1499  0.0144
  164SAPE   H2X18427   0.140   0.814   6.590  2.5236  1.4843 -0.1107
  164SAPE   H2Y18428   0.248   0.681   6.615 -1.8289  0.2494  3.5122
  164SAPE   C2318429  -0.336   0.603   6.487  0.0429  0.4742  0.3895
  164SAPE   H3R18430  -0.386   0.621   6.389  0.6051 -1.6400 -0.3084
  164SAPE   H3S18431  -0.248   0.671   6.482 -0.7541  1.4779 -0.3006
  164SAPE   C2418432  -0.427   0.647   6.600  0.1356 -0.6090 -0.1860
  164SAPE   H4R18433  -0.435   0.757   6.591  0.8456 -0.4889  0.5440
  164SAPE   H4S18434  -0.377   0.642   6.699  0.5404 -0.4405 -0.3791
  164SAPE   C2518435  -0.563   0.587   6.608  0.3539 -0.5796  0.1763
  164SAPE   H5R18436  -0.624   0.612   6.520  3.2197  0.4140 -1.5863
  164SAPE   C2618437  -0.607   0.516   6.715  0.9806  0.7390  0.0714
  164SAPE   H6R18438  -0.704   0.468   6.696  1.9908 -1.3473  0.1073
  164SAPE   C2718439  -0.531   0.472   6.832 -0.1932  0.6141  0.5178
  164SAPE   H7R18440  -0.423   0.476   6.805 -0.7219  1.4887 -1.5794
  164SAPE   H7S18441  -0.543   0.362   6.843  2.1479  0.3405  0.6608
  164SAPE   C2818442  -0.559   0.549   6.960 -0.7969 -0.1679 -0.1021
  164SAPE   H8R18443  -0.632   0.632   6.956  0.9268  1.3933  0.1453
  164SAPE   C2918444  -0.496   0.516   7.073  0.0082  0.0041  0.7164
  164SAPE   H9R18445  -0.533   0.573   7.160  0.1757  2.2523 -0.6242
  164SAPE  C21018446  -0.403   0.400   7.089  0.3874  0.1919  0.0321
  164SAPE  H10R18447  -0.297   0.407   7.058  0.7918 -0.2105  1.2746
  164SAPE  H10S18448  -0.432   0.314   7.024 -1.3939  0.5410  0.3265
  164SAPE  C21118449  -0.412   0.354   7.230 -0.5491  0.0904  0.0882
  164SAPE  H11R18450  -0.516   0.343   7.264  0.5657 -3.7568  2.5439
  164SAPE  C21218451  -0.302   0.335   7.308 -0.4255  0.4711 -0.1050
  164SAPE  H12R18452  -0.321   0.298   7.409  0.1955 -1.3236 -0.6284
  164SAPE  C21318453  -0.151   0.339   7.278  0.5504 -0.4683 -0.0537
  164SAPE  H13R18454  -0.089   0.364   7.367  0.4797  1.0671 -0.4250
  164SAPE  H13S18455  -0.136   0.423   7.208  0.0763 -1.9621 -1.9950
  164SAPE  C21418456  -0.100   0.208   7.219  0.7120 -0.2597  0.1441
  164SAPE  H14R18457  -0.185   0.140   7.201 -0.1530  0.4821  1.4196
  164SAPE  C21518458   0.014   0.160   7.172  0.6480 -0.0685 -0.5309
  164SAPE  H15R18459   0.017   0.056   7.135 -3.0069  0.1423 -1.6265
  164SAPE  C21618460   0.145   0.234   7.163 -0.3498  0.1410  0.4137
  164SAPE  H16R18461   0.226   0.190   7.225 -0.9951 -0.0726  1.1056
  164SAPE  H16S18462   0.124   0.338   7.196 -1.1996  0.3206 -0.6608
  164SAPE  C21718463   0.201   0.243   7.020 -0.3799 -0.1908 -0.2392
  164SAPE  H17R18464   0.132   0.301   6.956  0.4158  0.2000 -0.7469
  164SAPE  H17S18465   0.204   0.138   6.984 -0.9447 -0.7243  1.2086
  164SAPE  C21818466   0.343   0.309   7.028  0.4761  0.3956  0.2052
  164SAPE  H18R18467   0.399   0.242   7.097  2.0563  1.2852 -0.1754
  164SAPE  H18S18468   0.332   0.408   7.078 -1.0796 -0.3518  1.3891
  164SAPE  C21918469   0.408   0.323   6.883  0.2028  0.1734 -0.9077
  164SAPE  H19R18470   0.401   0.223   6.836  2.7333 -1.1216  1.3295
  164SAPE  H19S18471   0.518   0.340   6.891 -0.0679  1.6668 -0.1640
  164SAPE  C22018472   0.342   0.424   6.790  0.1431  0.0754 -0.2732
  164SAPE  H20R18473   0.398   0.406   6.696  0.9574 -1.5482  0.4979
  164SAPE  H20S18474   0.343   0.525   6.836 -2.3274 -0.3573  0.8122
  164SAPE  H20T18475   0.239   0.381   6.783 -0.2202  0.4603  2.3201
  164SAPE   C3318476   0.038   0.617   6.621 -0.3630 -0.8784  0.0052
  164SAPE   H3X18477   0.068   0.512   6.598  1.7144  0.0255 -1.5676
  164SAPE   H3Y18478  -0.061   0.648   6.581  0.6046  1.0913 -0.9358
  164SAPE   C3418479   0.050   0.643   6.774  0.0826  0.1419  0.4877
  164SAPE   H4X18480   0.041   0.751   6.795 -1.9117 -0.2366  1.6835
  164SAPE   H4Y18481   0.142   0.601   6.821  0.3530  2.0150  1.6731
  164SAPE   C3518482  -0.068   0.589   6.849 -0.1441  0.1874 -0.2353
  164SAPE   H5X18483  -0.058   0.479   6.859  0.9002  0.1724 -1.3113
  164SAPE   H5Y18484  -0.165   0.613   6.800 -0.1773 -1.2078 -0.8855
  164SAPE   C3618485  -0.082   0.656   6.997 -0.0870 -0.3475  0.0317
  164SAPE   H6X18486   0.018   0.676   7.041 -0.6305  1.8309  0.3567
  164SAPE   H6Y18487  -0.135   0.587   7.065 -2.4956  0.3162 -1.1062
  164SAPE   C3718488  -0.162   0.790   6.984 -0.4121  0.2455  0.0376
  164SAPE   H7X18489  -0.269   0.775   6.959 -0.6611  2.8982 -0.6620
  164SAPE   H7Y18490  -0.116   0.852   6.904  0.9997  2.2584  2.3358
  164SAPE   C3818491  -0.158   0.877   7.114 -0.2746 -0.3861 -0.1673
  164SAPE   H8X18492  -0.208   0.975   7.101 -0.4236 -0.5475 -0.8442
  164SAPE   H8Y18493  -0.055   0.903   7.146 -0.2360  0.2222 -0.7746
  164SAPE   C3918494  -0.221   0.809   7.237 -0.0640  0.1438  0.5237
  164SAPE   H9X18495  -0.181   0.706   7.244 -0.4919  0.0401  1.4391
  164SAPE   H9Y18496  -0.331   0.804   7.219 -0.1106  0.6780  0.6292
  164SAPE  C31018497  -0.202   0.888   7.362  0.0643 -0.2525 -0.0078
  164SAPE  H10X18498  -0.244   0.988   7.339  1.5338  0.5773  0.8176
  164SAPE  H10Y18499  -0.099   0.904   7.401 -0.8419 -2.4860  3.6163
  164SAPE  C31118500  -0.274   0.835   7.487 -0.2648 -0.8608  0.9214
  164SAPE  H11X18501  -0.357   0.776   7.442  0.1248 -0.3141 -0.5454
  164SAPE  H11Y18502  -0.324   0.916   7.544 -0.1943 -1.3968  1.7592
  164SAPE  C31218503  -0.184   0.753   7.586  0.3197 -0.5808  0.0192
  164SAPE  H12X18504  -0.101   0.818   7.623 -0.2130  0.7301 -1.0311
  164SAPE  H12Y18505  -0.136   0.669   7.532 -0.1312 -0.6882 -0.2167
  164SAPE  C31318506  -0.281   0.697   7.692 -0.3097  0.3729  0.0611
  164SAPE  H13X18507  -0.330   0.605   7.655  0.2921 -1.7832  4.3255
  164SAPE  H13Y18508  -0.354   0.781   7.699 -0.0487  0.7743 -1.6764
  164SAPE  C31418509  -0.205   0.642   7.819 -0.2986 -0.5430 -0.2259
  164SAPE  H14X18510  -0.107   0.591   7.804  0.6666  1.4707 -0.9657
  164SAPE  H14Y18511  -0.269   0.562   7.860  2.4863 -2.2021  1.0547
  164SAPE  C31518512  -0.194   0.749   7.926  0.9733  0.4258 -0.0250
  164SAPE  H15X18513  -0.296   0.792   7.940  0.2847 -0.6367 -1.5875
  164SAPE  H15Y18514  -0.130   0.839   7.914 -0.8066  2.0177  2.0746
  164SAPE  C31618515  -0.159   0.676   8.064  0.0781  0.0043  0.2412
  164SAPE  H16X18516  -0.235   0.596   8.077 -0.0614 -0.1395 -1.3661
  164SAPE  H16Y18517  -0.181   0.750   8.143 -3.1733 -0.2023 -0.4074
  164SAPE  C31718518  -0.017   0.633   8.083 -0.0588  0.2480  1.0683
  164SAPE  H17X18519   0.053   0.629   7.997 -1.0641 -2.4458  0.3048
  164SAPE  H17Y18520  -0.034   0.527   8.113 -0.3292  0.4447  1.6324
  164SAPE  C31818521   0.054   0.723   8.183  0.1029  0.9848  0.3606
  164SAPE  H18X18522   0.157   0.683   8.192  0.8489  2.0511 -2.7910
  164SAPE  H18Y18523   0.008   0.739   8.283 -1.1561 -0.2121 -0.0090
  164SAPE  H18Z18524   0.061   0.823   8.135 -2.2681  0.5957 -0.9014
  165SAPE     N18525   5.921   3.762   6.591 -0.0398 -0.4247  0.0483
  165SAPE   HN118526   6.012   3.796   6.627 -0.2445 -0.5999  0.7492
  165SAPE   HN218527   5.857   3.824   6.645  0.5829  1.2878 -1.1515
  165SAPE   HN318528   5.916   3.665   6.629  1.0718  0.2052  1.9089
  165SAPE   C1218529   5.903   3.768   6.439  0.2071  0.5959 -0.1893
  165SAPE  H12A18530   5.879   3.874   6.417 -0.5768 -0.1386 -3.0048
  165SAPE  H12B18531   5.821   3.699   6.411  1.0752 -0.9288  0.9219
  165SAPE   C1118532   6.036   3.734   6.359 -0.3933 -0.0494  0.2353
  165SAPE  H11A18533   6.111   3.806   6.396 -1.0839 -0.6116  2.7894
  165SAPE  H11B18534   6.021   3.759   6.251 -0.2187  0.3999  0.3159
  165SAPE     P18535   6.162   3.526   6.256 -0.1444 -0.5920 -0.1026
  165SAPE   O1318536   6.052   3.480   6.166 -0.0946 -0.2042  0.1402
  165SAPE   O1418537   6.264   3.614   6.199  0.2158  0.1098 -0.1569
  165SAPE   O1218538   6.086   3.601   6.382  0.2298  0.0800 -0.3936
  165SAPE   O1118539   6.241   3.396   6.322 -0.2144  0.4195  0.7045
  165SAPE    C118540   6.198   3.358   6.451  0.6151 -0.5663 -0.5087
  165SAPE    HA18541   6.093   3.387   6.471  1.4815  0.5284  2.6141
  165SAPE    HB18542   6.208   3.250   6.475 -0.6610 -1.0152 -1.8538
  165SAPE    C218543   6.287   3.431   6.549 -0.3326 -0.1523  0.3340
  165SAPE    HS18544   6.262   3.539   6.545  0.1404 -0.0473  0.0931
  165SAPE   O2118545   6.420   3.411   6.515  0.2806  0.3583 -0.4628
  165SAPE   C2118546   6.503   3.514   6.542  0.5678  1.1074  0.1621
  165SAPE   O2218547   6.466   3.616   6.597 -0.0738 -0.7274 -0.1086
  165SAPE   C2218548   6.634   3.497   6.469 -0.4905  0.3104  0.8430
  165SAPE   H2R18549   6.665   3.390   6.471 -1.1074  0.1220  0.4510
  165SAPE   H2S18550   6.615   3.512   6.360 -0.6533  0.5111  0.8996
  165SAPE    C318551   6.265   3.381   6.697  0.2736  0.0056  0.2428
  165SAPE    HX18552   6.286   3.272   6.700  0.2100  0.0098  0.9067
  165SAPE    HY18553   6.157   3.392   6.719  0.0264 -1.8502 -0.0285
  165SAPE   O3118554   6.351   3.447   6.790  0.3145  0.2172 -0.0753
  165SAPE   C3118555   6.294   3.556   6.856 -0.1047  0.1939  0.2297
  165SAPE   O3218556   6.187   3.608   6.822 -0.4562 -0.1145  1.1574
  165SAPE   C3218557   6.390   3.611   6.962  0.0648 -0.2297  0.3224
  165SAPE   H2X18558   6.453   3.692   6.920 -0.8363  1.1973  1.6590
  165SAPE   H2Y18559   6.453   3.528   6.998 -0.4587 -1.2791 -1.1283
  165SAPE   C2318560   6.755   3.593   6.516 -0.2707 -0.0321 -0.4932
  165SAPE   H3R18561   6.737   3.699   6.490  0.3277  0.0058 -0.7621
  165SAPE   H3S18562   6.847   3.580   6.455 -1.5232  1.0788 -2.6587
  165SAPE   C2418563   6.808   3.586   6.661  0.2181 -0.0808 -0.5002
  165SAPE   H4R18564   6.900   3.649   6.660  1.3034 -1.6033  0.5547
  165SAPE   H4S18565   6.844   3.482   6.682  3.4500  1.0999  0.1447
  165SAPE   C2518566   6.726   3.649   6.768 -0.4240  0.7799  0.4726
  165SAPE   H5R18567   6.635   3.698   6.733 -0.0719  0.8982 -0.2885
  165SAPE   C2618568   6.750   3.636   6.901 -0.0858  0.2120 -0.5178
  165SAPE   H6R18569   6.688   3.689   6.975  0.1307 -2.4468  1.6378
  165SAPE   C2718570   6.864   3.559   6.973 -0.5732  0.4960  1.0008
  165SAPE   H7R18571   6.916   3.618   7.052  1.8422 -1.2847  0.7882
  165SAPE   H7S18572   6.947   3.538   6.903  1.9354  0.0150  4.0204
  165SAPE   C2818573   6.816   3.433   7.037 -0.6404 -0.5141 -0.3973
  165SAPE   H8R18574   6.827   3.356   6.960  0.3720 -1.2131  0.4323
  165SAPE   C2918575   6.804   3.403   7.167 -0.3468  0.1291 -0.2184
  165SAPE   H9R18576   6.733   3.320   7.183  2.1317 -2.1530 -0.6475
  165SAPE  C21018577   6.820   3.491   7.284  0.3365 -0.0522 -0.4014
  165SAPE  H10R18578   6.726   3.544   7.313  0.6730 -1.8978  4.5327
  165SAPE  H10S18579   6.875   3.580   7.246  0.0313  0.0425 -0.6248
  165SAPE  C21118580   6.890   3.425   7.403 -0.3366 -1.0143 -0.2140
  165SAPE  H11R18581   6.997   3.415   7.382 -0.4003  1.2783 -1.8175
  165SAPE  C21218582   6.831   3.389   7.522 -0.4711 -0.4313 -0.6041
  165SAPE  H12R18583   6.894   3.352   7.605  0.1010  1.4479 -0.1782
  165SAPE  C21318584   6.682   3.392   7.554  0.1642  0.3037 -0.2699
  165SAPE  H13R18585   6.659   3.310   7.626 -1.4832  0.8573 -0.1217
  165SAPE  H13S18586   6.620   3.372   7.464  2.4851 -1.2346 -1.5841
  165SAPE  C21418587   6.638   3.525   7.613  0.2887  0.2668 -0.7331
  165SAPE  H14R18588   6.654   3.614   7.551  1.3677 -0.8736 -2.1245
  165SAPE  C21518589   6.578   3.551   7.731 -0.0404 -0.2566  0.3045
  165SAPE  H15R18590   6.535   3.652   7.738  2.6724  0.9637 -0.1729
  165SAPE  C21618591   6.533   3.453   7.831 -0.1861  0.1359 -0.4124
  165SAPE  H16R18592   6.535   3.345   7.804  0.4952  0.4340 -1.5654
  165SAPE  H16S18593   6.426   3.482   7.841 -0.8119 -2.1466 -0.1219
  165SAPE  C21718594   6.604   3.457   7.968  0.2729  0.0341  0.0233
  165SAPE  H17R18595   6.614   3.564   7.996 -2.0708  0.0894  0.7223
  165SAPE  H17S18596   6.705   3.410   7.967 -0.0847 -0.7656  0.4688
  165SAPE  C21818597   6.527   3.381   8.075 -0.1537  0.2893  1.1951
  165SAPE  H18R18598   6.448   3.316   8.031 -0.5961  1.0402  0.8689
  165SAPE  H18S18599   6.472   3.461   8.129  2.8941  3.2794  0.0548
  165SAPE  C21918600   6.622   3.328   8.174 -0.0701 -0.2762 -0.9072
  165SAPE  H19R18601   6.712   3.393   8.179  1.1695 -2.0201  0.3367
  165SAPE  H19S18602   6.668   3.233   8.136 -1.6747 -1.1653 -0.6558
  165SAPE  C22018603   6.556   3.306   8.312  0.0996  0.0181  0.2143
  165SAPE  H20R18604   6.502   3.397   8.345  2.3256  0.8237  1.7380
  165SAPE  H20S18605   6.643   3.299   8.380  0.0493  1.9015  0.5057
  165SAPE  H20T18606   6.494   3.214   8.314 -0.7603  0.5813  0.0059
  165SAPE   C3318607   6.304   3.680   7.071 -0.4908  0.4353 -0.6116
  165SAPE   H3X18608   6.238   3.760   7.032 -1.1709 -0.8606 -2.1529
  165SAPE   H3Y18609   6.386   3.719   7.136 -0.7976 -0.7543  0.5105
  165SAPE   C3418610   6.204   3.584   7.136  0.6425 -0.3455  0.0621
  165SAPE   H4X18611   6.225   3.475   7.135 -3.7235 -1.3009 -0.1869
  165SAPE   H4Y18612   6.107   3.590   7.081  1.6455 -0.9699 -1.8160
  165SAPE   C3518613   6.181   3.626   7.283  0.4901 -0.1806  0.6597
  165SAPE   H5X18614   6.077   3.611   7.320  0.1137 -0.3286 -0.4584
  165SAPE   H5Y18615   6.210   3.728   7.317  1.3859 -0.0959 -0.3503
  165SAPE   C3618616   6.270   3.536   7.368  0.1939 -0.1399 -0.1488
  165SAPE   H6X18617   6.364   3.548   7.309 -0.5460 -0.4851 -1.4297
  165SAPE   H6Y18618   6.227   3.435   7.353 -1.4063  0.4551  0.2690
  165SAPE   C3718619   6.272   3.575   7.513  0.4387  0.0906 -0.1707
  165SAPE   H7X18620   6.303   3.681   7.521 -2.3691  1.0289 -1.0479
  165SAPE   H7Y18621   6.342   3.510   7.569  0.7334  1.3568  0.9497
  165SAPE   C3818622   6.133   3.564   7.581 -0.2727  0.6924  0.7293
  165SAPE   H8X18623   6.073   3.476   7.548 -0.6244  0.8561  0.9384
  165SAPE   H8Y18624   6.076   3.655   7.553 -0.3425  0.9126  1.5759
  165SAPE   C3918625   6.132   3.572   7.732 -0.4191 -0.1378 -0.5526
  165SAPE   H9X18626   6.194   3.663   7.753  0.9802 -0.6842 -2.1816
  165SAPE   H9Y18627   6.181   3.478   7.765 -0.8569 -0.7209 -1.5720
  165SAPE  C31018628   5.991   3.578   7.793  0.3104  1.0170  0.3074
  165SAPE  H10X18629   5.947   3.482   7.760  1.3615  1.3382 -2.1435
  165SAPE  H10Y18630   5.938   3.668   7.753  1.3873  0.3978 -2.6359
  165SAPE  C31118631   5.989   3.585   7.946  0.2420 -0.7133  0.4663
  165SAPE  H11X18632   5.884   3.584   7.982 -1.3299 -2.4359 -3.7731
  165SAPE  H11Y18633   6.042   3.682   7.961  1.1280 -1.6389  3.8381
  165SAPE  C31218634   6.060   3.469   8.016 -0.2798  1.1220  0.5964
  165SAPE  H12X18635   6.165   3.464   7.980 -0.3833 -2.3219  0.5607
  165SAPE  H12Y18636   6.007   3.372   8.006  1.0461  0.5339 -1.0042
  165SAPE  C31318637   6.065   3.483   8.175 -0.4463  0.6611  0.7317
  165SAPE  H13X18638   6.099   3.587   8.198 -0.9121  0.4649  2.3505
  165SAPE  H13Y18639   6.133   3.404   8.213 -1.0037 -0.1149  0.1301
  165SAPE  C31418640   5.929   3.466   8.235 -0.0516 -0.2729  0.3158
  165SAPE  H14X18641   5.882   3.368   8.211 -2.3444  0.5228  1.3428
  165SAPE  H14Y18642   5.862   3.538   8.182  0.2646  0.7995  1.3382
  165SAPE  C31518643   5.909   3.487   8.388  0.3577  1.0265  0.3280
  165SAPE  H15X18644   5.929   3.595   8.403 -1.9904  2.0791 -3.3248
  165SAPE  H15Y18645   5.988   3.427   8.438 -2.2389  0.1364  3.4913
  165SAPE  C31618646   5.782   3.423   8.443  0.4677 -0.3128  0.2822
  165SAPE  H16X18647   5.792   3.312   8.442 -0.1694 -0.3739 -1.0330
  165SAPE  H16Y18648   5.699   3.447   8.373  1.1000 -0.9652 -0.7081
  165SAPE  C31718649   5.749   3.463   8.585 -0.5555  0.2177  0.4484
  165SAPE  H17X18650   5.726   3.572   8.584 -0.1311  0.3039 -0.9748
  165SAPE  H17Y18651   5.844   3.457   8.643  0.1198 -2.9677 -0.8724
  165SAPE  C31818652   5.636   3.386   8.648 -0.6013 -0.2015  0.2294
  165SAPE  H18X18653   5.599   3.410   8.750 -2.1951  1.5387 -0.7285
  165SAPE  H18Y18654   5.668   3.280   8.636 -0.4425 -0.0122 -1.0809
  165SAPE  H18Z18655   5.539   3.403   8.596 -0.0242 -1.2649 -1.2398
  166SAPE     N18656   6.669   6.133   6.080  0.6389  0.3249  0.0917
  166SAPE   HN118657   6.637   6.227   6.112  0.0478  0.8745 -2.0449
  166SAPE   HN218658   6.623   6.059   6.137 -0.0702  1.3999  0.9489
  166SAPE   HN318659   6.772   6.135   6.095  0.8229 -0.7689 -0.9179
  166SAPE   C1218660   6.638   6.113   5.935 -0.6353  0.2109 -0.9591
  166SAPE  H12A18661   6.688   6.017   5.911  2.0879  0.7440  2.2354
  166SAPE  H12B18662   6.681   6.193   5.870  0.7510 -0.0817 -0.4236
  166SAPE   C1118663   6.487   6.094   5.911 -0.5401  0.5799 -0.5345
  166SAPE  H11A18664   6.452   6.006   5.969  1.3039  0.9655  1.2292
  166SAPE  H11B18665   6.463   6.077   5.804  0.1449  0.5210 -0.6806
  166SAPE     P18666   6.314   6.298   5.879 -0.0538 -0.0914  0.3822
  166SAPE   O1318667   6.388   6.416   5.830 -0.3361  0.2084  0.2106
  166SAPE   O1418668   6.236   6.226   5.775  0.9513  0.4580 -0.7198
  166SAPE   O1218669   6.420   6.210   5.946  0.4038 -0.1771 -0.1989
  166SAPE   O1118670   6.226   6.346   5.998 -0.4574  0.0578  0.1188
  166SAPE    C118671   6.295   6.373   6.118  0.0453 -0.3341 -0.3221
  166SAPE    HA18672   6.357   6.288   6.153  1.2730  1.7287  2.6659
  166SAPE    HB18673   6.368   6.456   6.105 -0.9353  0.6638  0.4477
  166SAPE    C218674   6.190   6.403   6.238  0.5074  0.2490 -0.2636
  166SAPE    HS18675   6.159   6.509   6.228 -0.4093 -0.1892 -2.0926
  166SAPE   O2118676   6.241   6.374   6.370  0.1016 -0.4353 -0.4450
  166SAPE   C2118677   6.307   6.468   6.430  0.1127 -0.9766  1.1926
  166SAPE   O2218678   6.332   6.577   6.389  0.7568 -0.5488 -0.2949
  166SAPE   C2218679   6.357   6.418   6.569 -0.7269 -0.4505 -1.0543
  166SAPE   H2R18680   6.453   6.365   6.556  0.0550  0.3487  1.1192
  166SAPE   H2S18681   6.390   6.501   6.636  1.2215 -1.5951 -0.5797
  166SAPE    C318682   6.056   6.324   6.219 -0.4239  0.7648  0.3860
  166SAPE    HX18683   6.081   6.216   6.220  0.6713  0.9942 -0.8293
  166SAPE    HY18684   6.021   6.342   6.115 -0.4656  2.9076  0.7387
  166SAPE   O3118685   5.945   6.365   6.301 -0.7714 -0.3057  0.1324
  166SAPE   C3118686   5.936   6.296   6.417 -0.2804  0.1304 -0.4237
  166SAPE   O3218687   6.002   6.201   6.458  0.0753  0.6290  0.4320
  166SAPE   C3218688   5.818   6.351   6.504  0.0746 -0.5167 -0.0486
  166SAPE   H2X18689   5.837   6.312   6.606  4.5899 -2.8290 -1.6479
  166SAPE   H2Y18690   5.722   6.311   6.464 -0.6847  0.6024  0.6160
  166SAPE   C2318691   6.253   6.334   6.646  0.6186  0.2130 -0.0132
  166SAPE   H3R18692   6.250   6.236   6.593 -1.9864  0.2687 -0.0464
  166SAPE   H3S18693   6.154   6.384   6.644  1.3965  1.9289  2.5302
  166SAPE   C2418694   6.296   6.310   6.786  0.2130  0.5747  0.8066
  166SAPE   H4R18695   6.320   6.408   6.832 -1.6019  1.7839 -0.7592
  166SAPE   H4S18696   6.391   6.253   6.773  0.0670  0.7393 -1.1973
  166SAPE   C2518697   6.193   6.247   6.875  0.3875 -0.4366  0.1281
  166SAPE   H5R18698   6.097   6.235   6.822 -0.4351  1.8991  1.0196
  166SAPE   C2618699   6.208   6.203   7.003 -0.6497 -0.2598  0.2532
  166SAPE   H6R18700   6.123   6.148   7.045 -0.4033 -0.3686  0.6151
  166SAPE   C2718701   6.342   6.222   7.082  0.1911 -0.1809  0.5151
  166SAPE   H7R18702   6.310   6.235   7.188 -1.9740 -0.6611 -0.0471
  166SAPE   H7S18703   6.393   6.314   7.046 -1.4406  0.5932  0.1315
  166SAPE   C2818704   6.429   6.098   7.063 -0.3950 -0.4259  0.0430
  166SAPE   H8R18705   6.428   6.058   6.960  0.5326 -0.4007  0.0126
  166SAPE   C2918706   6.517   6.055   7.157  0.1889 -0.1427 -0.1480
  166SAPE   H9R18707   6.596   5.983   7.132  1.6049  0.8367  1.4169
  166SAPE  C21018708   6.527   6.118   7.294 -0.8191  0.0046  0.5408
  166SAPE  H10R18709   6.429   6.106   7.346 -0.5560  2.0974  1.5748
  166SAPE  H10S18710   6.535   6.229   7.287 -0.9073 -0.0593 -0.7255
  166SAPE  C21118711   6.637   6.049   7.377 -0.3555  0.4544 -0.5527
  166SAPE  H11R18712   6.740   6.047   7.338 -0.2935 -0.9356 -0.3302
  166SAPE  C21218713   6.624   6.004   7.504  0.9369 -0.1110  1.1574
  166SAPE  H12R18714   6.711   5.956   7.550  0.5855 -2.8426 -0.8742
  166SAPE  C21318715   6.501   6.005   7.585  0.3493 -0.4944 -0.2319
  166SAPE  H13R18716   6.413   5.979   7.523  2.3746 -2.6648 -2.2824
  166SAPE  H13S18717   6.489   6.113   7.608  0.3691 -0.7584  1.0602
  166SAPE  C21418718   6.499   5.922   7.714  0.2664 -0.0011 -0.1908
  166SAPE  H14R18719   6.591   5.869   7.746  1.1648  1.9757  0.5783
  166SAPE  C21518720   6.390   5.911   7.793 -0.0385 -0.0585 -0.0188
  166SAPE  H15R18721   6.393   5.852   7.886 -1.1420 -0.6385 -0.3374
  166SAPE  C21618722   6.259   5.984   7.769 -0.4216  0.1528  0.5410
  166SAPE  H16R18723   6.179   5.907   7.764  0.3719 -0.6866  0.6357
  166SAPE  H16S18724   6.254   6.031   7.669  2.5927 -0.5576 -0.0086
  166SAPE  C21718725   6.207   6.080   7.875  1.1767  0.1182  0.5039
  166SAPE  H17R18726   6.195   6.023   7.969  3.7299  0.0073  0.7834
  166SAPE  H17S18727   6.101   6.107   7.853  1.7106  2.8072  1.1188
  166SAPE  C21818728   6.288   6.205   7.899  0.1028 -1.0935 -0.3175
  166SAPE  H18R18729   6.297   6.263   7.804 -2.2372 -1.1656 -0.6172
  166SAPE  H18S18730   6.389   6.163   7.921 -0.5971 -1.6365  1.9609
  166SAPE  C21918731   6.230   6.298   8.004 -0.6553  0.4797 -0.0522
  166SAPE  H19R18732   6.131   6.336   7.969 -1.1299  0.1766  0.9494
  166SAPE  H19S18733   6.294   6.388   8.004 -0.4048  0.3017  0.6723
  166SAPE  C22018734   6.216   6.228   8.140  0.6194 -0.2384  0.0750
  166SAPE  H20R18735   6.312   6.187   8.178  0.8495  1.8369  1.7893
  166SAPE  H20S18736   6.140   6.147   8.135 -0.8161  1.1710 -1.5181
  166SAPE  H20T18737   6.194   6.300   8.221  1.7963 -1.0053  1.0971
  166SAPE   C3318738   5.819   6.502   6.508  0.5748 -0.5523  0.5628
  166SAPE   H3X18739   5.837   6.561   6.416 -0.4969  0.2474  0.8571
  166SAPE   H3Y18740   5.905   6.534   6.570  0.2994  0.5226  0.3878
  166SAPE   C3418741   5.693   6.557   6.572  0.0459 -0.1584 -0.1088
  166SAPE   H4X18742   5.616   6.556   6.492  1.3150  1.2151 -1.3780
  166SAPE   H4Y18743   5.713   6.664   6.594  1.3395 -0.8028  2.0660
  166SAPE   C3518744   5.644   6.496   6.695 -0.0768 -0.3521 -1.0309
  166SAPE   H5X18745   5.728   6.508   6.767  0.9377 -0.1885 -2.2477
  166SAPE   H5Y18746   5.615   6.391   6.674 -1.0267 -0.4983  0.8844
  166SAPE   C3618747   5.516   6.557   6.749  0.3106  0.1056  0.5282
  166SAPE   H6X18748   5.433   6.528   6.681  0.7889  0.5742 -0.2581
  166SAPE   H6Y18749   5.516   6.668   6.749  0.1887  0.1301 -1.5721
  166SAPE   C3718750   5.477   6.498   6.891  0.0487 -0.2728  0.4228
  166SAPE   H7X18751   5.501   6.390   6.879  1.9781 -0.0140  1.7914
  166SAPE   H7Y18752   5.370   6.500   6.922  0.5093  2.7712  1.9786
  166SAPE   C3818753   5.543   6.577   7.006  0.6718 -0.1607 -0.0934
  166SAPE   H8X18754   5.653   6.587   6.992  0.7716  1.0174  1.3461
  166SAPE   H8Y18755   5.532   6.512   7.095  0.8775 -1.0996 -0.7434
  166SAPE   C3918756   5.499   6.719   7.049 -0.4309 -0.7447 -0.2283
  166SAPE   H9X18757   5.391   6.712   7.074 -0.5758  3.5444  0.7616
  166SAPE   H9Y18758   5.513   6.796   6.970 -1.0721  0.4581  0.8239
  166SAPE  C31018759   5.581   6.752   7.173  0.1695 -0.0735 -0.7703
  166SAPE  H10X18760   5.597   6.862   7.183 -0.2952 -0.0779  0.0098
  166SAPE  H10Y18761   5.679   6.701   7.164  0.2406 -0.2044  0.5942
  166SAPE  C31118762   5.514   6.711   7.308  0.4085  0.4068 -0.7945
  166SAPE  H11X18763   5.474   6.607   7.318  0.6539  0.4299  0.5190
  166SAPE  H11Y18764   5.422   6.771   7.323  0.8672  0.0246  4.4652
  166SAPE  C31218765   5.597   6.723   7.435 -0.6313  0.5028 -0.4887
  166SAPE  H12X18766   5.635   6.823   7.464 -2.1347  0.6358  1.0830
  166SAPE  H12Y18767   5.687   6.659   7.422 -1.5177 -1.1473  1.2034
  166SAPE  C31318768   5.527   6.660   7.559 -0.5526  0.4050  0.0643
  166SAPE  H13X18769   5.593   6.693   7.642  1.2832 -0.3669 -1.0657
  166SAPE  H13Y18770   5.549   6.551   7.563 -2.6337 -0.0692 -0.8542
  166SAPE  C31418771   5.378   6.682   7.587 -0.3035  0.6690 -0.0738
  166SAPE  H14X18772   5.311   6.659   7.502  0.4090  1.3300 -0.8313
  166SAPE  H14Y18773   5.380   6.792   7.601 -0.7472  1.3046 -4.2155
  166SAPE  C31518774   5.329   6.621   7.720  0.0221  0.1361 -0.4686
  166SAPE  H15X18775   5.407   6.625   7.798 -2.0591 -1.2224  1.7598
  166SAPE  H15Y18776   5.310   6.513   7.701 -2.4299  0.1670  1.5848
  166SAPE  C31618777   5.201   6.689   7.776 -0.6007 -0.4594 -0.2595
  166SAPE  H16X18778   5.107   6.664   7.723 -2.0255 -0.0847  2.0161
  166SAPE  H16Y18779   5.223   6.798   7.780 -0.1496 -0.5144 -1.1606
  166SAPE  C31718780   5.169   6.650   7.925 -0.0011 -0.0966 -0.3037
  166SAPE  H17X18781   5.262   6.667   7.983  0.5704 -1.6279 -0.7632
  166SAPE  H17Y18782   5.152   6.541   7.926 -0.0946 -0.0832 -0.3649
  166SAPE  C31818783   5.059   6.721   8.001 -0.4019 -0.1774  0.0621
  166SAPE  H18X18784   4.965   6.675   7.962  1.0372 -1.6350 -1.8189
  166SAPE  H18Y18785   5.063   6.831   7.991  1.8244 -0.1093  1.5377
  166SAPE  H18Z18786   5.053   6.703   8.110  1.1230  1.3484  0.4030
  167SAPE     N18787   0.650   5.881   6.363  0.7546 -0.0848  0.0909
  167SAPE   HN118788   0.679   5.792   6.316  2.2092 -0.5933  1.8707
  167SAPE   HN218789   0.721   5.956   6.373  1.6164 -0.9790  0.7450
  167SAPE   HN318790   0.621   5.858   6.460 -0.3830  0.5758 -0.0920
  167SAPE   C1218791   0.549   5.938   6.265  0.0842 -0.2340 -0.3430
  167SAPE  H12A18792   0.598   5.942   6.165 -0.2574  2.2704 -0.4418
  167SAPE  H12B18793   0.529   6.041   6.302 -0.0755  0.2577 -1.7527
  167SAPE   C1118794   0.414   5.865   6.281  0.2927 -0.2963 -0.4300
  167SAPE  H11A18795   0.397   5.853   6.391 -0.4412  0.9334 -0.4081
  167SAPE  H11B18796   0.426   5.763   6.238  1.6507 -0.0880 -0.5546
  167SAPE     P18797   0.277   6.086   6.199 -0.1022 -0.0021  0.1975
  167SAPE   O1318798   0.381   6.144   6.111 -0.4953  0.5735  0.8830
  167SAPE   O1418799   0.134   6.114   6.166 -0.1564 -0.5407 -0.4905
  167SAPE   O1218800   0.304   5.933   6.217  0.3462 -0.1705  0.1505
  167SAPE   O1118801   0.301   6.144   6.342 -0.2460  0.3771  0.3664
  167SAPE    C118802   0.194   6.125   6.442  0.3306  0.1312  0.6245
  167SAPE    HA18803   0.106   6.187   6.417 -0.2470 -1.0996 -0.4264
  167SAPE    HB18804   0.157   6.021   6.451  1.4268 -0.3704 -0.3871
  167SAPE    C218805   0.254   6.153   6.585  0.5419  0.2048  0.2474
  167SAPE    HS18806   0.176   6.124   6.659  1.3140 -0.7580  0.6846
  167SAPE   O2118807   0.284   6.289   6.598 -0.6301  0.2148  0.3282
  167SAPE   C2118808   0.174   6.366   6.616 -0.4699  0.3342 -1.3303
  167SAPE   O2218809   0.062   6.315   6.634  0.1421  0.1567 -0.0266
  167SAPE   C2218810   0.200   6.517   6.614  0.3863  0.6907  0.7343
  167SAPE   H2R18811   0.305   6.525   6.578  0.9692  0.4702  2.3541
  167SAPE   H2S18812   0.135   6.572   6.543 -0.5522 -1.4979 -0.1155
  167SAPE    C318813   0.373   6.064   6.610 -0.4380 -0.2955  0.5671
  167SAPE    HX18814   0.447   6.077   6.529 -0.4937  2.4965  0.9065
  167SAPE    HY18815   0.341   5.961   6.584 -2.9900  0.8998 -1.1792
  167SAPE   O3118816   0.423   6.083   6.746  0.0600  0.1060 -0.0464
  167SAPE   C3118817   0.355   6.009   6.837 -0.0242 -0.8417 -0.3457
  167SAPE   O3218818   0.274   5.924   6.809  0.3423  0.2029 -0.2440
  167SAPE   C3218819   0.393   6.053   6.979 -0.9039 -0.2261  0.5283
  167SAPE   H2X18820   0.377   6.162   6.984  0.7491  0.0232  0.6636
  167SAPE   H2Y18821   0.503   6.040   6.991 -0.9855 -0.6963  0.7976
  167SAPE   C2318822   0.196   6.574   6.751 -0.5982 -0.4170  0.1717
  167SAPE   H3R18823   0.096   6.552   6.795 -0.4439  0.6309  1.0556
  167SAPE   H3S18824   0.204   6.684   6.760  0.8762 -0.6560  2.3819
  167SAPE   C2418825   0.319   6.516   6.833  1.0063 -0.1047 -0.6067
  167SAPE   H4R18826   0.416   6.544   6.787  2.4191 -2.4144  0.8911
  167SAPE   H4S18827   0.303   6.406   6.831  1.6734 -0.2522  1.2793
  167SAPE   C2518828   0.322   6.581   6.971  0.3271  0.4970  0.5072
  167SAPE   H5R18829   0.387   6.669   6.964  1.7200 -0.6979 -2.2304
  167SAPE   C2618830   0.266   6.539   7.081 -0.3874  0.4121  0.1293
  167SAPE   H6R18831   0.256   6.605   7.168 -0.5827 -0.8245  1.0520
  167SAPE   C2718832   0.181   6.418   7.077 -0.1397 -0.1508 -0.0704
  167SAPE   H7R18833   0.241   6.335   7.121 -0.6112  0.6186  2.0765
  167SAPE   H7S18834   0.154   6.390   6.973  0.1392 -0.4709 -0.0582
  167SAPE   C2818835   0.062   6.437   7.162 -0.2327  0.1533 -0.7017
  167SAPE   H8R18836  -0.029   6.463   7.105 -2.2159  0.5273  2.4764
  167SAPE   C2918837   0.059   6.412   7.299 -0.1957  0.2983  0.2107
  167SAPE   H9R18838  -0.038   6.414   7.351  0.0855  0.6952  0.7273
  167SAPE  C21018839   0.170   6.370   7.393 -0.0487 -0.5021  0.3309
  167SAPE  H10R18840   0.261   6.360   7.331 -1.1229 -0.7930 -1.2215
  167SAPE  H10S18841   0.149   6.268   7.432 -0.7948 -0.0967  1.0114
  167SAPE  C21118842   0.208   6.471   7.498 -0.1908  0.1676  0.2615
  167SAPE  H11R18843   0.228   6.572   7.459  2.2947 -0.6853 -0.7779
  167SAPE  C21218844   0.204   6.448   7.632  0.1370  0.4570  0.4991
  167SAPE  H12R18845   0.245   6.526   7.697 -0.5375  2.0160 -0.9111
  167SAPE  C21318846   0.163   6.318   7.695  0.2370 -0.1872  0.1844
  167SAPE  H13R18847   0.212   6.309   7.794 -0.1064  1.5397  0.5343
  167SAPE  H13S18848   0.212   6.242   7.631 -1.0280  0.1266 -1.2071
  167SAPE  C21418849   0.018   6.281   7.701 -0.4700 -0.6709  0.6612
  167SAPE  H14R18850  -0.032   6.318   7.611 -0.9131  1.0119  1.5693
  167SAPE  C21518851  -0.045   6.201   7.787  0.1917 -0.3393 -0.2721
  167SAPE  H15R18852  -0.151   6.190   7.759 -0.0831  2.1755 -0.3372
  167SAPE  C21618853   0.019   6.130   7.902 -0.1983  0.4546 -0.5093
  167SAPE  H16R18854   0.123   6.162   7.923  0.2128 -0.8731 -0.4518
  167SAPE  H16S18855   0.025   6.026   7.864 -1.0795  0.4966 -0.7812
  167SAPE  C21718856  -0.076   6.117   8.021 -0.6114 -0.0457  0.0251
  167SAPE  H17R18857  -0.184   6.115   7.994 -1.3312  0.9945  2.5993
  167SAPE  H17S18858  -0.083   6.212   8.079  1.2588  1.2830 -1.8332
  167SAPE  C21818859  -0.040   5.987   8.095 -0.7828 -0.1150  0.5450
  167SAPE  H18R18860   0.065   5.995   8.131 -1.2775 -1.0420  2.2709
  167SAPE  H18S18861  -0.035   5.902   8.024 -0.2013  1.1328 -0.9315
  167SAPE  C21918862  -0.132   5.943   8.209 -0.5548  0.3089 -0.3667
  167SAPE  H19R18863  -0.229   5.995   8.190 -1.4598  0.4486  4.1440
  167SAPE  H19S18864  -0.108   5.979   8.311  1.7948  0.3019 -0.8973
  167SAPE  C22018865  -0.136   5.787   8.206 -0.0449 -0.3789  0.1622
  167SAPE  H20R18866  -0.163   5.756   8.103 -2.4441 -0.9675  0.9487
  167SAPE  H20S18867  -0.218   5.753   8.272  0.8576  2.0038  2.6244
  167SAPE  H20T18868  -0.043   5.742   8.247 -0.5442 -1.4987  0.0719
  167SAPE   C3318869   0.292   6.000   7.095  0.5043  0.4834  0.0259
  167SAPE   H3X18870   0.263   5.894   7.074  0.2427  0.9092 -1.8966
  167SAPE   H3Y18871   0.201   6.063   7.086  0.5165  0.2659 -2.0637
  167SAPE   C3418872   0.356   6.000   7.230  0.6649 -0.5432 -0.3298
  167SAPE   H4X18873   0.381   6.104   7.260 -0.4979  0.1588 -1.7527
  167SAPE   H4Y18874   0.452   5.944   7.224  0.1960 -1.2970 -0.9297
  167SAPE   C3518875   0.267   5.945   7.343 -0.1280  0.1963  0.4778
  167SAPE   H5X18876   0.246   5.841   7.313  2.1064 -0.0106 -0.4606
  167SAPE   H5Y18877   0.170   5.997   7.355 -1.1075 -1.4532 -0.2290
  167SAPE   C3618878   0.337   5.953   7.476 -0.0932  0.4781  0.2353
  167SAPE   H6X18879   0.365   6.059   7.498  1.0694  0.0694  0.7600
  167SAPE   H6Y18880   0.433   5.897   7.481 -0.2095  0.2530 -0.0766
  167SAPE   C3718881   0.252   5.892   7.589  0.2433  0.2754 -1.0870
  167SAPE   H7X18882   0.203   5.800   7.551  2.0337 -1.8666  1.5568
  167SAPE   H7Y18883   0.170   5.962   7.614 -0.1936 -0.9916  1.2225
  167SAPE   C3818884   0.327   5.862   7.720  0.3407  0.2632 -0.2507
  167SAPE   H8X18885   0.420   5.808   7.693  0.2802 -1.3035  2.4347
  167SAPE   H8Y18886   0.258   5.796   7.777  0.5722  0.3952  0.1890
  167SAPE   C3918887   0.364   5.980   7.804  0.1552  0.2133  0.8244
  167SAPE   H9X18888   0.286   6.060   7.808 -0.6335 -0.6332  2.7877
  167SAPE   H9Y18889   0.456   6.018   7.755  0.1417 -2.9846 -1.8095
  167SAPE  C31018890   0.384   5.934   7.951 -0.1294  0.6051  0.3617
  167SAPE  H10X18891   0.463   5.856   7.945  0.4353  1.2638 -0.8622
  167SAPE  H10Y18892   0.286   5.889   7.977 -0.7363  1.3151 -0.6330
  167SAPE  C31118893   0.427   6.050   8.050  0.0613 -0.7461 -0.5140
  167SAPE  H11X18894   0.348   6.125   8.026 -0.8035 -1.0239  1.4158
  167SAPE  H11Y18895   0.530   6.085   8.029  0.3399 -0.5654  1.0914
  167SAPE  C31218896   0.413   6.016   8.199  0.4994 -0.2588  0.3103
  167SAPE  H12X18897   0.506   5.969   8.236 -0.5034 -2.8422 -0.2879
  167SAPE  H12Y18898   0.329   5.943   8.205 -0.0141  0.4111  1.3407
  167SAPE  C31318899   0.374   6.132   8.282  0.1175  0.2283 -0.2565
  167SAPE  H13X18900   0.284   6.176   8.232  0.4481  0.3998 -0.7052
  167SAPE  H13Y18901   0.457   6.204   8.297 -2.5430  3.1523  1.0445
  167SAPE  C31418902   0.330   6.085   8.424  0.6208 -0.8159  1.1508
  167SAPE  H14X18903   0.300   6.176   8.480  0.4844 -0.0154 -0.2107
  167SAPE  H14Y18904   0.423   6.034   8.458  0.3758 -1.7841  0.3872
  167SAPE  C31518905   0.198   6.010   8.430  0.3028 -0.2404 -0.3691
  167SAPE  H15X18906   0.208   5.909   8.384 -2.0911 -0.1084 -1.2540
  167SAPE  H15Y18907   0.124   6.061   8.364 -0.4677  0.2422  0.8378
  167SAPE  C31618908   0.144   5.987   8.575 -0.1339  0.0133  0.9609
  167SAPE  H16X18909   0.141   6.088   8.620 -0.6562  0.7770 -0.7639
  167SAPE  H16Y18910   0.221   5.927   8.629  0.8153 -0.1681 -0.5830
  167SAPE  C31718911   0.011   5.913   8.579  0.2885  0.0743 -0.0978
  167SAPE  H17X18912   0.027   5.807   8.549  1.3833  0.3526 -0.5203
  167SAPE  H17Y18913  -0.061   5.955   8.505  1.0618  0.9275 -0.3705
  167SAPE  C31818914  -0.054   5.905   8.721  0.2555  0.1032  0.4257
  167SAPE  H18X18915  -0.070   6.006   8.766 -0.2117 -0.2538  1.0757
  167SAPE  H18Y18916   0.024   5.868   8.792  0.9451  1.3644  0.3434
  167SAPE  H18Z18917  -0.145   5.841   8.722  1.8706 -2.2632 -1.2172
  168SAPE     N18918   1.944   1.683   6.186  0.4950  0.3897 -0.4143
  168SAPE   HN118919   1.920   1.684   6.085  1.2692  0.7525 -0.5939
  168SAPE   HN218920   1.900   1.599   6.229  1.5497 -0.9841 -1.9310
  168SAPE   HN318921   1.909   1.768   6.233 -0.8987  0.0975 -0.9111
  168SAPE   C1218922   2.098   1.680   6.209 -0.2902  0.5824 -0.1682
  168SAPE  H12A18923   2.124   1.780   6.249  3.1365  0.4563 -1.9135
  168SAPE  H12B18924   2.152   1.663   6.114  1.4822 -0.5287  0.9887
  168SAPE   C1118925   2.137   1.584   6.332  0.4898 -0.4542  0.6513
  168SAPE  H11A18926   2.082   1.616   6.424  1.1449 -0.6635  1.1206
  168SAPE  H11B18927   2.245   1.594   6.357  0.8355 -0.0190 -0.9859
  168SAPE     P18928   2.003   1.356   6.324  0.3154 -0.0132  0.1541
  168SAPE   O1318929   1.888   1.426   6.280 -0.2226  0.4848 -0.1828
  168SAPE   O1418930   2.026   1.224   6.266 -0.1973 -0.7330  0.1186
  168SAPE   O1218931   2.127   1.449   6.300  0.3993  0.4747  0.8493
  168SAPE   O1118932   1.998   1.328   6.476 -0.8148  0.3355  0.0674
  168SAPE    C118933   2.115   1.330   6.564  0.0596 -0.7766 -0.1645
  168SAPE    HA18934   2.203   1.283   6.514 -0.0498  0.3458 -1.4334
  168SAPE    HB18935   2.131   1.430   6.610 -1.8730  0.1088 -1.3886
  168SAPE    C218936   2.078   1.248   6.697  0.3310  0.2357  0.4132
  168SAPE    HS18937   2.024   1.157   6.663  0.5885  0.4088 -0.4628
  168SAPE   O2118938   1.995   1.332   6.778 -0.2118 -0.1880 -0.4960
  168SAPE   C2118939   1.903   1.283   6.855 -0.1182  0.0822 -0.0644
  168SAPE   O2218940   1.888   1.164   6.870 -0.1489  0.2580 -0.0758
  168SAPE   C2218941   1.826   1.390   6.920 -0.5926  1.1453 -0.0100
  168SAPE   H2R18942   1.801   1.474   6.852 -0.0028  1.0159 -0.3938
  168SAPE   H2S18943   1.729   1.345   6.947 -0.0935 -0.3153 -0.5951
  168SAPE    C318944   2.214   1.215   6.766  0.0987 -0.3018 -0.1705
  168SAPE    HX18945   2.271   1.310   6.772 -2.2246  1.3086 -2.3263
  168SAPE    HY18946   2.263   1.148   6.692 -0.2473  0.3296 -0.9808
  168SAPE   O3118947   2.199   1.158   6.896 -0.0406 -0.5899 -0.6003
  168SAPE   C3118948   2.261   1.051   6.919  0.6879 -0.3906 -0.0977
  168SAPE   O3218949   2.311   0.973   6.837 -0.0752 -0.3387 -0.4658
  168SAPE   C3218950   2.248   1.026   7.072  0.4193  0.3841 -0.0048
  168SAPE   H2X18951   2.155   0.968   7.092 -0.5213  1.1133 -2.1011
  168SAPE   H2Y18952   2.241   1.124   7.124  2.5874  1.6855 -2.0504
  168SAPE   C2318953   1.901   1.435   7.052  0.0717  0.4504  0.4272
  168SAPE   H3R18954   1.984   1.495   7.009  1.2546 -0.2299  1.7298
  168SAPE   H3S18955   1.953   1.351   7.103  2.9463  2.8216  1.5957
  168SAPE   C2418956   1.818   1.515   7.152  0.4299  0.2046  0.1051
  168SAPE   H4R18957   1.721   1.465   7.174  1.0491 -1.5430 -1.0465
  168SAPE   H4S18958   1.788   1.615   7.115 -0.8973 -0.0685  0.3999
  168SAPE   C2518959   1.888   1.547   7.281  0.2057  0.4214  0.2859
  168SAPE   H5R18960   1.995   1.571   7.273  0.3349  0.2373  1.4049
  168SAPE   C2618961   1.845   1.536   7.406 -0.0076  0.0144 -0.6009
  168SAPE   H6R18962   1.909   1.571   7.488  0.4772 -1.8652 -0.1607
  168SAPE   C2718963   1.709   1.486   7.439 -0.2562 -0.2688  0.0463
  168SAPE   H7R18964   1.687   1.402   7.369  2.1886 -0.9481  0.0486
  168SAPE   H7S18965   1.629   1.561   7.423  1.0234  0.2695 -4.5062
  168SAPE   C2818966   1.674   1.421   7.574 -0.2707 -0.1535  0.0402
  168SAPE   H8R18967   1.616   1.328   7.568 -0.8347  0.2894 -1.8318
  168SAPE   C2918968   1.696   1.460   7.695 -0.0979 -0.7471  0.0625
  168SAPE   H9R18969   1.655   1.394   7.772 -1.7818 -1.3275 -1.2821
  168SAPE  C21018970   1.761   1.589   7.738 -0.6669  0.2051  0.7679
  168SAPE  H10R18971   1.679   1.646   7.787 -3.9120 -1.3261 -2.6214
  168SAPE  H10S18972   1.785   1.648   7.647 -0.2193 -0.5520  0.3890
  168SAPE  C21118973   1.879   1.577   7.829  0.0090 -0.2865 -0.7223
  168SAPE  H11R18974   1.974   1.588   7.775  0.8367 -1.9825  0.3405
  168SAPE  C21218975   1.874   1.527   7.957  0.1898  0.5837 -0.2376
  168SAPE  H12R18976   1.966   1.507   8.015  0.1230 -0.2852 -0.4308
  168SAPE  C21318977   1.753   1.485   8.035  0.3923 -0.7403  0.2638
  168SAPE  H13R18978   1.755   1.375   8.047 -0.1751 -1.2725 -3.7984
  168SAPE  H13S18979   1.660   1.517   7.983  1.4966 -1.0774 -2.0029
  168SAPE  C21418980   1.754   1.537   8.183  1.2656  0.3459 -0.3471
  168SAPE  H14R18981   1.683   1.621   8.193  1.5805  0.5011  0.6198
  168SAPE  C21518982   1.814   1.480   8.290  0.2762  0.0016 -0.1224
  168SAPE  H15R18983   1.805   1.527   8.389  0.4417  1.7807 -0.9300
  168SAPE  C21618984   1.888   1.350   8.289  0.2692 -0.7514 -0.2385
  168SAPE  H16R18985   1.997   1.370   8.291  0.0352  0.5056  0.8790
  168SAPE  H16S18986   1.869   1.292   8.196  0.4884  0.3509 -0.9934
  168SAPE  C21718987   1.838   1.276   8.406 -0.0771  0.8708 -0.1884
  168SAPE  H17R18988   1.737   1.234   8.386  0.7823 -0.8189 -1.0792
  168SAPE  H17S18989   1.840   1.330   8.503 -2.3718  0.1459  0.2786
  168SAPE  C21818990   1.916   1.139   8.416  0.2086 -0.1244 -0.6077
  168SAPE  H18R18991   1.886   1.079   8.327  0.5835  0.9833 -1.4949
  168SAPE  H18S18992   1.875   1.089   8.507 -2.5330  1.4288 -0.9205
  168SAPE  C21918993   2.068   1.149   8.426  0.2642  0.4199  0.1050
  168SAPE  H19R18994   2.116   1.204   8.342  0.9731 -0.4981 -0.1096
  168SAPE  H19S18995   2.107   1.045   8.430 -1.9187 -0.6001 -2.9504
  168SAPE  C22018996   2.120   1.222   8.547  0.2894  0.1430 -0.2179
  168SAPE  H20R18997   2.110   1.158   8.637 -0.2829 -0.0152 -0.3917
  168SAPE  H20S18998   2.057   1.311   8.567  0.0103  0.3363 -1.8681
  168SAPE  H20T18999   2.228   1.245   8.545  0.5681 -1.1119  0.0977
  168SAPE   C3319000   2.368   0.945   7.127  0.0777 -0.6742 -0.1066
  168SAPE   H3X19001   2.437   0.923   7.043  2.7916  0.6017  1.7271
  168SAPE   H3Y19002   2.333   0.846   7.164 -0.1292 -0.6428 -0.2145
  168SAPE   C3419003   2.446   1.045   7.220  0.1546 -0.5988  0.2616
  168SAPE   H4X19004   2.374   1.077   7.298  1.4449  1.0280  0.7997
  168SAPE   H4Y19005   2.492   1.136   7.176  1.7739 -0.9973  1.0968
  168SAPE   C3519006   2.560   0.979   7.301  0.3302  0.1721  0.3122
  168SAPE   H5X19007   2.651   0.986   7.238  0.4827 -0.0342  0.5085
  168SAPE   H5Y19008   2.530   0.872   7.307  0.2595  0.2613  1.6985
  168SAPE   C3619009   2.576   1.055   7.430 -0.6668 -0.3319  0.0229
  168SAPE   H6X19010   2.481   1.059   7.488 -0.0765  0.0511  0.9556
  168SAPE   H6Y19011   2.599   1.162   7.408 -0.5940 -0.2054  0.7221
  168SAPE   C3719012   2.691   1.001   7.521  0.8582 -0.4559  0.5816
  168SAPE   H7X19013   2.791   1.009   7.474  0.6884  1.2866  0.4762
  168SAPE   H7Y19014   2.665   0.897   7.548  1.2411 -0.6478  0.2014
  168SAPE   C3819015   2.697   1.079   7.658 -0.0602  0.8597  0.1248
  168SAPE   H8X19016   2.599   1.073   7.709  0.4642 -0.2827  1.0052
  168SAPE   H8Y19017   2.735   1.180   7.629  0.3471  0.3241 -1.2565
  168SAPE   C3919018   2.801   1.012   7.752 -0.3524 -0.1789  0.6660
  168SAPE   H9X19019   2.901   1.021   7.705  0.7539 -0.0908  2.9730
  168SAPE   H9Y19020   2.776   0.904   7.755 -0.7357 -0.1595 -1.3869
  168SAPE  C31019021   2.824   1.086   7.889 -0.1687 -0.5474  0.0583
  168SAPE  H10X19022   2.867   1.187   7.876  0.8190 -0.9239  0.3528
  168SAPE  H10Y19023   2.896   1.018   7.941  0.9614  0.1991 -0.5125
  168SAPE  C31119024   2.704   1.084   7.982 -0.2381  0.0234 -0.7823
  168SAPE  H11X19025   2.682   0.975   7.992  0.5498  0.0178  1.0942
  168SAPE  H11Y19026   2.623   1.147   7.938  0.0227  0.2344 -0.9593
  168SAPE  C31219027   2.728   1.144   8.117 -0.3759 -0.0097  0.7551
  168SAPE  H12X19028   2.742   1.254   8.112 -3.8674  0.3976 -1.9947
  168SAPE  H12Y19029   2.819   1.096   8.160 -1.5909 -1.8043  1.3888
  168SAPE  C31319030   2.622   1.121   8.219 -0.2487  0.1810 -0.3172
  168SAPE  H13X19031   2.624   1.013   8.242 -2.8325  0.4660  1.4835
  168SAPE  H13Y19032   2.524   1.153   8.176 -0.1257  1.0332  0.0275
  168SAPE  C31419033   2.642   1.192   8.349  0.7801  0.1030 -0.1439
  168SAPE  H14X19034   2.638   1.302   8.335 -1.0406  0.3118  1.8280
  168SAPE  H14Y19035   2.741   1.173   8.397  0.5385 -1.8231 -0.3675
  168SAPE  C31519036   2.532   1.143   8.451  0.3472  0.3698 -0.3654
  168SAPE  H15X19037   2.430   1.148   8.409 -0.2118 -3.0652  0.3898
  168SAPE  H15Y19038   2.531   1.212   8.539  0.1211 -0.3889  0.2371
  168SAPE  C31619039   2.563   1.008   8.520  0.1383 -0.2065  0.2530
  168SAPE  H16X19040   2.488   0.995   8.601  0.0470  0.9502  0.3661
  168SAPE  H16Y19041   2.659   1.008   8.575 -0.7518 -1.5175  1.8501
  168SAPE  C31719042   2.542   0.872   8.449 -1.0763 -0.1262  0.5987
  168SAPE  H17X19043   2.550   0.792   8.526  0.8600 -0.3404  0.1930
  168SAPE  H17Y19044   2.624   0.851   8.377 -0.2416  1.0974  1.1852
  168SAPE  C31819045   2.415   0.867   8.364 -0.0885 -0.4095  0.4738
  168SAPE  H18X19046   2.397   0.763   8.330 -1.6177  0.3724 -1.1412
  168SAPE  H18Y19047   2.431   0.922   8.269  0.7205 -2.3043 -0.5338
  168SAPE  H18Z19048   2.329   0.910   8.420  0.8901  0.6853  1.1636
  169SAPE     N19049   0.718   3.296   6.058  0.3922  0.5241  0.2895
  169SAPE   HN119050   0.740   3.325   6.155 -0.7275  0.8761  0.4472
  169SAPE   HN219051   0.780   3.359   6.003  1.3516 -0.3168  0.3910
  169SAPE   HN319052   0.617   3.318   6.046  0.7379  2.4874  0.8016
  169SAPE   C1219053   0.739   3.152   6.038 -0.1249  0.2343 -0.3928
  169SAPE  H12A19054   0.843   3.126   6.067 -1.2974 -0.9516  2.9067
  169SAPE  H12B19055   0.726   3.130   5.930 -0.2879  0.0388 -0.3328
  169SAPE   C1119056   0.642   3.079   6.126  1.1428  0.0751  0.2096
  169SAPE  H11A19057   0.647   2.976   6.087 -0.6896 -0.0717  0.3200
  169SAPE  H11B19058   0.541   3.120   6.104  1.2683 -0.5115 -1.5245
  169SAPE     P19059   0.819   3.029   6.328 -0.4836  0.0864 -0.3723
  169SAPE   O1319060   0.896   2.962   6.221 -0.2044  0.0010 -0.2023
  169SAPE   O1419061   0.880   3.162   6.374  0.0615  0.5958 -0.3361
  169SAPE   O1219062   0.680   3.072   6.263  0.0755  0.4771  0.0929
  169SAPE   O1119063   0.774   2.940   6.446  0.1055  0.1178 -0.9144
  169SAPE    C119064   0.666   2.943   6.537 -0.2855 -0.5009  0.0184
  169SAPE    HA19065   0.602   3.032   6.521  0.6847  0.3335  0.7540
  169SAPE    HB19066   0.596   2.858   6.516 -1.1937 -0.0117  1.0327
  169SAPE    C219067   0.706   2.927   6.686  0.5879  0.3954 -0.2528
  169SAPE    HS19068   0.615   2.956   6.743  0.7702  1.2182 -0.3761
  169SAPE   O2119069   0.819   3.004   6.725 -0.5352  0.3180  0.2769
  169SAPE   C2119070   0.795   3.138   6.722 -0.5207 -0.5064 -0.3239
  169SAPE   O2219071   0.685   3.187   6.706  0.1841  0.4203 -0.0981
  169SAPE   C2219072   0.921   3.216   6.742 -0.4194 -0.9470  0.8458
  169SAPE   H2R19073   0.961   3.232   6.639 -3.4400 -0.6178 -0.3296
  169SAPE   H2S19074   0.900   3.313   6.790  1.0230 -1.1865  2.0274
  169SAPE    C319075   0.721   2.775   6.720 -0.6998 -0.1824 -0.1074
  169SAPE    HX19076   0.802   2.740   6.653 -0.5385 -1.0010  0.5089
  169SAPE    HY19077   0.626   2.721   6.705 -0.3867 -0.7537 -0.0248
  169SAPE   O3119078   0.765   2.758   6.859  0.7290 -0.3671  0.2431
  169SAPE   C3119079   0.677   2.782   6.952  0.0744  0.0513 -0.9597
  169SAPE   O3219080   0.564   2.812   6.934  0.3296  0.5577  0.0919
  169SAPE   C3219081   0.740   2.761   7.092  0.4165 -0.1037 -0.4359
  169SAPE   H2X19082   0.848   2.784   7.097  0.7150 -1.3833 -0.8243
  169SAPE   H2Y19083   0.721   2.655   7.120  1.4871 -0.2380 -0.2071
  169SAPE   C2319084   1.025   3.142   6.837 -0.0553 -0.5404 -0.2398
  169SAPE   H3R19085   1.117   3.204   6.837 -0.6655  0.3677  0.8277
  169SAPE   H3S19086   1.050   3.046   6.786  1.7783 -0.6520  0.8265
  169SAPE   C2419087   0.971   3.118   6.979 -0.1668  0.4854  0.2068
  169SAPE   H4R19088   0.880   3.056   6.967 -0.1622  0.4151  0.5395
  169SAPE   H4S19089   0.935   3.218   7.013  0.8151  0.8218  0.2743
  169SAPE   C2519090   1.074   3.052   7.071  0.6544  0.8735 -0.5249
  169SAPE   H5R19091   1.169   3.010   7.036 -1.1812 -2.2644 -2.0431
  169SAPE   C2619092   1.058   3.057   7.207 -0.5650  0.1746  0.3340
  169SAPE   H6R19093   1.141   3.008   7.259 -1.6346 -0.8413  1.1125
  169SAPE   C2719094   0.949   3.120   7.288  0.3197 -0.1866 -0.3108
  169SAPE   H7R19095   0.889   3.031   7.315 -0.6835  0.2482 -1.0721
  169SAPE   H7S19096   0.877   3.186   7.235 -0.6197 -0.8458  0.1405
  169SAPE   C2819097   1.002   3.199   7.401 -0.3118 -0.3544 -0.1562
  169SAPE   H8R19098   1.024   3.303   7.372  1.6867 -0.9423 -0.8423
  169SAPE   C2919099   1.012   3.158   7.530 -0.2778 -0.1488 -0.0008
  169SAPE   H9R19100   1.046   3.235   7.601  0.5393 -2.3950  2.1248
  169SAPE  C21019101   0.966   3.026   7.597  1.5221 -0.3060  0.2411
  169SAPE  H10R19102   0.924   2.962   7.517 -2.1538  0.4996  1.4449
  169SAPE  H10S19103   0.890   3.041   7.677  1.1293  0.3110 -0.2484
  169SAPE  C21119104   1.085   2.955   7.657  0.3227  0.3756  0.0064
  169SAPE  H11R19105   1.179   2.954   7.599 -0.3090  3.1282 -1.1491
  169SAPE  C21219106   1.098   2.912   7.783  0.0079 -0.1106  0.0498
  169SAPE  H12R19107   1.189   2.855   7.809 -0.8488 -1.4848  0.0527
  169SAPE  C21319108   0.984   2.902   7.889 -0.3861 -0.1813 -0.5120
  169SAPE  H13R19109   0.973   2.792   7.899 -0.5111 -0.3103 -1.9606
  169SAPE  H13S19110   0.883   2.936   7.859  0.3603  2.7537  0.1190
  169SAPE  C21419111   1.021   2.990   8.005  0.1064 -0.1080 -0.6787
  169SAPE  H14R19112   1.018   3.093   7.967  1.5702  0.4065  0.5124
  169SAPE  C21519113   1.045   2.958   8.137  0.3210  0.5617  0.8990
  169SAPE  H15R19114   1.057   3.039   8.210 -0.0630  1.7028 -0.2790
  169SAPE  C21619115   1.028   2.821   8.194 -0.1656 -0.3058 -0.0856
  169SAPE  H16R19116   1.025   2.754   8.105  1.8584 -1.4453  0.6964
  169SAPE  H16S19117   0.929   2.817   8.244 -1.1801 -0.7542 -2.0609
  169SAPE  C21719118   1.140   2.784   8.289  0.1489  0.6036 -0.6171
  169SAPE  H17R19119   1.128   2.851   8.377  1.1912  0.5739 -0.4494
  169SAPE  H17S19120   1.245   2.791   8.253  0.9219 -0.3136  1.3394
  169SAPE  C21819121   1.131   2.640   8.345  0.0191 -0.1617  0.2936
  169SAPE  H18R19122   1.227   2.613   8.394  0.4610  0.2588 -0.3281
  169SAPE  H18S19123   1.131   2.579   8.252  0.3792 -0.7737  0.6909
  169SAPE  C21919124   1.016   2.608   8.449  0.1738 -0.7597  0.0911
  169SAPE  H19R19125   1.018   2.500   8.475 -0.3334 -0.3271  2.0283
  169SAPE  H19S19126   0.912   2.622   8.412 -0.8263 -3.1431  1.9046
  169SAPE  C22019127   1.029   2.685   8.582 -0.1746  0.2111 -0.6786
  169SAPE  H20R19128   0.959   2.648   8.661 -0.7590 -0.1719 -1.3675
  169SAPE  H20S19129   1.017   2.794   8.565 -0.0984  0.0805 -1.6138
  169SAPE  H20T19130   1.130   2.669   8.626  0.7736  0.6486 -2.6665
  169SAPE   C3319131   0.669   2.840   7.207 -0.4522  0.5089  0.4677
  169SAPE   H3X19132   0.561   2.812   7.206 -0.5389  0.3440  4.7747
  169SAPE   H3Y19133   0.672   2.950   7.199 -1.1414  0.5851  1.2408
  169SAPE   C3419134   0.721   2.787   7.343 -0.9718  0.0219 -0.2823
  169SAPE   H4X19135   0.830   2.807   7.351 -0.8300 -0.1325 -1.6867
  169SAPE   H4Y19136   0.702   2.678   7.351 -0.6163 -0.0325 -0.1510
  169SAPE   C3519137   0.645   2.851   7.452  0.0519  0.0038 -0.3827
  169SAPE   H5X19138   0.538   2.858   7.423 -0.1474  0.0137  0.3373
  169SAPE   H5Y19139   0.662   2.961   7.457 -0.0408 -0.0813  2.3652
  169SAPE   C3619140   0.668   2.781   7.590  0.2467 -1.1384 -0.0430
  169SAPE   H6X19141   0.777   2.785   7.611  0.0964  0.2823  0.4960
  169SAPE   H6Y19142   0.638   2.674   7.592  1.2436 -1.4548 -1.1670
  169SAPE   C3719143   0.608   2.856   7.703 -0.1739 -0.0203 -0.1501
  169SAPE   H7X19144   0.499   2.862   7.678  0.2813  0.7954 -2.0543
  169SAPE   H7Y19145   0.654   2.955   7.726 -1.3576  0.4479  0.2674
  169SAPE   C3819146   0.612   2.769   7.826 -0.6172 -0.2978 -0.5059
  169SAPE   H8X19147   0.716   2.742   7.852 -0.9940 -0.8024  0.5048
  169SAPE   H8Y19148   0.567   2.672   7.795 -2.8143 -0.2259  2.2579
  169SAPE   C3919149   0.534   2.831   7.943 -0.1801  0.6004 -0.0343
  169SAPE   H9X19150   0.466   2.763   8.000  1.2218 -0.9340 -0.1545
  169SAPE   H9Y19151   0.466   2.911   7.906 -2.7198 -2.0832 -1.5307
  169SAPE  C31019152   0.634   2.890   8.044  0.4980  1.0540 -0.2767
  169SAPE  H10X19153   0.694   2.968   7.992 -1.9389  2.1121 -1.5852
  169SAPE  H10Y19154   0.700   2.807   8.078 -3.5558 -1.3222  2.1319
  169SAPE  C31119155   0.565   2.953   8.164  0.2126 -0.2352 -0.7991
  169SAPE  H11X19156   0.501   2.877   8.213 -0.4700 -0.3880 -1.9154
  169SAPE  H11Y19157   0.502   3.027   8.111 -0.3684 -1.2931 -1.6076
  169SAPE  C31219158   0.652   3.033   8.259  0.2866  0.7720 -0.1041
  169SAPE  H12X19159   0.667   3.137   8.223 -1.5733  1.9398  2.3491
  169SAPE  H12Y19160   0.752   2.985   8.263  0.6337  1.5934  1.8106
  169SAPE  C31319161   0.615   3.024   8.410 -0.1128 -0.6916 -0.3481
  169SAPE  H13X19162   0.507   3.048   8.421 -0.4426 -1.2224 -2.2358
  169SAPE  H13Y19163   0.670   3.108   8.458  0.5083 -0.6092 -1.1996
  169SAPE  C31419164   0.655   2.894   8.486  0.2980 -0.3630  0.0695
  169SAPE  H14X19165   0.765   2.890   8.502  0.2856  0.5838  0.3863
  169SAPE  H14Y19166   0.621   2.801   8.436  1.3788 -0.5644 -0.2995
  169SAPE  C31519167   0.595   2.899   8.630 -0.4175 -0.0651  0.1045
  169SAPE  H15X19168   0.621   2.996   8.677 -0.4134  0.1928 -0.4318
  169SAPE  H15Y19169   0.648   2.821   8.690  2.0538  1.0032 -0.6424
  169SAPE  C31619170   0.446   2.895   8.651 -1.1562 -0.2460 -0.3407
  169SAPE  H16X19171   0.393   2.977   8.599  0.0182  0.8448  0.1494
  169SAPE  H16Y19172   0.426   2.904   8.760 -1.2375 -1.1253 -0.2816
  169SAPE  C31719173   0.407   2.744   8.618  0.0793  0.4631 -0.3228
  169SAPE  H17X19174   0.455   2.672   8.687 -3.2177 -0.1199  1.4880
  169SAPE  H17Y19175   0.446   2.715   8.518 -0.1948  0.6469 -0.4849
  169SAPE  C31819176   0.254   2.717   8.607 -0.5550 -0.2171 -0.3243
  169SAPE  H18X19177   0.205   2.789   8.539  0.7794  0.8403 -0.1962
  169SAPE  H18Y19178   0.208   2.726   8.708 -0.1489  0.1689 -0.1697
  169SAPE  H18Z19179   0.252   2.613   8.568 -1.3809 -0.2025 -0.3149
  170SAPE     N19180   1.904   6.685   5.878  0.5058 -0.0496 -0.3481
  170SAPE   HN119181   1.802   6.691   5.893  0.6775 -0.8056  1.2096
  170SAPE   HN219182   1.945   6.776   5.907  0.4353  0.3339 -1.4299
  170SAPE   HN319183   1.920   6.665   5.777 -0.2670 -2.1196 -0.0834
  170SAPE   C1219184   1.964   6.575   5.970 -0.2172 -0.0573  0.1424
  170SAPE  H12A19185   2.072   6.596   5.982  0.0633 -2.2595  1.9100
  170SAPE  H12B19186   1.946   6.476   5.922 -1.1795 -1.0229  2.4260
  170SAPE   C1119187   1.894   6.579   6.105 -0.1428 -0.7210 -0.4155
  170SAPE  H11A19188   1.900   6.681   6.149 -1.9686 -0.9098  0.3268
  170SAPE  H11B19189   1.942   6.517   6.183 -0.6947 -0.6709 -0.0284
  170SAPE     P19190   1.626   6.638   6.077 -0.3015 -0.0671 -0.3520
  170SAPE   O1319191   1.644   6.714   5.955  0.4529  0.1582 -0.3943
  170SAPE   O1419192   1.497   6.565   6.072  0.6105 -0.4152 -0.2629
  170SAPE   O1219193   1.753   6.536   6.098  0.3332  0.0734 -0.2168
  170SAPE   O1119194   1.638   6.735   6.204  0.1796 -0.2000 -0.0692
  170SAPE    C119195   1.606   6.687   6.331  0.5982  0.7577  0.3989
  170SAPE    HA19196   1.530   6.607   6.316  0.0191  1.5599 -1.0690
  170SAPE    HB19197   1.693   6.635   6.376  1.0570  1.5026  0.3888
  170SAPE    C219198   1.543   6.790   6.421  0.0928  0.4612  0.3082
  170SAPE    HS19199   1.442   6.814   6.381 -0.3078  1.9407  2.1246
  170SAPE   O2119200   1.633   6.895   6.430  0.4122  0.8559  0.3122
  170SAPE   C2119201   1.577   7.011   6.464  0.0636 -0.6933  0.2092
  170SAPE   O2219202   1.454   7.023   6.479  0.6739  0.5547  0.1332
  170SAPE   C2219203   1.677   7.128   6.472  0.0071  0.0190  0.2874
  170SAPE   H2R19204   1.711   7.135   6.366 -0.4731 -1.6416  0.0097
  170SAPE   H2S19205   1.625   7.218   6.510 -0.5710  0.3938 -1.3501
  170SAPE    C319206   1.518   6.739   6.568 -0.3887 -0.1466 -0.1363
  170SAPE    HX19207   1.472   6.821   6.628  1.8737 -0.3505  1.9274
  170SAPE    HY19208   1.615   6.719   6.618 -0.0107  1.5882 -0.1596
  170SAPE   O3119209   1.432   6.616   6.553 -0.2218  0.1551 -0.0077
  170SAPE   C3119210   1.304   6.641   6.525  0.0042 -0.1368 -0.3245
  170SAPE   O3219211   1.249   6.746   6.498  0.0729 -0.2320  0.4087
  170SAPE   C3219212   1.224   6.503   6.522 -0.2211 -0.0315 -0.1215
  170SAPE   H2X19213   1.284   6.431   6.462  0.1931 -1.7358  2.2194
  170SAPE   H2Y19214   1.134   6.523   6.461 -0.1535  0.5104 -0.0400
  170SAPE   C2319215   1.800   7.092   6.560  0.1250  0.6990  0.1281
  170SAPE   H3R19216   1.887   7.159   6.539  0.5142  0.6128  1.4087
  170SAPE   H3S19217   1.835   6.993   6.525 -0.0064 -0.3893  2.9621
  170SAPE   C2419218   1.773   7.094   6.716  0.6761  0.4328 -0.0228
  170SAPE   H4R19219   1.869   7.060   6.761  0.3465  2.3110  2.1758
  170SAPE   H4S19220   1.688   7.032   6.751  1.3016 -0.5906 -0.2988
  170SAPE   C2519221   1.743   7.239   6.763  0.1818  0.4317  0.2197
  170SAPE   H5R19222   1.673   7.295   6.699  0.4720 -1.7350 -2.0714
  170SAPE   C2619223   1.806   7.312   6.862  0.5265  0.5805 -0.4484
  170SAPE   H6R19224   1.787   7.420   6.867 -3.3331  0.1338 -3.1162
  170SAPE   C2719225   1.923   7.267   6.949  0.4682  0.0285 -0.3657
  170SAPE   H7R19226   1.942   7.158   6.949 -1.4833 -0.3467 -1.9452
  170SAPE   H7S19227   1.883   7.288   7.051 -1.0270  0.7510 -1.0789
  170SAPE   C2819228   2.039   7.354   6.904  0.1988 -0.2954  0.7801
  170SAPE   H8R19229   2.035   7.396   6.803  1.4349 -0.0400  0.8285
  170SAPE   C2919230   2.146   7.391   6.986  0.0094  0.0620 -1.3524
  170SAPE   H9R19231   2.229   7.457   6.959 -0.3451  2.4788  3.0778
  170SAPE  C21019232   2.167   7.335   7.125  0.4088 -0.1187  0.5990
  170SAPE  H10R19233   2.274   7.340   7.155  0.1283  0.8351  1.4727
  170SAPE  H10S19234   2.156   7.225   7.126 -2.5515  0.1221 -0.1122
  170SAPE  C21119235   2.083   7.413   7.216 -0.1358 -0.6024 -0.1598
  170SAPE  H11R19236   2.020   7.482   7.158  1.9639  0.0643 -1.7359
  170SAPE  C21219237   2.093   7.421   7.352  0.1418 -0.1972 -0.2255
  170SAPE  H12R19238   2.029   7.500   7.394  2.3344  1.7640 -0.4539
  170SAPE  C21319239   2.177   7.364   7.460 -0.3048  0.2303 -0.5164
  170SAPE  H13R19240   2.283   7.364   7.425  0.4063 -1.7873  1.5313
  170SAPE  H13S19241   2.145   7.261   7.489  2.3009  0.1702  2.3661
  170SAPE  C21419242   2.164   7.436   7.595  0.2373 -0.0357 -0.5033
  170SAPE  H14R19243   2.059   7.432   7.626  0.3088 -0.1060 -0.2720
  170SAPE  C21519244   2.260   7.509   7.663  0.6316  0.5403  0.4883
  170SAPE  H15R19245   2.234   7.558   7.758 -0.0015 -3.6064  2.5937
  170SAPE  C21619246   2.409   7.527   7.626  0.7889 -0.8548 -0.3040
  170SAPE  H16R19247   2.432   7.635   7.637 -1.3283 -0.5595  1.4445
  170SAPE  H16S19248   2.435   7.504   7.520  1.1077 -1.9777  0.0205
  170SAPE  C21719249   2.510   7.445   7.715 -0.6221  0.2019  0.3755
  170SAPE  H17R19250   2.609   7.462   7.668  0.2620  0.4727  2.3120
  170SAPE  H17S19251   2.497   7.336   7.702 -1.2822  0.2145  0.8708
  170SAPE  C21819252   2.507   7.485   7.868  0.2133 -0.2147  0.1889
  170SAPE  H18R19253   2.413   7.451   7.917  0.7324 -2.3597 -0.2530
  170SAPE  H18S19254   2.521   7.594   7.886 -1.9602 -0.0392  1.0208
  170SAPE  C21919255   2.612   7.404   7.949  0.2782 -0.3096  0.1913
  170SAPE  H19R19256   2.715   7.407   7.907  1.1024 -0.5987  2.1547
  170SAPE  H19S19257   2.563   7.305   7.934 -1.9638  0.9318 -1.0365
  170SAPE  C22019258   2.618   7.429   8.100 -0.5125  0.9282 -0.4924
  170SAPE  H20R19259   2.521   7.419   8.154 -1.5565 -1.1093 -2.6611
  170SAPE  H20S19260   2.655   7.531   8.122 -1.2505  0.7719  1.6536
  170SAPE  H20T19261   2.696   7.362   8.143 -0.6759  1.1803  0.1970
  170SAPE   C3319262   1.203   6.446   6.666  0.2484  0.0460 -0.5621
  170SAPE   H3X19263   1.304   6.426   6.708 -1.4297  0.2602  3.8199
  170SAPE   H3Y19264   1.153   6.348   6.652  0.5636 -0.2464  0.3180
  170SAPE   C3419265   1.122   6.536   6.764  0.3155  0.0995  0.2214
  170SAPE   H4X19266   1.025   6.560   6.717 -0.7469 -1.0696  1.7761
  170SAPE   H4Y19267   1.173   6.634   6.774 -0.2670  0.6810 -2.1414
  170SAPE   C3519268   1.103   6.472   6.896  0.1200  0.3662  0.7967
  170SAPE   H5X19269   1.195   6.420   6.928 -0.6018 -2.1480 -1.0238
  170SAPE   H5Y19270   1.030   6.389   6.892  0.8106 -0.1900 -0.6489
  170SAPE   C3619271   1.047   6.562   7.012  0.0480  0.0728 -0.1811
  170SAPE   H6X19272   0.950   6.612   6.994  0.4777  1.3526  1.0016
  170SAPE   H6Y19273   1.113   6.651   7.025  1.1112 -0.6260 -0.6564
  170SAPE   C3719274   1.051   6.495   7.151  0.1352 -0.0296  0.0205
  170SAPE   H7X19275   1.147   6.441   7.161  0.2300  0.6375  3.3761
  170SAPE   H7Y19276   0.975   6.413   7.144  0.9230 -0.6444 -1.4270
  170SAPE   C3819277   1.036   6.600   7.264  0.5099 -0.4049  0.3186
  170SAPE   H8X19278   0.958   6.678   7.245  1.5405  0.6883  0.5304
  170SAPE   H8Y19279   1.127   6.661   7.284 -0.9585  1.7432  0.6334
  170SAPE   C3919280   0.988   6.541   7.397  0.1786  0.3674  0.4206
  170SAPE   H9X19281   0.943   6.442   7.374  0.0275  0.2510  1.2179
  170SAPE   H9Y19282   0.907   6.612   7.427  0.2551 -0.1351  1.8457
  170SAPE  C31019283   1.100   6.526   7.503  0.5083  0.2840 -0.2964
  170SAPE  H10X19284   1.164   6.617   7.515 -0.4215  0.7700  1.0971
  170SAPE  H10Y19285   1.169   6.451   7.460 -0.1835 -0.3342 -0.3234
  170SAPE  C31119286   1.051   6.476   7.640 -0.4442 -0.2513  0.2260
  170SAPE  H11X19287   1.007   6.374   7.645 -0.1687 -0.3934 -0.2221
  170SAPE  H11Y19288   0.977   6.555   7.662  2.0136  2.2373 -0.2610
  170SAPE  C31219289   1.165   6.474   7.746  0.6453 -0.2250  0.4717
  170SAPE  H12X19290   1.219   6.570   7.762 -0.7306  0.7472 -0.5502
  170SAPE  H12Y19291   1.245   6.408   7.708  0.6172 -0.4415  0.7886
  170SAPE  C31319292   1.120   6.431   7.886  0.4775  0.6586  0.2642
  170SAPE  H13X19293   1.104   6.322   7.881  0.1063  0.5883  2.5142
  170SAPE  H13Y19294   1.026   6.490   7.900  0.0243  0.0606 -0.2028
  170SAPE  C31419295   1.226   6.457   7.995  0.0536  0.2814  0.2325
  170SAPE  H14X19296   1.250   6.563   7.972 -0.8315  0.5696  0.6080
  170SAPE  H14Y19297   1.322   6.407   7.969  0.8809  0.7193  2.3469
  170SAPE  C31519298   1.169   6.445   8.126 -0.0557  0.1567  0.0549
  170SAPE  H15X19299   1.121   6.346   8.138 -0.5338  0.5425  1.4971
  170SAPE  H15Y19300   1.097   6.528   8.146  0.6758  0.8235 -0.0498
  170SAPE  C31619301   1.268   6.462   8.243  0.0538  0.6615  0.1775
  170SAPE  H16X19302   1.313   6.562   8.256  0.7236  0.3817  0.0483
  170SAPE  H16Y19303   1.353   6.401   8.205  0.0305  2.3692 -2.7354
  170SAPE  C31719304   1.225   6.422   8.388  0.3784 -0.0457 -0.7605
  170SAPE  H17X19305   1.323   6.411   8.440 -0.3269  0.7704  0.7873
  170SAPE  H17Y19306   1.161   6.331   8.386  2.4566 -1.5553 -2.6296
  170SAPE  C31819307   1.162   6.529   8.466  0.8933  0.2847  0.1904
  170SAPE  H18X19308   1.218   6.624   8.456  1.3012  0.2713  2.2275
  170SAPE  H18Y19309   1.158   6.508   8.575  0.3602  1.9839  0.5050
  170SAPE  H18Z19310   1.055   6.545   8.439  1.5464  2.0703 -1.5108
  171SAPE     N19311   3.461   1.385   6.496  0.1388 -0.5023  0.0442
  171SAPE   HN119312   3.499   1.289   6.504  1.3897  0.0522  1.0670
  171SAPE   HN219313   3.489   1.421   6.403  0.6091 -0.3534  0.2407
  171SAPE   HN319314   3.503   1.445   6.571 -0.4456 -0.5869  0.4434
  171SAPE   C1219315   3.311   1.387   6.509  0.0188 -0.0307  0.4719
  171SAPE  H12A19316   3.270   1.487   6.486  0.4194 -0.1948 -1.0311
  171SAPE  H12B19317   3.289   1.359   6.614  0.8998  1.9813  1.2084
  171SAPE   C1119318   3.250   1.279   6.415 -0.6565 -0.2836 -0.7638
  171SAPE  H11A19319   3.269   1.304   6.308 -2.2887  1.9713 -0.5475
  171SAPE  H11B19320   3.139   1.280   6.417 -0.6767  1.6042  3.4395
  171SAPE     P19321   3.218   1.024   6.435  0.2034 -0.2613 -0.2407
  171SAPE   O1319322   3.118   1.025   6.546 -0.0590  0.5998 -0.3664
  171SAPE   O1419323   3.171   1.006   6.296 -0.0607  0.3572 -0.1339
  171SAPE   O1219324   3.305   1.153   6.442 -0.7110 -0.5768  0.2024
  171SAPE   O1119325   3.315   0.905   6.458  0.0046 -0.1309  0.7805
  171SAPE    C119326   3.431   0.925   6.545 -1.1884 -0.0212 -0.0480
  171SAPE    HA19327   3.504   0.845   6.520 -1.2851 -0.9237  2.3469
  171SAPE    HB19328   3.473   1.027   6.535 -0.4436 -0.2387  0.7986
  171SAPE    C219329   3.404   0.889   6.693  0.6803  0.0720  0.2023
  171SAPE    HS19330   3.316   0.951   6.719 -0.9807 -0.9143 -2.8011
  171SAPE   O2119331   3.521   0.919   6.772 -0.6096 -0.4901 -0.1163
  171SAPE   C2119332   3.527   1.040   6.824  0.9188  0.1040 -0.5191
  171SAPE   O2219333   3.448   1.132   6.807  0.4084 -0.2020 -0.2649
  171SAPE   C2219334   3.639   1.045   6.922  0.5241 -0.0424  0.2790
  171SAPE   H2R19335   3.626   0.960   6.992  0.3596 -1.6054 -1.6026
  171SAPE   H2S19336   3.733   1.020   6.868  0.1708 -1.6375  0.3650
  171SAPE    C319337   3.371   0.740   6.706  0.3515  0.3537 -0.0859
  171SAPE    HX19338   3.468   0.695   6.676  1.1209  0.5692  2.0082
  171SAPE    HY19339   3.284   0.709   6.643  0.0070  1.3381 -0.1064
  171SAPE   O3119340   3.353   0.721   6.842 -0.5034  0.0183 -0.1036
  171SAPE   C3119341   3.232   0.688   6.888  0.7180  1.0824 -0.3640
  171SAPE   O3219342   3.133   0.674   6.814  0.1757 -0.7578  0.4606
  171SAPE   C3219343   3.228   0.672   7.034  0.6950 -0.4469 -0.7674
  171SAPE   H2X19344   3.277   0.574   7.055  0.1467 -0.3460  1.0326
  171SAPE   H2Y19345   3.126   0.666   7.078  0.9989 -3.3252 -0.3263
  171SAPE   C2319346   3.647   1.185   6.998  0.1281 -0.0808  0.7705
  171SAPE   H3R19347   3.544   1.215   7.026  0.0666 -0.0555  0.5139
  171SAPE   H3S19348   3.699   1.264   6.939 -0.4939  0.6111  1.1302
  171SAPE   C2419349   3.740   1.178   7.126  0.6770 -0.1747  0.4076
  171SAPE   H4R19350   3.741   1.286   7.154  0.7968 -0.2481  0.6837
  171SAPE   H4S19351   3.838   1.134   7.099  0.5555 -0.0538 -0.2459
  171SAPE   C2519352   3.682   1.089   7.234 -0.5637 -0.2643 -0.2539
  171SAPE   H5R19353   3.651   0.989   7.201  0.7718 -0.0933 -2.0907
  171SAPE   C2619354   3.677   1.115   7.365  0.3818 -0.5462  0.2822
  171SAPE   H6R19355   3.641   1.033   7.429 -0.7098 -1.1951 -1.1396
  171SAPE   C2719356   3.721   1.241   7.437  0.5171  0.2126 -0.5578
  171SAPE   H7R19357   3.638   1.269   7.506  1.5762  2.2135 -0.0562
  171SAPE   H7S19358   3.722   1.314   7.353  0.4000  0.1583 -0.6069
  171SAPE   C2819359   3.857   1.238   7.500 -0.5058 -0.4349  0.0683
  171SAPE   H8R19360   3.931   1.240   7.418  1.4875 -0.1932  1.8252
  171SAPE   C2919361   3.896   1.228   7.629 -0.1834 -0.1393 -0.1706
  171SAPE   H9R19362   4.004   1.227   7.654 -0.2149 -2.2209 -0.0265
  171SAPE  C21019363   3.808   1.212   7.753  0.7534 -0.0931 -0.0659
  171SAPE  H10R19364   3.760   1.112   7.741  2.8600 -1.2085  0.4749
  171SAPE  H10S19365   3.734   1.294   7.749  0.6454 -0.2524 -1.5419
  171SAPE  C21119366   3.874   1.200   7.890  0.5996 -0.1372 -0.0125
  171SAPE  H11R19367   3.982   1.216   7.902  0.6219 -0.0255 -0.3570
  171SAPE  C21219368   3.818   1.158   8.002 -0.1315 -0.2907  0.2320
  171SAPE  H12R19369   3.865   1.149   8.101 -0.6380 -3.1687  0.2748
  171SAPE  C21319370   3.667   1.128   8.015  0.2857 -0.0114  0.6162
  171SAPE  H13R19371   3.657   1.019   8.034  0.3591 -0.3397 -1.1952
  171SAPE  H13S19372   3.615   1.133   7.917 -1.1850 -1.0820  1.3299
  171SAPE  C21419373   3.595   1.204   8.126  0.1438 -0.0235  0.2337
  171SAPE  H14R19374   3.516   1.274   8.093  1.5817  0.6571 -1.8782
  171SAPE  C21519375   3.616   1.189   8.261 -0.1324  0.6145  0.3598
  171SAPE  H15R19376   3.550   1.246   8.328 -2.3672 -0.5462 -0.8018
  171SAPE  C21619377   3.712   1.090   8.332 -0.1101  0.0708 -0.0415
  171SAPE  H16R19378   3.786   1.047   8.261 -1.4478  0.3174 -1.5903
  171SAPE  H16S19379   3.652   1.010   8.379 -0.7258  0.8521  0.5149
  171SAPE  C21719380   3.795   1.156   8.445 -0.1769  0.1900 -0.3932
  171SAPE  H17R19381   3.863   1.222   8.387  0.2791 -0.8863 -1.1014
  171SAPE  H17S19382   3.862   1.082   8.493 -1.2658 -1.9398 -2.1110
  171SAPE  C21819383   3.707   1.218   8.556  0.3708  0.4982  0.2050
  171SAPE  H18R19384   3.620   1.157   8.591 -1.0856  2.7814  0.7267
  171SAPE  H18S19385   3.666   1.311   8.510 -1.1671  0.5304  1.5718
  171SAPE  C21919386   3.794   1.249   8.678  0.3495  0.5546 -0.0527
  171SAPE  H19R19387   3.877   1.310   8.638  0.6868 -0.1265 -0.4083
  171SAPE  H19S19388   3.832   1.152   8.717  0.3252  0.3295 -0.5887
  171SAPE  C22019389   3.709   1.320   8.783  0.4128 -0.4523 -0.5681
  171SAPE  H20R19390   3.704   1.430   8.765  2.9285 -0.3316 -0.7748
  171SAPE  H20S19391   3.759   1.311   8.882  1.0656  0.9244 -0.7607
  171SAPE  H20T19392   3.608   1.277   8.795  0.2064 -0.0585 -0.8974
  171SAPE   C3319393   3.299   0.782   7.117 -0.4361  0.2298  0.2255
  171SAPE   H3X19394   3.407   0.787   7.090 -0.8676  1.8801 -1.2438
  171SAPE   H3Y19395   3.288   0.745   7.222  1.1140  1.1165  0.7109
  171SAPE   C3419396   3.235   0.918   7.104  0.5621 -0.5976  0.3614
  171SAPE   H4X19397   3.137   0.913   7.155 -0.8231  1.2528 -2.0262
  171SAPE   H4Y19398   3.206   0.948   7.001 -2.5368  0.4695  1.4891
  171SAPE   C3519399   3.322   1.023   7.175  0.3843 -0.0964  0.2499
  171SAPE   H5X19400   3.271   1.121   7.167 -0.8597 -0.6258  1.6017
  171SAPE   H5Y19401   3.422   1.026   7.126  0.0885  0.1221 -0.3398
  171SAPE   C3619402   3.347   0.987   7.325  0.2063  0.8813  1.2531
  171SAPE   H6X19403   3.421   1.049   7.379  2.5911  0.5504 -1.5344
  171SAPE   H6Y19404   3.377   0.880   7.338  0.2796  0.6267 -0.8030
  171SAPE   C3719405   3.207   0.993   7.401 -0.4148 -0.4336 -0.5176
  171SAPE   H7X19406   3.129   0.931   7.352  0.3052 -1.1858 -0.7298
  171SAPE   H7Y19407   3.166   1.095   7.418 -0.2100 -0.7749  2.2714
  171SAPE   C3819408   3.224   0.960   7.547  0.3644  0.4662 -0.0021
  171SAPE   H8X19409   3.141   1.010   7.604 -0.0322  0.7025 -0.7766
  171SAPE   H8Y19410   3.320   1.002   7.583  0.0162  1.0841  0.2127
  171SAPE   C3919411   3.201   0.810   7.563  0.5505  0.7404  0.4690
  171SAPE   H9X19412   3.283   0.749   7.519  0.0488 -2.1336  3.3022
  171SAPE   H9Y19413   3.108   0.782   7.510  0.4379  0.4945  0.7951
  171SAPE  C31019414   3.190   0.775   7.714 -0.1425 -0.1391  0.4414
  171SAPE  H10X19415   3.102   0.834   7.747 -0.5491  0.2641 -1.3286
  171SAPE  H10Y19416   3.289   0.812   7.750 -1.0915  2.2631  0.6759
  171SAPE  C31119417   3.167   0.624   7.737  1.1595 -0.0202 -0.8651
  171SAPE  H11X19418   3.264   0.571   7.727  1.4423  0.6733 -1.8058
  171SAPE  H11Y19419   3.095   0.586   7.662  0.4874 -0.1476 -0.1717
  171SAPE  C31219420   3.108   0.594   7.882 -0.1594 -0.3351  0.2531
  171SAPE  H12X19421   3.027   0.666   7.906  0.6660  1.0101 -0.9130
  171SAPE  H12Y19422   3.191   0.604   7.955  0.0190  0.7771 -0.1033
  171SAPE  C31319423   3.047   0.453   7.884 -0.0230 -0.7812 -0.0760
  171SAPE  H13X19424   3.127   0.385   7.847  1.7385  0.8468  0.6872
  171SAPE  H13Y19425   2.958   0.459   7.817  0.4003  2.3104 -0.4284
  171SAPE  C31419426   3.007   0.410   8.025 -0.2146  0.0325 -0.0027
  171SAPE  H14X19427   2.919   0.474   8.045 -1.1914 -1.3034  0.0698
  171SAPE  H14Y19428   3.091   0.445   8.088 -0.7063  0.9032  0.1754
  171SAPE  C31519429   2.975   0.260   8.035 -0.3005 -0.0882 -0.5575
  171SAPE  H15X19430   3.073   0.208   8.031  0.9925  2.4353 -4.6873
  171SAPE  H15Y19431   2.919   0.233   7.943  0.4325  0.5772 -1.2134
  171SAPE  C31619432   2.894   0.217   8.160 -0.3816  0.0576 -0.1825
  171SAPE  H16X19433   2.803   0.280   8.157 -1.5164 -1.5030  0.7423
  171SAPE  H16Y19434   2.932   0.243   8.261 -2.0553  1.4591  0.1044
  171SAPE  C31719435   2.862   0.068   8.158  0.8052 -0.1497 -0.4623
  171SAPE  H17X19436   2.847   0.029   8.056 -0.9754 -0.9523  0.0918
  171SAPE  H17Y19437   2.768   0.059   8.216 -0.1341  1.4513 -1.6840
  171SAPE  C31819438   2.960  -0.024   8.238  0.2765  0.0204  0.2891
  171SAPE  H18X19439   2.899  -0.111   8.270  0.0601 -0.3463 -1.0977
  171SAPE  H18Y19440   3.004   0.021   8.330  1.0312  1.0875 -0.5869
  171SAPE  H18Z19441   3.054  -0.053   8.185 -0.2593  0.3034 -0.8173
  172SAPE     N19442   2.406   6.087   6.250 -0.0671 -0.2693 -0.4727
  172SAPE   HN119443   2.309   6.121   6.234 -0.0717 -0.2993 -0.5081
  172SAPE   HN219444   2.407   5.983   6.258  1.7970 -0.2127  0.4391
  172SAPE   HN319445   2.435   6.135   6.337  1.2011 -0.8043 -0.5799
  172SAPE   C1219446   2.489   6.126   6.131 -0.6968  0.3718  0.5243
  172SAPE  H12A19447   2.488   6.237   6.125 -0.6278  0.3058 -1.0809
  172SAPE  H12B19448   2.442   6.076   6.043  0.5537  0.6728 -0.3322
  172SAPE   C1119449   2.632   6.064   6.143 -0.4274 -0.0228 -0.2070
  172SAPE  H11A19450   2.693   6.073   6.051 -0.4168 -1.6007 -0.3656
  172SAPE  H11B19451   2.627   5.956   6.167 -1.8126  0.1487  0.2944
  172SAPE     P19452   2.789   6.253   6.219  0.2544 -0.1581 -0.0252
  172SAPE   O1319453   2.883   6.275   6.335  0.5682  0.1738  0.0991
  172SAPE   O1419454   2.860   6.240   6.086  0.0142  0.3460 -0.2012
  172SAPE   O1219455   2.706   6.126   6.246 -0.7556  0.0690 -0.4724
  172SAPE   O1119456   2.690   6.369   6.198  0.2093 -0.3023 -0.6554
  172SAPE    C119457   2.588   6.406   6.293  0.0853  0.2933  0.5669
  172SAPE    HA19458   2.494   6.418   6.234  1.3616  0.3581 -1.4969
  172SAPE    HB19459   2.563   6.323   6.362  1.6894 -0.1770  0.6057
  172SAPE    C219460   2.617   6.526   6.372  0.0718 -0.2546  0.6412
  172SAPE    HS19461   2.648   6.608   6.303 -0.7202 -0.3297  0.1899
  172SAPE   O2119462   2.728   6.492   6.454  0.3291  0.1348  0.0832
  172SAPE   C2119463   2.799   6.589   6.508 -0.2764  0.2542  0.4986
  172SAPE   O2219464   2.784   6.710   6.493  0.1103  0.1441  1.0657
  172SAPE   C2219465   2.920   6.528   6.582 -0.1862 -0.6629 -0.3417
  172SAPE   H2R19466   2.895   6.420   6.589  3.0096 -1.3885  0.7161
  172SAPE   H2S19467   2.998   6.552   6.507 -1.2937  1.8327 -0.7643
  172SAPE    C319468   2.492   6.567   6.453  0.2495  0.0081 -1.0451
  172SAPE    HX19469   2.408   6.585   6.383 -1.4508 -4.4065 -0.3174
  172SAPE    HY19470   2.512   6.663   6.506  0.1432  0.2079 -1.3644
  172SAPE   O3119471   2.458   6.465   6.546 -0.4854  0.6653 -0.9349
  172SAPE   C3119472   2.440   6.500   6.668  0.3642 -1.2022 -0.5122
  172SAPE   O3219473   2.446   6.613   6.717 -0.3014  0.1308  0.6901
  172SAPE   C3219474   2.400   6.371   6.750 -0.2218  0.4788 -0.1075
  172SAPE   H2X19475   2.477   6.293   6.734  0.9364  1.1881  1.8824
  172SAPE   H2Y19476   2.310   6.329   6.700 -1.0655  0.9847  0.9706
  172SAPE   C2319477   2.954   6.592   6.723  0.7181 -0.5053  0.4544
  172SAPE   H3R19478   2.986   6.692   6.686 -0.1107 -0.8593 -1.2954
  172SAPE   H3S19479   3.037   6.535   6.770  0.9839  1.4092  2.3868
  172SAPE   C2419480   2.823   6.596   6.814 -0.0348 -0.4336 -0.1238
  172SAPE   H4R19481   2.760   6.670   6.759  3.7915  1.2097 -2.4431
  172SAPE   H4S19482   2.842   6.642   6.913  0.5124 -2.0360  0.5205
  172SAPE   C2519483   2.749   6.469   6.826 -0.6678 -0.0549 -0.2536
  172SAPE   H5R19484   2.707   6.437   6.729 -0.4116  0.9067 -0.6945
  172SAPE   C2619485   2.726   6.408   6.941 -0.1436  0.0114  0.6942
  172SAPE   H6R19486   2.670   6.313   6.944 -3.0847  1.6739  0.1124
  172SAPE   C2719487   2.785   6.456   7.072 -0.1018  0.4570 -0.0023
  172SAPE   H7R19488   2.727   6.536   7.124 -3.1733 -1.8073  0.2286
  172SAPE   H7S19489   2.884   6.501   7.050  2.1133 -2.5486  3.3506
  172SAPE   C2819490   2.809   6.341   7.170  0.0125  0.1912  1.4252
  172SAPE   H8R19491   2.839   6.245   7.126  1.7079  1.5228 -0.4287
  172SAPE   C2919492   2.808   6.348   7.303 -0.4989  0.0217 -0.2564
  172SAPE   H9R19493   2.839   6.263   7.365  0.8821 -0.4846 -1.6232
  172SAPE  C21019494   2.779   6.469   7.388 -0.0326  0.4314  0.0528
  172SAPE  H10R19495   2.669   6.466   7.404  0.2489  1.3106  2.3052
  172SAPE  H10S19496   2.792   6.561   7.327 -2.2565  0.7774  0.0734
  172SAPE  C21119497   2.852   6.484   7.520  0.3520  0.5314 -0.6957
  172SAPE  H11R19498   2.951   6.530   7.512 -0.1165  1.3114 -2.0423
  172SAPE  C21219499   2.807   6.442   7.642 -0.6171  1.1424  0.0469
  172SAPE  H12R19500   2.865   6.483   7.726 -1.9914 -1.4511  2.3307
  172SAPE  C21319501   2.676   6.379   7.673 -0.1325  1.0517 -0.2065
  172SAPE  H13R19502   2.715   6.299   7.740  0.1171 -0.9936 -2.7352
  172SAPE  H13S19503   2.632   6.336   7.581 -0.3253 -0.6103  0.6443
  172SAPE  C21419504   2.579   6.477   7.738 -0.5603  0.2901  0.2832
  172SAPE  H14R19505   2.564   6.554   7.662  1.6450 -0.5414 -1.0637
  172SAPE  C21519506   2.533   6.478   7.861  0.5005 -0.5059 -1.1288
  172SAPE  H15R19507   2.474   6.565   7.895  2.0574  0.1705 -0.0891
  172SAPE  C21619508   2.565   6.369   7.962  0.6326 -0.4571  0.7448
  172SAPE  H16R19509   2.611   6.277   7.919 -0.3304 -0.4492 -0.3126
  172SAPE  H16S19510   2.464   6.342   7.999 -0.1228  0.7471 -0.4258
  172SAPE  C21719511   2.654   6.432   8.070  0.3926 -0.0318  0.4817
  172SAPE  H17R19512   2.612   6.531   8.099 -0.1842  0.3175 -1.4106
  172SAPE  H17S19513   2.751   6.448   8.018 -1.4808  0.7766 -2.9865
  172SAPE  C21819514   2.671   6.340   8.192  0.4046 -0.0181  0.0818
  172SAPE  H18R19515   2.710   6.242   8.156 -0.2702 -0.3259  0.1802
  172SAPE  H18S19516   2.569   6.327   8.235  0.8112  0.9436  1.3893
  172SAPE  C21919517   2.746   6.407   8.300  0.1251 -0.7290  0.4790
  172SAPE  H19R19518   2.843   6.449   8.265 -0.3601 -2.0138 -2.5149
  172SAPE  H19S19519   2.780   6.324   8.367 -0.7479  0.6336  2.6798
  172SAPE  C22019520   2.671   6.524   8.369  0.0972  0.0021 -0.3018
  172SAPE  H20R19521   2.726   6.572   8.453  0.5979 -1.8960  0.4915
  172SAPE  H20S19522   2.569   6.489   8.396  0.3717  0.7870  1.8414
  172SAPE  H20T19523   2.654   6.605   8.295  1.9198 -0.0912 -0.8513
  172SAPE   C3319524   2.366   6.396   6.902 -0.5573  0.0216 -0.0241
  172SAPE   H3X19525   2.431   6.475   6.946  0.1948  0.0017 -1.0764
  172SAPE   H3Y19526   2.386   6.303   6.961  3.0978  1.6896  1.5716
  172SAPE   C3419527   2.221   6.432   6.916  0.2580  0.6309  0.1180
  172SAPE   H4X19528   2.159   6.352   6.870  1.4074  0.6115 -1.4367
  172SAPE   H4Y19529   2.201   6.522   6.855  1.6142  1.1152  0.3647
  172SAPE   C3519530   2.184   6.463   7.063 -0.3367 -0.2935  0.1415
  172SAPE   H5X19531   2.112   6.547   7.062  0.7570  0.6669  0.6953
  172SAPE   H5Y19532   2.280   6.495   7.109 -0.4507 -0.0623  0.2185
  172SAPE   C3619533   2.134   6.343   7.144 -0.5063  0.8368 -0.4840
  172SAPE   H6X19534   2.201   6.254   7.144  0.8707  1.8236  2.1693
  172SAPE   H6Y19535   2.032   6.312   7.111 -0.1386 -0.4228 -0.4809
  172SAPE   C3719536   2.102   6.385   7.289  0.0501 -0.4520  0.3608
  172SAPE   H7X19537   2.047   6.305   7.343 -1.2235 -0.2440 -0.6058
  172SAPE   H7Y19538   2.040   6.477   7.295  0.1489 -0.5492  3.2053
  172SAPE   C3819539   2.229   6.406   7.369  0.1478  0.1909 -0.0500
  172SAPE   H8X19540   2.294   6.488   7.332 -0.3556  0.5818 -0.0767
  172SAPE   H8Y19541   2.282   6.309   7.361 -2.3965 -1.1195 -1.7717
  172SAPE   C3919542   2.190   6.436   7.520 -0.1147  0.1183 -0.2129
  172SAPE   H9X19543   2.289   6.422   7.567 -0.3562 -2.8595 -0.4913
  172SAPE   H9Y19544   2.125   6.358   7.567  2.5530 -1.1152  1.5554
  172SAPE  C31019545   2.128   6.579   7.548  0.0817  0.2417  0.1712
  172SAPE  H10X19546   2.047   6.588   7.472  0.5237 -0.2479 -0.3663
  172SAPE  H10Y19547   2.212   6.648   7.525  0.0164  0.2212 -0.1372
  172SAPE  C31119548   2.079   6.597   7.688 -0.6013 -0.3946 -0.2670
  172SAPE  H11X19549   1.990   6.534   7.711  0.1909 -0.3919  2.9702
  172SAPE  H11Y19550   2.046   6.701   7.706 -2.5114 -0.9060 -0.6444
  172SAPE  C31219551   2.183   6.564   7.794  0.2080  0.1336 -0.3374
  172SAPE  H12X19552   2.279   6.615   7.770 -0.7133  1.6128 -0.9735
  172SAPE  H12Y19553   2.214   6.458   7.807 -0.8563 -0.1084  0.3328
  172SAPE  C31319554   2.134   6.609   7.938  0.1584 -0.2039 -0.6113
  172SAPE  H13X19555   2.052   6.537   7.957  1.9888 -2.1545  0.1175
  172SAPE  H13Y19556   2.091   6.712   7.935  0.9635  0.1651 -0.0438
  172SAPE  C31419557   2.236   6.599   8.051 -0.2486 -0.4824 -0.0254
  172SAPE  H14X19558   2.327   6.650   8.013  1.3600 -2.5125  0.9859
  172SAPE  H14Y19559   2.262   6.494   8.078  2.7082  0.9694  3.3332
  172SAPE  C31519560   2.183   6.664   8.188  0.3289  0.1719  0.4236
  172SAPE  H15X19561   2.098   6.606   8.230  0.9646 -1.1582 -0.0702
  172SAPE  H15Y19562   2.143   6.765   8.166 -0.0024 -0.0805 -0.1503
  172SAPE  C31619563   2.286   6.683   8.297  0.3525  0.4932  0.6525
  172SAPE  H16X19564   2.362   6.753   8.257  0.6084  0.0215  0.3126
  172SAPE  H16Y19565   2.334   6.585   8.315  0.0370 -0.0065 -1.1527
  172SAPE  C31719566   2.208   6.748   8.421 -0.3745  0.0775 -0.4689
  172SAPE  H17X19567   2.112   6.697   8.443 -0.5425  0.7814  0.4623
  172SAPE  H17Y19568   2.179   6.852   8.398 -0.1511  0.3896  0.6589
  172SAPE  C31819569   2.290   6.743   8.552 -0.6122 -0.0349 -0.0787
  172SAPE  H18X19570   2.369   6.821   8.541  1.4091 -2.0892 -0.5093
  172SAPE  H18Y19571   2.348   6.649   8.561 -1.5822 -0.7071 -0.7806
  172SAPE  H18Z19572   2.240   6.754   8.651  0.5377  0.4081  0.4628
  173SOPE     N19573   3.195   3.883  11.245  0.1624  0.2450  0.6488
  173SOPE   HN119574   3.092   3.877  11.250  0.1691 -1.0387 -0.8469
  173SOPE   HN219575   3.244   3.869  11.336 -0.2210  2.0493  1.1668
  173SOPE   HN319576   3.216   3.984  11.226  0.5324  0.2670  1.1384
  173SOPE   C1219577   3.261   3.797  11.145  0.1820  0.2471  0.2055
  173SOPE  H12A19578   3.224   3.693  11.159 -0.6488  0.2298 -1.8368
  173SOPE  H12B19579   3.371   3.798  11.154  0.1540 -1.2558  0.9698
  173SOPE   C1119580   3.219   3.843  11.002 -0.7299 -0.0345  0.6151
  173SOPE  H11A19581   3.262   3.774  10.925  3.0831  2.5723  0.2536
  173SOPE  H11B19582   3.269   3.940  10.981  0.4214 -0.7843 -0.1896
  173SOPE     P19583   2.984   3.730  10.971  0.0942  0.0064 -0.2621
  173SOPE   O1319584   2.853   3.777  10.919 -0.3793 -0.5934  0.2685
  173SOPE   O1419585   2.980   3.661  11.101 -0.1788 -0.2034 -0.6629
  173SOPE   O1219586   3.080   3.854  10.987  0.0023  0.1809  0.6311
  173SOPE   O1119587   3.061   3.636  10.872 -0.1998 -0.4928 -0.5126
  173SOPE    C119588   3.023   3.624  10.732  0.5954  0.3026 -0.7851
  173SOPE    HA19589   2.978   3.718  10.693  1.7986  0.4794 -1.7854
  173SOPE    HB19590   2.954   3.538  10.723 -1.8756  2.0935  0.3220
  173SOPE    C219591   3.158   3.612  10.651  1.5011 -0.4543  0.1971
  173SOPE    HS19592   3.206   3.709  10.675 -2.2353  1.2108  1.2996
  173SOPE   O2119593   3.125   3.585  10.509 -0.4670  0.3539  0.2273
  173SOPE   C2119594   3.085   3.694  10.445  0.5225  0.3267 -0.0891
  173SOPE   O2219595   3.078   3.806  10.496 -0.0959 -0.0144 -0.7226
  173SOPE   C2219596   3.051   3.639  10.308  0.6935  0.3612 -0.6334
  173SOPE   H2R19597   2.956   3.582  10.302  0.4725  0.6103  0.3469
  173SOPE   H2S19598   3.133   3.569  10.282  0.7274 -0.5051  1.7029
  173SOPE    C319599   3.247   3.498  10.700 -0.4578  0.3160  0.0906
  173SOPE    HX19600   3.185   3.407  10.717 -0.4757 -0.1755 -2.5170
  173SOPE    HY19601   3.286   3.523  10.801 -5.3939  1.6763  1.8276
  173SOPE   O3119602   3.347   3.452  10.606  0.7705  0.2323  0.0705
  173SOPE   C3119603   3.457   3.529  10.611  0.3724  0.2941  0.1474
  173SOPE   O3219604   3.468   3.634  10.674 -0.3546  0.0177  0.4720
  173SOPE   C3219605   3.574   3.465  10.531 -0.1591 -0.2951  0.3498
  173SOPE   H2X19606   3.559   3.357  10.511 -1.5661 -0.0837  0.2404
  173SOPE   H2Y19607   3.660   3.491  10.597 -1.0309  1.9294  0.6456
  173SOPE   C2319608   3.054   3.747  10.200  0.0769  0.5262  0.1153
  173SOPE   H3R19609   3.148   3.807  10.197  0.1563  0.4660  1.0998
  173SOPE   H3S19610   2.971   3.820  10.201 -1.1773 -0.8592  2.3385
  173SOPE   C2419611   3.048   3.678  10.066 -0.3014 -0.6206  0.6098
  173SOPE   H4R19612   3.137   3.611  10.063 -1.0646 -1.5758 -1.3032
  173SOPE   H4S19613   2.965   3.604  10.061 -0.8822 -0.0085  1.1266
  173SOPE   C2519614   3.027   3.773   9.943  0.4722  0.4408  0.7817
  173SOPE   H5R19615   2.931   3.828   9.946 -0.3159 -0.6275 -2.2659
  173SOPE   H5S19616   3.105   3.852   9.942  2.5257 -1.5110 -0.3313
  173SOPE   C2619617   3.038   3.689   9.818 -0.3908  0.0282 -0.2224
  173SOPE   H6R19618   3.132   3.631   9.805 -1.6440 -1.6944 -1.9818
  173SOPE   H6S19619   2.961   3.609   9.809  0.9412 -1.1715 -1.2247
  173SOPE   C2719620   3.030   3.782   9.692 -0.0259  0.3664 -0.4707
  173SOPE   H7R19621   2.924   3.813   9.676  0.8601  1.8430 -4.1362
  173SOPE   H7S19622   3.088   3.876   9.709  0.9040 -0.2222 -0.3987
  173SOPE   C2819623   3.094   3.728   9.567 -0.2828 -0.1318 -0.4481
  173SOPE   H8R19624   3.108   3.821   9.508  0.2513 -0.8732 -1.5043
  173SOPE   H8S19625   3.198   3.707   9.599  0.4491  1.8922 -1.4409
  173SOPE   C2919626   3.018   3.612   9.512 -0.0006  0.6332  0.0726
  173SOPE   H9119627   3.023   3.516   9.566 -0.8954  1.7917  2.2372
  173SOPE  C21019628   2.946   3.614   9.391 -0.1822  0.0931 -0.1085
  173SOPE  H10119629   2.892   3.520   9.374  1.3587 -0.5379 -1.7537
  173SOPE  C21119630   2.926   3.736   9.306 -1.0076 -0.1646 -0.3413
  173SOPE  H11R19631   2.908   3.826   9.369 -1.7541 -0.2556 -0.4205
  173SOPE  H11S19632   2.836   3.723   9.243 -0.8336 -1.2137 -0.3732
  173SOPE  C21219633   3.037   3.768   9.213  0.0980 -0.2130 -0.4321
  173SOPE  H12R19634   3.129   3.804   9.265 -0.4805  0.7214 -0.0512
  173SOPE  H12S19635   2.997   3.849   9.148 -0.9373  0.2738  0.7964
  173SOPE  C21319636   3.076   3.651   9.123  0.3986 -0.6530 -0.3289
  173SOPE  H13R19637   2.989   3.588   9.094  2.1433 -2.2496 -2.2328
  173SOPE  H13S19638   3.150   3.588   9.175  1.9678  1.2689 -0.1780
  173SOPE  C21419639   3.138   3.709   8.998  0.7037  1.1254 -0.0384
  173SOPE  H14R19640   3.233   3.763   9.020  0.5917  1.8340 -1.2138
  173SOPE  H14S19641   3.076   3.789   8.951 -0.7646  1.3454  2.2264
  173SOPE  C21519642   3.178   3.615   8.890 -0.5083  0.2948  0.3109
  173SOPE  H15R19643   3.099   3.539   8.870  1.1070 -1.6514  1.1727
  173SOPE  H15S19644   3.271   3.560   8.915  0.2279  1.5189  0.3006
  173SOPE  C21619645   3.209   3.677   8.755  0.7049  0.1201  0.3768
  173SOPE  H16R19646   3.295   3.746   8.772  1.0847 -0.5954  1.4113
  173SOPE  H16S19647   3.119   3.734   8.725 -0.3417 -2.0097 -0.6303
  173SOPE  C21719648   3.244   3.579   8.634 -0.7317 -0.5462  0.0786
  173SOPE  H17R19649   3.160   3.507   8.623 -0.2090 -0.9636 -1.3276
  173SOPE  H17S19650   3.327   3.517   8.675  0.7044  0.9808 -0.4632
  173SOPE  C21819651   3.285   3.671   8.517  0.0375 -0.0687  0.1958
  173SOPE  H18R19652   3.203   3.742   8.491 -0.1408 -0.3017  0.1147
  173SOPE  H18S19653   3.301   3.616   8.422 -2.0511  0.1038 -0.2971
  173SOPE  H18T19654   3.379   3.724   8.543  0.0234  0.6656 -1.1910
  173SOPE   C3319655   3.605   3.530  10.394  0.4575 -0.0058  0.6526
  173SOPE   H3X19656   3.695   3.474  10.362 -0.9547 -2.2627  0.5041
  173SOPE   H3Y19657   3.614   3.640  10.407 -2.0308  0.1495  1.4149
  173SOPE   C3419658   3.502   3.506  10.287  0.1372  0.6671 -0.1941
  173SOPE   H4X19659   3.403   3.544  10.320  0.4092  0.9679  0.2771
  173SOPE   H4Y19660   3.494   3.396  10.270  0.6539  0.9527 -2.4094
  173SOPE   C3519661   3.547   3.567  10.150 -0.4494  0.1060 -0.0931
  173SOPE   H5X19662   3.646   3.519  10.136 -0.5496 -0.6684  1.6806
  173SOPE   H5Y19663   3.575   3.674  10.160 -3.2211  0.9019 -0.6868
  173SOPE   C3619664   3.462   3.530  10.032 -0.0532  0.2025 -0.4127
  173SOPE   H6X19665   3.353   3.545  10.053  0.2172 -0.0203  1.1910
  173SOPE   H6Y19666   3.470   3.420  10.019 -2.0003 -0.0372  0.1846
  173SOPE   C3719667   3.514   3.586   9.902 -0.9669  0.1239  0.1110
  173SOPE   H7X19668   3.613   3.542   9.876 -0.7923  0.2865  0.4991
  173SOPE   H7Y19669   3.518   3.694   9.925 -1.4664 -0.1498  1.5548
  173SOPE   C3819670   3.429   3.568   9.776  1.0955 -0.1925  0.2687
  173SOPE   H8X19671   3.344   3.637   9.795  2.3413  0.9813  1.6807
  173SOPE   H8Y19672   3.387   3.466   9.767 -1.4720  1.0454 -2.8360
  173SOPE   C3919673   3.503   3.607   9.649  0.5005 -0.5034 -0.7102
  173SOPE   H9X19674   3.604   3.564   9.663  1.2708  1.8167  1.0817
  173SOPE   H9Y19675   3.516   3.718   9.645  0.6004 -0.4798  0.1823
  173SOPE  C31019676   3.450   3.550   9.514  1.3827  0.0482 -0.0637
  173SOPE  H10X19677   3.343   3.575   9.497  2.0127  1.7515 -1.7217
  173SOPE  H10Y19678   3.450   3.439   9.516  1.5559 -0.0160 -2.3388
  173SOPE  C31119679   3.523   3.614   9.399  0.4454  0.1195 -0.2857
  173SOPE  H11X19680   3.633   3.613   9.417  0.4812  2.4579 -0.2849
  173SOPE  H11Y19681   3.504   3.723   9.396 -1.2253 -0.1158  1.3417
  173SOPE  C31219682   3.486   3.556   9.262  0.3037  0.3758 -0.3108
  173SOPE  H12X19683   3.386   3.587   9.227  0.7391  3.1760  0.7416
  173SOPE  H12Y19684   3.497   3.446   9.250 -2.7740  0.1788 -1.5685
  173SOPE  C31319685   3.593   3.591   9.160 -0.4110 -0.6108  0.0690
  173SOPE  H13X19686   3.685   3.545   9.203 -1.1644  0.2455  2.7329
  173SOPE  H13Y19687   3.619   3.699   9.154  0.0226 -0.6244  1.4324
  173SOPE  C31419688   3.552   3.536   9.022 -0.3296  0.8317 -0.0554
  173SOPE  H14X19689   3.451   3.569   8.993 -0.7907 -1.1396 -0.7517
  173SOPE  H14Y19690   3.539   3.426   9.011  4.1422  0.1538  0.1909
  173SOPE  C31519691   3.657   3.570   8.909 -0.9082 -0.4256  0.6198
  173SOPE  H15X19692   3.751   3.518   8.938 -1.7499 -0.7851  2.8622
  173SOPE  H15Y19693   3.674   3.680   8.908  0.8041 -0.6996 -0.4568
  173SOPE  C31619694   3.614   3.545   8.766  0.4164 -0.2136 -1.1902
  173SOPE  H16X19695   3.503   3.550   8.762  0.4108  0.6201 -0.2571
  173SOPE  H16Y19696   3.639   3.440   8.742  0.6443 -0.7937  1.4074
  173SOPE  C31719697   3.672   3.657   8.673  0.4819  1.3087 -0.0981
  173SOPE  H17X19698   3.655   3.760   8.712  1.8114  1.1113  1.0215
  173SOPE  H17Y19699   3.616   3.642   8.578 -0.8873  0.6447  0.7857
  173SOPE  C31819700   3.823   3.640   8.659  0.2414 -0.5348 -0.4085
  173SOPE  H18X19701   3.852   3.535   8.638  0.7147 -1.2002  3.2797
  173SOPE  H18Y19702   3.869   3.651   8.760  1.0178 -1.9286 -0.6071
  173SOPE  H18Z19703   3.872   3.705   8.582  0.4177 -2.1140 -1.6482
  174SOPE     N19704   2.427   3.634  10.791 -0.3217 -0.2789  0.3910
  174SOPE   HN119705   2.432   3.655  10.893 -3.2205 -1.9823  0.9508
  174SOPE   HN219706   2.380   3.713  10.741  0.3974 -1.0067 -1.4644
  174SOPE   HN319707   2.361   3.555  10.776  0.9547 -1.5546  1.4034
  174SOPE   C1219708   2.560   3.604  10.728  0.2991  0.0335  0.4510
  174SOPE  H12A19709   2.621   3.697  10.732 -0.0682  0.3309 -0.8168
  174SOPE  H12B19710   2.543   3.573  10.623 -1.7241  0.9125  0.4888
  174SOPE   C1119711   2.639   3.488  10.805 -0.6545  0.0592  0.0174
  174SOPE  H11A19712   2.668   3.527  10.905 -3.6484 -2.9285  2.1512
  174SOPE  H11B19713   2.733   3.458  10.754 -1.1845 -0.7859 -0.4792
  174SOPE     P19714   2.602   3.255  10.912 -0.0513 -0.1452  0.2536
  174SOPE   O1319715   2.548   3.124  10.870  0.5718  0.2425 -0.6287
  174SOPE   O1419716   2.566   3.309  11.048 -0.4425  0.4456  0.0294
  174SOPE   O1219717   2.566   3.365  10.802  0.2482  0.6756  0.1751
  174SOPE   O1119718   2.757   3.256  10.896 -0.4601 -0.0002 -0.2528
  174SOPE    C119719   2.825   3.155  10.820  0.2275 -0.0491  0.1040
  174SOPE    HA19720   2.753   3.074  10.797 -0.3241  0.9036 -1.6017
  174SOPE    HB19721   2.914   3.130  10.881  0.0610  0.8470  0.7154
  174SOPE    C219722   2.878   3.203  10.681 -0.1542  0.4488 -0.5573
  174SOPE    HS19723   2.938   3.296  10.695  1.1862 -0.2106 -1.7533
  174SOPE   O2119724   2.764   3.218  10.592  0.5095 -0.0270 -0.3260
  174SOPE   C2119725   2.769   3.308  10.504  0.7190 -0.4532  0.7325
  174SOPE   O2219726   2.856   3.394  10.489 -0.0764 -0.0641  0.2226
  174SOPE   C2219727   2.647   3.306  10.408  0.2874 -0.1564  0.0745
  174SOPE   H2R19728   2.580   3.389  10.441 -0.7630 -1.2092  0.6140
  174SOPE   H2S19729   2.600   3.205  10.414  0.8229 -0.3508  1.0420
  174SOPE    C319730   2.965   3.087  10.623 -0.2911  0.1338 -1.1567
  174SOPE    HX19731   2.901   3.003  10.590 -1.2448 -1.8658  5.0533
  174SOPE    HY19732   3.030   3.035  10.696 -0.7778 -0.6783 -1.3062
  174SOPE   O3119733   3.036   3.133  10.502  0.2632  0.4682 -0.3142
  174SOPE   C3119734   3.162   3.191  10.517  0.7781 -0.0059  0.4156
  174SOPE   O3219735   3.216   3.193  10.626  0.6496 -0.3168  0.0456
  174SOPE   C3219736   3.224   3.225  10.379  0.5358 -0.2337 -1.0913
  174SOPE   H2X19737   3.301   3.147  10.358 -1.8771 -2.9928 -0.0716
  174SOPE   H2Y19738   3.267   3.325  10.399 -1.6237  0.5889 -0.4257
  174SOPE   C2319739   2.689   3.328  10.259  0.1165  0.6934  0.5841
  174SOPE   H3R19740   2.771   3.257  10.234 -2.7642 -1.4707 -3.2907
  174SOPE   H3S19741   2.719   3.435  10.249 -0.2605  0.7803  0.3528
  174SOPE   C2419742   2.566   3.296  10.168  0.0586  0.7177 -0.9650
  174SOPE   H4R19743   2.515   3.203  10.202 -0.9306  1.2182 -1.0598
  174SOPE   H4S19744   2.494   3.370  10.208  1.7242  1.9558 -0.2190
  174SOPE   C2519745   2.607   3.308  10.021 -0.5384 -0.4887 -0.1592
  174SOPE   H5R19746   2.685   3.385  10.003 -2.5272  1.6880  0.1460
  174SOPE   H5S19747   2.653   3.213   9.988 -1.9638 -1.1134 -0.4033
  174SOPE   C2619748   2.493   3.332   9.924 -0.3391 -0.4353  0.3834
  174SOPE   H6R19749   2.440   3.424   9.956  0.6996 -0.1645  1.3501
  174SOPE   H6S19750   2.539   3.339   9.823 -1.6303  1.4411 -0.1083
  174SOPE   C2719751   2.390   3.220   9.918  0.0238  0.1951 -0.1454
  174SOPE   H7R19752   2.441   3.122   9.930 -0.0783  0.1535 -0.0602
  174SOPE   H7S19753   2.326   3.224  10.008  1.5742  0.5666  0.9753
  174SOPE   C2819754   2.301   3.235   9.792 -0.0611 -0.2159 -0.4095
  174SOPE   H8R19755   2.298   3.344   9.771  0.1571 -0.5610 -2.3997
  174SOPE   H8S19756   2.368   3.192   9.714  0.7883  0.5143 -0.0813
  174SOPE   C2919757   2.164   3.175   9.791  0.0549  0.0057 -0.0607
  174SOPE   H9119758   2.110   3.151   9.884 -2.7116  0.5218 -1.4653
  174SOPE  C21019759   2.092   3.156   9.680 -0.2786 -0.0522 -0.1101
  174SOPE  H10119760   1.994   3.110   9.697 -2.4846  3.2431 -3.2674
  174SOPE  C21119761   2.120   3.191   9.536  0.2567  0.1192 -0.0850
  174SOPE  H11R19762   2.215   3.246   9.520  1.7634 -2.3894 -0.0357
  174SOPE  H11S19763   2.035   3.252   9.498  0.8799  0.8344 -0.3599
  174SOPE  C21219764   2.152   3.070   9.448 -0.4091 -0.0263  0.4234
  174SOPE  H12R19765   2.084   2.984   9.466 -0.0764 -0.2763  0.4759
  174SOPE  H12S19766   2.256   3.040   9.473  0.6226  2.4879 -0.6811
  174SOPE  C21319767   2.135   3.102   9.300 -0.2239 -0.2753  0.1323
  174SOPE  H13R19768   2.207   3.183   9.273 -3.0059  1.6374 -1.8832
  174SOPE  H13S19769   2.037   3.149   9.278 -1.2012 -0.3961  3.8682
  174SOPE  C21419770   2.163   2.982   9.198  0.3546 -0.0890 -0.2194
  174SOPE  H14R19771   2.072   2.917   9.200  0.5860 -0.3779  1.0716
  174SOPE  H14S19772   2.248   2.923   9.238  1.7225  0.5230 -2.1651
  174SOPE  C21519773   2.193   3.041   9.060  0.9809 -0.2258 -0.0405
  174SOPE  H15R19774   2.302   3.057   9.047  0.7990 -0.4974 -2.0809
  174SOPE  H15S19775   2.140   3.136   9.039  0.4391 -0.8340 -1.5311
  174SOPE  C21619776   2.149   2.941   8.948 -0.0288  0.3211 -0.0563
  174SOPE  H16R19777   2.041   2.923   8.966 -0.1702  0.8211 -0.3765
  174SOPE  H16S19778   2.203   2.844   8.953 -0.8597 -0.1286  0.2720
  174SOPE  C21719779   2.167   2.990   8.798 -0.0404  0.0530 -0.1832
  174SOPE  H17R19780   2.275   3.001   8.774 -0.2215  2.6789  0.0269
  174SOPE  H17S19781   2.128   3.094   8.784  1.7382  0.7347 -0.1855
  174SOPE  C21819782   2.113   2.896   8.690 -0.1190  0.1869 -0.2114
  174SOPE  H18R19783   2.151   2.795   8.714 -0.5843  0.3009  1.0281
  174SOPE  H18S19784   2.136   2.926   8.585 -3.0946  0.2668 -0.9010
  174SOPE  H18T19785   2.003   2.903   8.701 -0.0343  1.6701 -0.1995
  174SOPE   C3319786   3.128   3.237  10.255  0.5654 -0.0105  1.0660
  174SOPE   H3X19787   3.050   3.313  10.277  1.6170  1.2465  0.5549
  174SOPE   H3Y19788   3.076   3.140  10.238 -1.9298  1.6207 -1.1153
  174SOPE   C3419789   3.204   3.289  10.126 -0.0440  0.0726 -0.1022
  174SOPE   H4X19790   3.298   3.234  10.104  0.7961  2.4308 -2.8901
  174SOPE   H4Y19791   3.225   3.396  10.149  1.7967 -0.2012 -0.4457
  174SOPE   C3519792   3.117   3.277   9.996 -0.5517 -0.1008  0.3610
  174SOPE   H5X19793   3.030   3.346  10.006 -1.0213 -0.8292  1.3762
  174SOPE   H5Y19794   3.086   3.171  10.008 -0.1103 -0.0484  2.1337
  174SOPE   C3619795   3.192   3.306   9.868  0.3854  0.0874  0.0754
  174SOPE   H6X19796   3.297   3.270   9.871 -0.4290 -2.5772 -1.6164
  174SOPE   H6Y19797   3.186   3.416   9.855 -2.2055  0.0286  0.4760
  174SOPE   C3719798   3.138   3.243   9.743 -0.5782 -0.1146  0.4304
  174SOPE   H7X19799   3.032   3.273   9.725 -0.7160 -1.9556 -2.1051
  174SOPE   H7Y19800   3.148   3.135   9.764 -3.4220 -0.6942 -0.9328
  174SOPE   C3819801   3.221   3.282   9.613  0.7469 -0.0146  0.0475
  174SOPE   H8X19802   3.312   3.219   9.612  1.4581  1.0190 -0.8742
  174SOPE   H8Y19803   3.244   3.390   9.620 -0.4125  0.2296  0.2778
  174SOPE   C3919804   3.164   3.253   9.476  0.1150  0.2036  0.2644
  174SOPE   H9X19805   3.096   3.340   9.459 -0.5104 -0.7602 -2.5428
  174SOPE   H9Y19806   3.101   3.161   9.479 -0.9555  0.9580  1.3822
  174SOPE  C31019807   3.273   3.222   9.370  0.2447  0.0660 -0.1969
  174SOPE  H10X19808   3.327   3.132   9.405  1.3473 -0.1547 -2.3762
  174SOPE  H10Y19809   3.359   3.292   9.360 -0.2531  1.0187  1.9983
  174SOPE  C31119810   3.224   3.211   9.218  0.4549  0.0561 -0.4082
  174SOPE  H11X19811   3.215   3.313   9.175 -0.4823  0.0281 -0.2793
  174SOPE  H11Y19812   3.121   3.171   9.224 -0.4999  2.6468  1.2946
  174SOPE  C31219813   3.327   3.113   9.143  0.7145 -0.6540 -0.5505
  174SOPE  H12X19814   3.401   3.072   9.215  1.7107 -1.3263 -1.9523
  174SOPE  H12Y19815   3.375   3.177   9.067 -0.0728  2.0829  1.1854
  174SOPE  C31319816   3.266   2.993   9.073  0.1480  0.4997 -0.1647
  174SOPE  H13X19817   3.209   3.022   8.982 -1.0464  0.3924  0.5418
  174SOPE  H13Y19818   3.196   2.939   9.140  1.9563 -1.8335 -0.0954
  174SOPE  C31419819   3.372   2.900   9.008  0.1394  0.1075 -0.0231
  174SOPE  H14X19820   3.423   2.860   9.099 -2.4130 -2.7220  0.2419
  174SOPE  H14Y19821   3.449   2.955   8.950 -0.3471  1.2129  0.3766
  174SOPE  C31519822   3.302   2.787   8.928  0.3650 -0.1676  0.1838
  174SOPE  H15X19823   3.216   2.760   8.994  0.6191  0.3530  0.7356
  174SOPE  H15Y19824   3.348   2.685   8.922 -1.7897 -1.2116  0.9091
  174SOPE  C31619825   3.263   2.831   8.784  0.0451  0.4280 -1.0134
  174SOPE  H16X19826   3.351   2.855   8.721  2.2197 -0.1986  1.7148
  174SOPE  H16Y19827   3.206   2.926   8.795 -1.3019 -0.1041 -2.9414
  174SOPE  C31719828   3.174   2.725   8.708 -0.0086  0.3106  0.4490
  174SOPE  H17X19829   3.113   2.664   8.779  0.9372 -0.1232  0.8954
  174SOPE  H17Y19830   3.245   2.651   8.665 -2.0680 -1.9891  0.8805
  174SOPE  C31819831   3.080   2.782   8.603 -0.1260  0.3954 -0.5285
  174SOPE  H18X19832   3.133   2.836   8.522  1.5089  0.0996  0.3263
  174SOPE  H18Y19833   3.016   2.855   8.658 -1.5400 -0.5824 -0.8422
  174SOPE  H18Z19834   3.006   2.709   8.564 -0.4284  0.7870 -0.6969
  175SOPE     N19835   4.778   4.706  10.747 -0.2521 -0.1111 -0.4310
  175SOPE   HN119836   4.741   4.792  10.792 -0.3347 -0.5146  0.2723
  175SOPE   HN219837   4.699   4.638  10.751 -2.1144  2.1180  1.9821
  175SOPE   HN319838   4.860   4.671  10.801  0.3107  0.6324 -0.7905
  175SOPE   C1219839   4.822   4.751  10.613 -0.6268 -0.1445 -0.3762
  175SOPE  H12A19840   4.734   4.750  10.545 -0.5397  1.3470 -0.5244
  175SOPE  H12B19841   4.908   4.694  10.572 -0.0777  0.9676 -0.7862
  175SOPE   C1119842   4.855   4.903  10.621  0.0134  0.2084 -0.3630
  175SOPE  H11A19843   4.876   4.932  10.516 -2.3966  0.6773 -0.7309
  175SOPE  H11B19844   4.945   4.908  10.687 -1.3996  0.8639  1.5424
  175SOPE     P19845   4.627   5.018  10.588  0.1397  0.0934  0.1814
  175SOPE   O1319846   4.559   5.147  10.625 -0.1458  0.1655  0.0004
  175SOPE   O1419847   4.537   4.902  10.609 -0.2354 -0.4495  0.0510
  175SOPE   O1219848   4.764   4.997  10.673 -0.0740  0.3281  0.0567
  175SOPE   O1119849   4.668   5.017  10.435  0.3135 -0.1859  0.0445
  175SOPE    C119850   4.696   5.140  10.369  0.2545  0.0726 -0.1902
  175SOPE    HA19851   4.769   5.128  10.287  1.1074  0.5120  0.4838
  175SOPE    HB19852   4.751   5.208  10.439  3.6927 -2.4732 -0.2843
  175SOPE    C219853   4.571   5.219  10.319  0.1304 -0.1920  0.8149
  175SOPE    HS19854   4.510   5.242  10.410 -1.1233  0.5755 -0.2055
  175SOPE   O2119855   4.491   5.128  10.235 -0.0469 -0.1919  0.3198
  175SOPE   C2119856   4.365   5.161  10.216  0.0531 -0.4279  0.5497
  175SOPE   O2219857   4.304   5.250  10.271 -0.3694  0.4126 -0.1467
  175SOPE   C2219858   4.299   5.064  10.124 -0.1290  0.4279  0.2757
  175SOPE   H2R19859   4.197   5.107  10.117 -1.3875 -2.3684  0.8447
  175SOPE   H2S19860   4.303   4.961  10.166 -1.2491 -0.3572 -1.4736
  175SOPE    C319861   4.606   5.356  10.251  0.4394  0.7422 -0.6072
  175SOPE    HX19862   4.664   5.406  10.331 -2.2688  0.2348  1.7737
  175SOPE    HY19863   4.513   5.413  10.233 -0.3257  0.1086  1.1859
  175SOPE   O3119864   4.691   5.339  10.137  0.0268 -0.1668 -0.0773
  175SOPE   C3119865   4.624   5.351  10.025  0.1391  0.4140  0.1215
  175SOPE   O3219866   4.501   5.360  10.014 -0.5127 -0.0365  0.1645
  175SOPE   C3219867   4.724   5.358   9.898  0.0373  0.3538  0.4397
  175SOPE   H2X19868   4.814   5.300   9.928 -0.6248 -1.2972 -0.6884
  175SOPE   H2Y19869   4.762   5.461   9.885  0.2226  0.0615 -1.6226
  175SOPE   C2319870   4.371   5.055   9.989 -0.3139  0.5259 -0.2776
  175SOPE   H3R19871   4.474   5.013   9.987 -0.4287  0.2536 -0.5141
  175SOPE   H3S19872   4.395   5.156   9.950  2.3572  0.3660  0.7926
  175SOPE   C2419873   4.284   4.974   9.884  0.0291  0.3052 -0.2675
  175SOPE   H4R19874   4.236   4.886   9.931 -1.2727  1.9591  1.5677
  175SOPE   H4S19875   4.200   5.038   9.850  0.4441 -0.1856 -2.3306
  175SOPE   C2519876   4.371   4.930   9.766  0.1966  0.4361  0.1096
  175SOPE   H5R19877   4.438   5.008   9.723  0.4747 -0.2563 -0.7244
  175SOPE   H5S19878   4.434   4.847   9.803  0.5207  0.4568 -0.3872
  175SOPE   C2619879   4.293   4.860   9.652  0.1906  0.2624 -0.0895
  175SOPE   H6R19880   4.357   4.788   9.597  2.2763  1.4484  0.7518
  175SOPE   H6S19881   4.206   4.810   9.701 -0.7112  1.8268 -0.0854
  175SOPE   C2719882   4.238   4.958   9.546 -0.6996 -0.9497  0.1333
  175SOPE   H7R19883   4.169   4.914   9.470 -0.5792  0.5669 -0.8902
  175SOPE   H7S19884   4.193   5.043   9.603 -1.0802 -0.8478 -0.3126
  175SOPE   C2819885   4.350   5.024   9.463  0.3382  0.6447  0.3949
  175SOPE   H8R19886   4.396   5.098   9.533  1.3759  1.0180 -0.6565
  175SOPE   H8S19887   4.423   4.944   9.439  0.3066  0.9527 -0.7740
  175SOPE   C2919888   4.313   5.091   9.327  0.6571 -0.4833  0.1183
  175SOPE   H9119889   4.241   5.039   9.261 -0.7897 -0.6135  1.7588
  175SOPE  C21019890   4.365   5.203   9.279 -0.2448 -0.2075  0.0282
  175SOPE  H10119891   4.341   5.231   9.175 -1.2426 -2.6338 -0.4287
  175SOPE  C21119892   4.473   5.288   9.347 -0.6624 -0.0221  0.1560
  175SOPE  H11R19893   4.493   5.256   9.451 -0.3474  2.0549  0.7501
  175SOPE  H11S19894   4.430   5.390   9.348 -3.7894 -1.2962  0.7200
  175SOPE  C21219895   4.607   5.293   9.279 -0.0268  0.0137 -0.4815
  175SOPE  H12R19896   4.672   5.349   9.350 -0.6993 -2.1124  1.8687
  175SOPE  H12S19897   4.595   5.358   9.190  0.8845  0.0552 -0.5824
  175SOPE  C21319898   4.655   5.155   9.240 -0.0087  0.9749 -0.1728
  175SOPE  H13R19899   4.583   5.102   9.174 -2.1339  0.6856  2.3157
  175SOPE  H13S19900   4.660   5.104   9.338  2.7604  0.6177 -0.4783
  175SOPE  C21419901   4.791   5.142   9.163  0.3057 -0.4372  0.6056
  175SOPE  H14R19902   4.815   5.034   9.152  0.5847 -0.4374  1.1952
  175SOPE  H14S19903   4.862   5.187   9.236  0.2261  0.7220 -0.0166
  175SOPE  C21519904   4.791   5.208   9.026  0.7026 -0.1754  0.4948
  175SOPE  H15R19905   4.897   5.223   8.995  0.7929 -0.3563  0.7109
  175SOPE  H15S19906   4.732   5.301   9.034  0.6958 -0.3134  2.2649
  175SOPE  C21619907   4.720   5.123   8.920 -0.2890 -0.5901  0.5050
  175SOPE  H16R19908   4.614   5.112   8.951 -0.8219 -1.5229 -1.5221
  175SOPE  H16S19909   4.759   5.019   8.916  1.7503  0.1994 -0.8821
  175SOPE  C21719910   4.716   5.189   8.777  0.5735 -0.3383 -0.1541
  175SOPE  H17R19911   4.820   5.223   8.759  0.6161 -0.5109 -0.2394
  175SOPE  H17S19912   4.651   5.279   8.777 -1.4808 -1.7954 -1.1575
  175SOPE  C21819913   4.692   5.094   8.655 -0.2744 -0.5370 -0.1334
  175SOPE  H18R19914   4.740   4.997   8.678  2.1342  0.3692 -1.1699
  175SOPE  H18S19915   4.727   5.144   8.562 -0.3256 -0.1479  0.0531
  175SOPE  H18T19916   4.585   5.073   8.634 -0.2505 -2.3091  1.4055
  175SOPE   C3319917   4.658   5.304   9.772 -0.2304  0.0588 -0.4277
  175SOPE   H3X19918   4.558   5.349   9.754 -0.6424 -1.6342 -2.5052
  175SOPE   H3Y19919   4.640   5.195   9.788 -1.1618  0.3403  0.5510
  175SOPE   C3419920   4.760   5.324   9.654  0.3572 -0.0649 -0.1849
  175SOPE   H4X19921   4.705   5.273   9.572  1.3580 -0.3268 -0.7089
  175SOPE   H4Y19922   4.857   5.274   9.676  0.3149  0.1180  0.4210
  175SOPE   C3519923   4.787   5.471   9.605 -0.1877 -0.1109 -0.0169
  175SOPE   H5X19924   4.833   5.532   9.686  0.0013 -0.9912  0.5389
  175SOPE   H5Y19925   4.699   5.521   9.559  1.7301  2.0836 -1.4262
  175SOPE   C3619926   4.896   5.465   9.495 -0.2062  0.5539  0.2167
  175SOPE   H6X19927   4.881   5.370   9.440 -2.8896 -0.6729  2.8979
  175SOPE   H6Y19928   4.992   5.451   9.550  0.4026  0.5168 -0.8336
  175SOPE   C3719929   4.902   5.595   9.415  0.1173 -0.8572 -0.2429
  175SOPE   H7X19930   4.916   5.675   9.491 -0.9554 -1.2982  0.4398
  175SOPE   H7Y19931   4.797   5.608   9.379 -0.3061  0.3325  1.3214
  175SOPE   C3819932   5.002   5.593   9.296  0.4816 -0.4240 -0.3679
  175SOPE   H8X19933   5.101   5.568   9.341 -0.9627  0.1580  3.3462
  175SOPE   H8Y19934   5.008   5.686   9.236 -2.3782 -1.3288 -2.1601
  175SOPE   C3919935   4.971   5.482   9.191  1.1864 -0.7321  0.5193
  175SOPE   H9X19936   4.861   5.491   9.176  1.2727  2.4232  1.2820
  175SOPE   H9Y19937   5.004   5.392   9.246  2.6539  0.1149  1.0537
  175SOPE  C31019938   5.060   5.492   9.072  0.3647 -0.1269 -0.0061
  175SOPE  H10X19939   5.089   5.394   9.028  1.6788  1.1202 -1.9915
  175SOPE  H10Y19940   5.157   5.532   9.108 -0.6759  1.3802  1.1529
  175SOPE  C31119941   5.006   5.592   8.963  0.0573 -0.1482 -0.0833
  175SOPE  H11X19942   5.094   5.627   8.905 -0.5549  0.6389 -0.5502
  175SOPE  H11Y19943   4.972   5.676   9.027  1.3140  0.1645  0.1809
  175SOPE  C31219944   4.900   5.518   8.881  0.4587  0.3771 -0.0590
  175SOPE  H12X19945   4.814   5.513   8.950  0.0660 -1.8252 -0.6863
  175SOPE  H12Y19946   4.944   5.418   8.862 -0.4854 -0.0715  0.0998
  175SOPE  C31319947   4.867   5.575   8.740 -0.2770  0.2634  0.1402
  175SOPE  H13X19948   4.790   5.513   8.689  1.0507 -0.7008 -0.7299
  175SOPE  H13Y19949   4.957   5.562   8.676 -0.7356 -0.5232 -0.3562
  175SOPE  C31419950   4.833   5.728   8.742 -1.3926  0.5972 -0.8005
  175SOPE  H14X19951   4.922   5.794   8.752 -1.0978  0.2922 -1.3862
  175SOPE  H14Y19952   4.769   5.746   8.831 -1.3532  1.3195 -0.9136
  175SOPE  C31519953   4.760   5.766   8.612  0.0796  0.6548  0.2561
  175SOPE  H15X19954   4.697   5.677   8.589 -1.1572  1.7883 -0.8292
  175SOPE  H15Y19955   4.823   5.785   8.523  0.0722 -1.4269 -0.2107
  175SOPE  C31619956   4.654   5.875   8.633  0.5132 -0.2264  0.2762
  175SOPE  H16X19957   4.702   5.961   8.683  3.6984 -0.7585 -1.7154
  175SOPE  H16Y19958   4.580   5.833   8.705 -1.7125 -0.1738 -1.9138
  175SOPE  C31719959   4.588   5.926   8.506 -0.0347 -0.0217 -0.2305
  175SOPE  H17X19960   4.672   5.964   8.443 -0.3475  2.2735  0.6831
  175SOPE  H17Y19961   4.525   6.015   8.529  0.1425  0.1192 -0.2877
  175SOPE  C31819962   4.508   5.830   8.418  0.1847 -0.8273  0.9990
  175SOPE  H18X19963   4.573   5.751   8.376  1.2589  0.2642  0.5889
  175SOPE  H18Y19964   4.458   5.885   8.335  0.8063 -1.7570  0.0022
  175SOPE  H18Z19965   4.422   5.791   8.477 -0.4546  1.0315  1.3469
  176SOPE     N19966   4.531   4.604  11.036  0.4061  0.4029  0.1520
  176SOPE   HN119967   4.595   4.646  11.107 -1.3532  2.0107  0.8372
  176SOPE   HN219968   4.583   4.561  10.957  0.8500  2.3407 -0.6639
  176SOPE   HN319969   4.489   4.687  10.989 -0.5232  0.5039  1.1485
  176SOPE   C1219970   4.426   4.511  11.090 -0.2126  0.2386  0.8743
  176SOPE  H12A19971   4.357   4.566  11.157 -0.7109  0.5702  0.0930
  176SOPE  H12B19972   4.465   4.434  11.160 -0.3173 -2.0098 -1.4708
  176SOPE   C1119973   4.357   4.445  10.976 -0.3372  0.6296  0.3166
  176SOPE  H11A19974   4.309   4.517  10.906 -1.7136 -0.4192  0.1594
  176SOPE  H11B19975   4.269   4.390  11.017 -1.4034  1.0084 -1.4284
  176SOPE     P19976   4.530   4.379  10.777 -0.1993  0.0059  0.3583
  176SOPE   O1319977   4.593   4.248  10.748 -0.5468  0.7181 -0.6254
  176SOPE   O1419978   4.615   4.499  10.802 -1.2622  0.1423 -0.2478
  176SOPE   O1219979   4.441   4.358  10.899 -0.1303  0.3385 -0.9342
  176SOPE   O1119980   4.427   4.413  10.661  0.4369 -0.1576 -0.1479
  176SOPE    C119981   4.292   4.359  10.649  0.7118  0.5986  0.4390
  176SOPE    HA19982   4.233   4.437  10.597  0.3251  0.0109 -0.0063
  176SOPE    HB19983   4.250   4.339  10.750  0.2087 -0.9246 -0.0656
  176SOPE    C219984   4.280   4.218  10.574 -0.2404 -0.0603  0.0392
  176SOPE    HS19985   4.353   4.149  10.623  0.6781  0.2280 -0.9075
  176SOPE   O2119986   4.300   4.228  10.435  0.5374  0.3015  0.7797
  176SOPE   C2119987   4.306   4.100  10.378  0.5887 -0.2544 -0.1727
  176SOPE   O2219988   4.314   3.998  10.435  0.4506  0.3055 -0.0614
  176SOPE   C2219989   4.314   4.111  10.223 -0.1273  0.2978  0.1931
  176SOPE   H2R19990   4.377   4.198  10.195  0.9900 -0.0025  1.6759
  176SOPE   H2S19991   4.212   4.137  10.188 -0.6939 -0.1295  1.4741
  176SOPE    C319992   4.128   4.164  10.595  0.3181  0.3790 -1.0197
  176SOPE    HX19993   4.113   4.161  10.705  2.6006 -0.9063 -0.6999
  176SOPE    HY19994   4.125   4.056  10.569  0.2497  0.1274  0.0209
  176SOPE   O3119995   4.025   4.247  10.541  0.0617 -0.2260  0.2509
  176SOPE   C3119996   3.930   4.184  10.460 -1.0409  1.1953  0.5343
  176SOPE   O3219997   3.938   4.066  10.432 -0.2706  0.3448  0.1674
  176SOPE   C3219998   3.820   4.284  10.409 -0.2874 -0.1511 -0.2690
  176SOPE   H2X19999   3.860   4.382  10.375 -1.6280  0.9807  1.3097
  176SOPE   H2Y20000   3.738   4.302  10.483 -2.4453 -0.7357 -2.4757
  176SOPE   C2320001   4.355   3.980  10.152  0.7305  0.1383 -0.5684
  176SOPE   H3R20002   4.271   3.907  10.157 -1.4527  2.6055  0.3054
  176SOPE   H3S20003   4.452   3.949  10.196  0.5320  1.2718  0.6964
  176SOPE   C2420004   4.393   4.012  10.011 -0.1021  0.2649  0.8518
  176SOPE   H4R20005   4.464   4.098  10.008 -1.1107  1.1209  1.3369
  176SOPE   H4S20006   4.449   3.920   9.984 -1.6036 -0.5835  0.5952
  176SOPE   C2520007   4.282   4.039   9.907  0.5985 -0.6696  0.3768
  176SOPE   H5R20008   4.237   3.942   9.877  0.3993 -0.4206 -0.1317
  176SOPE   H5S20009   4.211   4.109   9.955 -0.5678 -1.0071 -0.8111
  176SOPE   C2620010   4.345   4.098   9.780 -0.0504 -0.8882  0.2048
  176SOPE   H6R20011   4.329   4.206   9.796 -0.6325 -0.4938 -2.7186
  176SOPE   H6S20012   4.451   4.064   9.780 -0.2194 -1.4508 -0.4397
  176SOPE   C2720013   4.262   4.052   9.658  0.4333  0.8266  0.2431
  176SOPE   H7R20014   4.288   3.944   9.661  1.6031  1.1245  1.4161
  176SOPE   H7S20015   4.157   4.076   9.683  0.5870 -1.2044  3.1338
  176SOPE   C2820016   4.314   4.127   9.531  0.4192 -0.2629 -0.6272
  176SOPE   H8R20017   4.280   4.233   9.532  0.1959 -0.3167 -1.7893
  176SOPE   H8S20018   4.425   4.134   9.537  0.2445  2.0511  0.5890
  176SOPE   C2920019   4.282   4.047   9.408  0.6343  0.6923 -0.2942
  176SOPE   H9120020   4.173   4.038   9.396  0.6319 -1.5676  1.1432
  176SOPE  C21020021   4.369   3.997   9.309  0.8932  0.0116 -0.5897
  176SOPE  H10120022   4.334   3.922   9.237 -0.0409 -0.8728  0.7572
  176SOPE  C21120023   4.514   4.019   9.309 -0.0552  0.3873 -0.1096
  176SOPE  H11R20024   4.565   3.929   9.267  0.1965  1.1136 -1.3734
  176SOPE  H11S20025   4.555   4.051   9.408 -0.5225  1.4889 -0.2742
  176SOPE  C21220026   4.554   4.131   9.202 -0.8930 -0.2785 -0.7770
  176SOPE  H12R20027   4.549   4.228   9.257  1.5504 -0.1628 -0.7066
  176SOPE  H12S20028   4.496   4.128   9.108  1.7230  1.4285 -2.5139
  176SOPE  C21320029   4.696   4.105   9.152 -0.5181 -0.8933 -0.5255
  176SOPE  H13R20030   4.721   4.171   9.066  2.2677 -1.7474 -0.4319
  176SOPE  H13S20031   4.699   3.998   9.121 -2.6032 -1.1025 -0.0556
  176SOPE  C21420032   4.807   4.122   9.256 -0.2409 -0.0506 -0.8473
  176SOPE  H14R20033   4.790   4.056   9.343 -0.2242  1.2028  0.1229
  176SOPE  H14S20034   4.801   4.227   9.292  1.6639  0.1429 -1.0586
  176SOPE  C21520035   4.943   4.095   9.199  0.0955  0.3734  0.1564
  176SOPE  H15R20036   5.014   4.095   9.285 -0.5924  3.1628  0.7563
  176SOPE  H15S20037   4.966   4.178   9.129  3.2547 -0.3114  0.2848
  176SOPE  C21620038   4.958   3.973   9.110  0.1841  0.0317  0.1262
  176SOPE  H16R20039   4.885   3.979   9.027  2.0840 -0.4250 -1.6142
  176SOPE  H16S20040   4.932   3.882   9.168  0.2148 -0.4322 -0.5816
  176SOPE  C21720041   5.094   3.967   9.046  0.0729  0.5017 -0.3510
  176SOPE  H17R20042   5.166   3.974   9.130 -0.9028 -0.7821  0.6182
  176SOPE  H17S20043   5.103   4.062   8.990 -0.3837  1.8169  1.7839
  176SOPE  C21820044   5.132   3.854   8.949 -0.2227 -0.6195 -0.4718
  176SOPE  H18R20045   5.119   3.749   8.983 -3.7519 -0.2634 -0.5492
  176SOPE  H18S20046   5.239   3.856   8.918 -0.2405  2.1586 -0.4767
  176SOPE  H18T20047   5.074   3.857   8.854  2.5101 -0.8828 -2.2004
  176SOPE   C3320048   3.739   4.233  10.294 -0.2450 -0.0887 -0.5681
  176SOPE   H3X20049   3.650   4.295  10.268 -0.2547 -1.2022 -3.4223
  176SOPE   H3Y20050   3.693   4.133  10.313  0.2831 -0.1166  0.6063
  176SOPE   C3420051   3.822   4.231  10.162  0.6226  0.2332 -0.3095
  176SOPE   H4X20052   3.916   4.171  10.164  0.5412  0.1208  0.1150
  176SOPE   H4Y20053   3.857   4.333  10.136 -0.4432  0.7503  0.2638
  176SOPE   C3520054   3.738   4.186  10.049  0.4858 -0.2669  0.1202
  176SOPE   H5X20055   3.664   4.263  10.018  1.1801  0.7431  0.9271
  176SOPE   H5Y20056   3.676   4.097  10.073 -1.3212  0.8127 -0.4459
  176SOPE   C3620057   3.833   4.161   9.932  0.4516 -0.2189  0.1103
  176SOPE   H6X20058   3.905   4.091   9.980  0.2594  0.2581  1.1088
  176SOPE   H6Y20059   3.891   4.251   9.904  0.5028 -0.6775 -1.2779
  176SOPE   C3720060   3.762   4.094   9.811 -0.2492  0.3480 -0.2914
  176SOPE   H7X20061   3.678   4.164   9.792 -0.9653 -0.2229  0.7576
  176SOPE   H7Y20062   3.726   3.991   9.832  0.2021  0.4530  1.0505
  176SOPE   C3820063   3.852   4.077   9.686 -0.9322  0.3970 -0.6748
  176SOPE   H8X20064   3.920   3.990   9.697 -1.8689 -0.5546 -2.3004
  176SOPE   H8Y20065   3.904   4.172   9.659  2.3173 -0.8433  0.9791
  176SOPE   C3920066   3.763   4.042   9.564  0.2945  0.0502 -0.8850
  176SOPE   H9X20067   3.682   4.118   9.556 -0.1124 -0.1160  1.3368
  176SOPE   H9Y20068   3.711   3.948   9.592  0.1921  0.3428 -0.0551
  176SOPE  C31020069   3.833   4.040   9.427  0.3541 -0.0485 -0.4808
  176SOPE  H10X20070   3.925   3.978   9.432 -1.1399 -2.2163  0.8811
  176SOPE  H10Y20071   3.842   4.150   9.413 -0.2616  0.4799  2.9965
  176SOPE  C31120072   3.747   3.999   9.304  0.5586 -0.7895  0.4530
  176SOPE  H11X20073   3.643   4.038   9.312  1.4507  1.4832  1.5309
  176SOPE  H11Y20074   3.732   3.889   9.308 -1.8794 -0.5978 -1.9834
  176SOPE  C31220075   3.818   4.047   9.178  0.6469  0.1139 -0.3769
  176SOPE  H12X20076   3.871   4.141   9.204 -0.3166  0.6577 -0.3285
  176SOPE  H12Y20077   3.733   4.062   9.107  1.1137 -0.9619 -1.1659
  176SOPE  C31320078   3.921   3.947   9.118  0.1676 -0.1178 -0.6470
  176SOPE  H13X20079   3.873   3.855   9.078  0.1326 -0.1029 -0.6396
  176SOPE  H13Y20080   4.000   3.917   9.191 -1.1834 -3.2583 -0.3782
  176SOPE  C31420081   3.998   4.008   9.003  0.8637  0.5410 -0.2552
  176SOPE  H14X20082   4.068   4.087   9.036  2.0046  0.2077 -1.7956
  176SOPE  H14Y20083   3.930   4.063   8.934  0.6752  0.8468  0.1742
  176SOPE  C31520084   4.094   3.899   8.940  0.0531  0.0377 -0.0357
  176SOPE  H15X20085   4.035   3.810   8.911  1.7474 -1.0947 -0.0501
  176SOPE  H15Y20086   4.176   3.880   9.011  1.8039  3.0845 -1.1238
  176SOPE  C31620087   4.156   3.949   8.811 -0.1992  0.2519  0.2822
  176SOPE  H16X20088   4.079   3.991   8.743  1.6005  1.5481 -0.9999
  176SOPE  H16Y20089   4.201   3.864   8.757  1.7493  0.2843  1.7863
  176SOPE  C31720090   4.269   4.060   8.815 -0.7518 -0.0421  0.6585
  176SOPE  H17X20091   4.357   4.018   8.867 -0.6109 -1.0691 -0.4038
  176SOPE  H17Y20092   4.220   4.138   8.877 -1.9835 -0.2860  0.0105
  176SOPE  C31820093   4.306   4.105   8.672  0.1145  0.1165 -0.7915
  176SOPE  H18X20094   4.332   4.023   8.602 -2.0085  0.0852 -1.5625
  176SOPE  H18Y20095   4.395   4.171   8.677  0.0481  0.0241  2.2872
  176SOPE  H18Z20096   4.216   4.152   8.627 -0.0533  0.9579  0.3823
  177SOPE     N20097   4.116   2.241  10.702  0.0563 -0.1369  0.3359
  177SOPE   HN120098   4.038   2.298  10.665 -0.1015  0.4828  1.5784
  177SOPE   HN220099   4.191   2.304  10.738 -0.1860 -0.0489  0.6879
  177SOPE   HN320100   4.153   2.179  10.627 -2.3355 -2.4611  0.9822
  177SOPE   C1220101   4.060   2.156  10.810 -0.1164 -0.8130 -0.4750
  177SOPE  H12A20102   4.145   2.094  10.849  1.3611  1.2390 -0.3651
  177SOPE  H12B20103   3.987   2.089  10.760 -0.8765 -0.3180 -0.0377
  177SOPE   C1120104   3.998   2.238  10.926  0.0513 -0.5475 -0.6039
  177SOPE  H11A20105   4.082   2.284  10.983 -0.4925 -0.9519  0.5431
  177SOPE  H11B20106   3.951   2.174  11.004  1.7346  1.1202  1.8242
  177SOPE     P20107   3.759   2.356  10.906 -0.5692 -0.1380  0.2665
  177SOPE   O1320108   3.749   2.496  10.963  0.7715  0.2151  1.2520
  177SOPE   O1420109   3.724   2.244  10.994 -0.1095 -0.4338 -0.4456
  177SOPE   O1220110   3.908   2.343  10.877  0.4822  0.0080  0.0503
  177SOPE   O1120111   3.700   2.346  10.752  0.1422 -0.7178 -0.0111
  177SOPE    C120112   3.560   2.372  10.727  0.1127 -0.1235  0.5539
  177SOPE    HA20113   3.545   2.481  10.720 -1.9820 -0.4717 -0.6171
  177SOPE    HB20114   3.493   2.335  10.808 -0.0013 -2.5418 -0.5895
  177SOPE    C220115   3.522   2.319  10.591 -0.5783 -0.1129 -0.4257
  177SOPE    HS20116   3.535   2.209  10.598 -1.1899 -0.3908 -3.2133
  177SOPE   O2120117   3.615   2.377  10.496 -0.1974  0.6059  0.5977
  177SOPE   C2120118   3.646   2.297  10.394  0.1679 -0.1606  0.5331
  177SOPE   O2220119   3.630   2.174  10.392  0.4101 -0.2052 -0.0656
  177SOPE   C2220120   3.698   2.383  10.275  0.3628  0.1243  0.1137
  177SOPE   H2R20121   3.809   2.376  10.282  0.3914  2.2764  2.1676
  177SOPE   H2S20122   3.662   2.487  10.288 -1.8177 -0.6229  0.2259
  177SOPE    C320123   3.379   2.353  10.556  0.4481 -0.4403  0.8677
  177SOPE    HX20124   3.335   2.455  10.560 -0.6763 -0.8220 -0.8043
  177SOPE    HY20125   3.329   2.308  10.645 -0.4032  0.5487  0.9066
  177SOPE   O3120126   3.334   2.276  10.442 -0.0353  0.3894 -0.4651
  177SOPE   C3120127   3.308   2.358  10.331  0.2702 -0.7802  0.0846
  177SOPE   O3220128   3.302   2.481  10.331 -0.1420 -0.1754  0.0213
  177SOPE   C3220129   3.284   2.273  10.202 -0.0881 -0.3369 -0.0567
  177SOPE   H2X20130   3.219   2.186  10.225 -1.2616  1.2996  3.1249
  177SOPE   H2Y20131   3.386   2.239  10.173 -0.5486 -1.8427  0.0632
  177SOPE   C2320132   3.643   2.332  10.140 -0.3582 -0.4364  0.5780
  177SOPE   H3R20133   3.544   2.381  10.144 -0.5038 -0.7970  1.5702
  177SOPE   H3S20134   3.626   2.224  10.120 -3.9119 -0.1214  1.6462
  177SOPE   C2420135   3.728   2.380  10.015  0.4097 -0.0846 -0.2190
  177SOPE   H4R20136   3.776   2.480  10.014 -0.7824  0.5016  0.1438
  177SOPE   H4S20137   3.822   2.322  10.006  0.2232 -0.4757  0.3810
  177SOPE   C2520138   3.656   2.378   9.880  0.3796 -1.2032  0.4189
  177SOPE   H5R20139   3.622   2.277   9.849 -2.3525 -0.2081  0.0331
  177SOPE   H5S20140   3.564   2.440   9.890  1.9754  1.2559  0.4947
  177SOPE   C2620141   3.736   2.447   9.763 -0.0231  0.1461 -0.2996
  177SOPE   H6R20142   3.670   2.433   9.675 -0.9586  0.5041  0.3492
  177SOPE   H6S20143   3.770   2.553   9.766  0.2909  0.0992 -1.8522
  177SOPE   C2720144   3.865   2.358   9.744 -0.2270 -0.1657  0.1890
  177SOPE   H7R20145   3.924   2.368   9.838 -0.4459  0.9387  0.2125
  177SOPE   H7S20146   3.833   2.252   9.741  1.4567 -0.6932  0.2024
  177SOPE   C2820147   3.931   2.372   9.609 -0.3820  0.4231 -0.0144
  177SOPE   H8R20148   3.951   2.479   9.589  0.7279  0.4892  1.3761
  177SOPE   H8S20149   4.034   2.330   9.606 -1.4016 -2.2806  1.1283
  177SOPE   C2920150   3.855   2.313   9.491 -0.0872 -0.4844  0.2592
  177SOPE   H9120151   3.747   2.304   9.511  0.0745  0.1384  1.3897
  177SOPE  C21020152   3.897   2.297   9.362 -0.3995  1.6927  0.5486
  177SOPE  H10120153   3.829   2.247   9.291  1.2152  0.5331 -0.2107
  177SOPE  C21120154   4.021   2.326   9.284 -0.3751  0.5809 -0.4651
  177SOPE  H11R20155   4.062   2.232   9.241  0.8904  1.8282 -2.0509
  177SOPE  H11S20156   4.101   2.384   9.335  0.8921 -0.4210 -1.2966
  177SOPE  C21220157   3.981   2.415   9.161  0.3228 -0.3070 -0.2369
  177SOPE  H12R20158   4.076   2.461   9.127  0.5273  0.8584  1.8097
  177SOPE  H12S20159   3.921   2.495   9.211  1.3331  0.9314 -0.9662
  177SOPE  C21320160   3.908   2.341   9.047 -0.5617 -0.5479 -0.8632
  177SOPE  H13R20161   3.868   2.423   8.983  1.8204  1.8139  0.5708
  177SOPE  H13S20162   3.818   2.277   9.057 -0.0357 -1.6748 -3.0252
  177SOPE  C21420163   4.011   2.266   8.959 -0.0046 -0.0100  0.0342
  177SOPE  H14R20164   4.056   2.180   9.013 -0.5477  1.3028  2.6569
  177SOPE  H14S20165   4.086   2.344   8.935 -0.9071  0.3908 -1.5719
  177SOPE  C21520166   3.960   2.210   8.822 -0.6241  0.8004 -0.1859
  177SOPE  H15R20167   4.042   2.148   8.781 -1.7239 -1.4645  0.9281
  177SOPE  H15S20168   3.936   2.295   8.756  0.4185  0.9933 -0.3201
  177SOPE  C21620169   3.842   2.112   8.835  0.1219 -0.7395 -0.5148
  177SOPE  H16R20170   3.767   2.150   8.907  0.5965  0.3223 -0.5793
  177SOPE  H16S20171   3.889   2.025   8.887 -0.8731 -1.2437 -0.4324
  177SOPE  C21720172   3.772   2.059   8.703  0.0584 -0.5735 -0.0202
  177SOPE  H17R20173   3.693   1.983   8.723  0.0418 -0.5247  0.1075
  177SOPE  H17S20174   3.851   2.008   8.644 -0.2141 -0.4996 -0.4481
  177SOPE  C21820175   3.721   2.176   8.614  0.1817 -0.1024  0.3494
  177SOPE  H18R20176   3.694   2.132   8.515 -0.3672  1.3743 -0.1618
  177SOPE  H18S20177   3.797   2.255   8.595 -0.7077  0.9871  1.2999
  177SOPE  H18T20178   3.635   2.232   8.656 -0.6156 -0.6258 -0.5576
  177SOPE   C3320179   3.227   2.351  10.081 -0.7710 -0.9752  0.0344
  177SOPE   H3X20180   3.285   2.444  10.068 -1.7727 -0.0729  1.8042
  177SOPE   H3Y20181   3.124   2.385  10.108  0.3161  2.4378  0.1168
  177SOPE   C3420182   3.230   2.264   9.953 -0.4174  0.5172 -0.2246
  177SOPE   H4X20183   3.150   2.188   9.949 -0.8479  0.9501  0.0339
  177SOPE   H4Y20184   3.325   2.207   9.950 -0.7092  0.1082 -1.7502
  177SOPE   C3520185   3.220   2.362   9.827 -0.1027 -0.4817 -0.0242
  177SOPE   H5X20186   3.308   2.429   9.824  0.9629 -1.8427  0.6007
  177SOPE   H5Y20187   3.133   2.426   9.853 -0.3704 -0.8730  0.0484
  177SOPE   C3620188   3.183   2.277   9.705 -0.0360 -0.2872  0.3690
  177SOPE   H6X20189   3.080   2.237   9.715  0.2737 -1.6889 -1.9374
  177SOPE   H6Y20190   3.243   2.187   9.684  0.1920  0.3874 -1.9594
  177SOPE   C3720191   3.181   2.339   9.566 -0.8953 -0.2865  0.2930
  177SOPE   H7X20192   3.136   2.441   9.578 -0.7117 -0.2370  0.5548
  177SOPE   H7Y20193   3.118   2.290   9.489 -1.5395 -0.7956  1.1345
  177SOPE   C3820194   3.318   2.373   9.513 -0.0191  0.8963  0.3857
  177SOPE   H8X20195   3.383   2.284   9.517  1.2848  1.8320  0.3140
  177SOPE   H8Y20196   3.372   2.447   9.575 -0.7316 -0.7327  3.0477
  177SOPE   C3920197   3.304   2.416   9.361 -0.2774 -0.5514  0.0746
  177SOPE   H9X20198   3.232   2.500   9.362  1.4675  1.0092 -1.1963
  177SOPE   H9Y20199   3.259   2.331   9.306 -2.6559  1.3888 -1.0560
  177SOPE  C31020200   3.434   2.465   9.295  0.2827  0.0800 -0.2087
  177SOPE  H10X20201   3.509   2.384   9.298  2.4700  1.9753 -1.8115
  177SOPE  H10Y20202   3.470   2.553   9.353  0.5690  0.6510 -1.2460
  177SOPE  C31120203   3.412   2.479   9.142 -0.3300  0.0367  0.3640
  177SOPE  H11X20204   3.406   2.587   9.116 -1.5181  0.1288  0.9820
  177SOPE  H11Y20205   3.317   2.435   9.106  0.9735 -1.8147 -0.8894
  177SOPE  C31220206   3.540   2.414   9.075 -0.0175 -0.0131  0.5777
  177SOPE  H12X20207   3.527   2.307   9.047 -0.4784  1.2726 -4.5403
  177SOPE  H12Y20208   3.631   2.425   9.137  0.0230  0.4444  0.4379
  177SOPE  C31320209   3.567   2.471   8.932 -0.3545  0.6462  0.0282
  177SOPE  H13X20210   3.662   2.434   8.887  0.3829  2.2090  0.2339
  177SOPE  H13Y20211   3.565   2.582   8.936  2.6124  0.7707 -0.6505
  177SOPE  C31420212   3.459   2.417   8.847  0.2775  0.3562  0.3550
  177SOPE  H14X20213   3.361   2.455   8.883  0.3754  0.0341  0.9632
  177SOPE  H14Y20214   3.444   2.307   8.846  1.6555  0.1612 -1.0622
  177SOPE  C31520215   3.490   2.461   8.698  0.3647 -0.0680 -0.2324
  177SOPE  H15X20216   3.585   2.419   8.657  1.4077  3.5651 -1.6993
  177SOPE  H15Y20217   3.496   2.572   8.696 -0.9373 -0.0115 -1.8768
  177SOPE  C31620218   3.374   2.405   8.614  0.3358 -0.1273 -0.3502
  177SOPE  H16X20219   3.277   2.420   8.665  0.5755 -0.9226  0.3582
  177SOPE  H16Y20220   3.383   2.294   8.611 -0.1862 -0.1525 -1.0227
  177SOPE  C31720221   3.385   2.462   8.476  0.0672 -0.2896  0.0739
  177SOPE  H17X20222   3.455   2.548   8.479 -1.3124  0.8377  0.4352
  177SOPE  H17Y20223   3.289   2.516   8.472 -0.6392 -1.4862  0.5296
  177SOPE  C31820224   3.401   2.361   8.366 -0.3837 -0.1686  0.2943
  177SOPE  H18X20225   3.483   2.294   8.401  0.7321  2.1851  2.3282
  177SOPE  H18Y20226   3.428   2.403   8.267  1.2715 -2.3854 -0.2497
  177SOPE  H18Z20227   3.304   2.307   8.363  1.0494 -2.8976  1.2532
  178SOPE     N20228   0.542   1.010  10.796  0.4749 -0.1749  0.1508
  178SOPE   HN120229   0.561   1.033  10.696 -1.1632 -0.2946 -0.1967
  178SOPE   HN220230   0.479   0.929  10.810  1.0588 -0.1478  3.3206
  178SOPE   HN320231   0.488   1.090  10.835  2.1724 -0.7266  3.8290
  178SOPE   C1220232   0.669   0.993  10.875 -0.7675  0.6093 -0.0151
  178SOPE  H12A20233   0.640   0.958  10.976  0.0231 -2.1512 -0.7099
  178SOPE  H12B20234   0.720   1.091  10.885  0.2439  0.2273 -1.2405
  178SOPE   C1120235   0.760   0.879  10.811 -0.8112 -0.3767  0.0665
  178SOPE  H11A20236   0.848   0.864  10.878 -0.1887 -1.4256 -0.9588
  178SOPE  H11B20237   0.792   0.905  10.708  0.5199 -0.5540  0.4201
  178SOPE     P20238   0.741   0.624  10.729  0.1397  0.2245 -0.1913
  178SOPE   O1320239   0.632   0.533  10.694  0.1004  0.7865 -0.5072
  178SOPE   O1420240   0.854   0.574  10.805 -0.8991 -0.0118 -0.1934
  178SOPE   O1220241   0.686   0.754  10.808 -0.5666 -0.1892  0.7652
  178SOPE   O1120242   0.801   0.683  10.588 -0.3340  0.5364 -0.4322
  178SOPE    C120243   0.698   0.736  10.492 -0.1012 -0.2487 -0.5934
  178SOPE    HA20244   0.751   0.819  10.442  0.0748 -0.4436 -0.7326
  178SOPE    HB20245   0.604   0.769  10.541  0.4442  1.7009 -0.8394
  178SOPE    C220246   0.675   0.628  10.384  0.5592 -0.2120  0.5619
  178SOPE    HS20247   0.644   0.535  10.437 -0.9476 -0.1209 -0.1437
  178SOPE   O2120248   0.793   0.604  10.311 -0.3493  0.3648 -0.0339
  178SOPE   C2120249   0.861   0.497  10.338  0.3477 -0.3481 -0.4146
  178SOPE   O2220250   0.820   0.402  10.403 -0.5057  0.0801 -0.0459
  178SOPE   C2220251   0.993   0.498  10.263 -0.1974 -0.0588  0.4886
  178SOPE   H2R20252   1.076   0.470  10.332  0.8945 -1.4241 -1.3001
  178SOPE   H2S20253   1.018   0.598  10.223  1.9920 -0.6698  0.2208
  178SOPE    C320254   0.561   0.682  10.298  0.1997 -0.1298  0.1091
  178SOPE    HX20255   0.485   0.721  10.370  0.5848  1.3939 -0.2792
  178SOPE    HY20256   0.525   0.598  10.235 -1.1959  0.0491  0.6290
  178SOPE   O3120257   0.607   0.798  10.227  0.5025 -0.0933  0.3675
  178SOPE   C3120258   0.652   0.769  10.105 -0.5120 -0.0213 -0.4411
  178SOPE   O3220259   0.630   0.664  10.043 -0.2592 -0.1290  0.1707
  178SOPE   C3220260   0.733   0.897  10.055  0.4809  0.5880  0.6304
  178SOPE   H2X20261   0.780   0.942  10.145  2.6723  1.9616 -1.1449
  178SOPE   H2Y20262   0.653   0.965  10.017  1.3099  2.0348  1.4292
  178SOPE   C2320263   0.991   0.398  10.143  0.8528  0.3687  0.3563
  178SOPE   H3R20264   0.935   0.305  10.165 -1.8391  2.0608  0.8513
  178SOPE   H3S20265   1.096   0.360  10.135 -0.2127 -2.6869  0.1424
  178SOPE   C2420266   0.944   0.460  10.014 -0.5140  0.0115  0.1619
  178SOPE   H4R20267   0.835   0.479  10.024 -0.1554  1.2657  2.0976
  178SOPE   H4S20268   0.998   0.557  10.010 -0.4134 -0.0336  0.4182
  178SOPE   C2520269   0.984   0.372   9.897 -0.2746  0.3724  0.1585
  178SOPE   H5R20270   1.095   0.362   9.891 -0.3026  0.7110 -1.0241
  178SOPE   H5S20271   0.928   0.277   9.908 -0.7217  0.8698  2.4581
  178SOPE   C2620272   0.948   0.427   9.762  0.5067  0.5784 -0.3269
  178SOPE   H6R20273   0.838   0.422   9.750  0.4527  2.4651 -0.7107
  178SOPE   H6S20274   0.971   0.535   9.759  0.0754  0.6579 -0.6983
  178SOPE   C2720275   1.012   0.350   9.648  0.0901 -0.0784  0.4766
  178SOPE   H7R20276   1.090   0.421   9.614  0.5182 -0.1858  1.2342
  178SOPE   H7S20277   1.055   0.250   9.670 -0.3832 -0.3469  0.1865
  178SOPE   C2820278   0.912   0.316   9.529  0.1612 -0.2401 -0.2979
  178SOPE   H8R20279   0.958   0.232   9.473 -0.4624 -2.4427  2.3871
  178SOPE   H8S20280   0.819   0.271   9.569 -0.0383 -0.0599 -0.5588
  178SOPE   C2920281   0.879   0.428   9.435 -0.0933  0.2680  0.6862
  178SOPE   H9120282   0.844   0.523   9.478  1.9257  1.3147  0.0675
  178SOPE  C21020283   0.897   0.428   9.294 -0.1095 -0.4540 -0.5936
  178SOPE  H10120284   0.876   0.522   9.241 -0.8621  0.1512  0.7744
  178SOPE  C21120285   0.944   0.316   9.204 -0.4590  0.0413  0.4090
  178SOPE  H11R20286   0.862   0.242   9.213 -1.4058  0.9537 -0.5541
  178SOPE  H11S20287   1.039   0.275   9.247 -0.1947 -0.0372 -0.2421
  178SOPE  C21220288   0.978   0.331   9.051 -0.2626 -0.1100  0.3063
  178SOPE  H12R20289   1.031   0.239   9.016 -0.4613  0.0473 -0.4069
  178SOPE  H12S20290   1.051   0.414   9.037 -0.0321 -0.3207  0.2451
  178SOPE  C21320291   0.845   0.365   8.962  0.5382  0.3667 -0.3143
  178SOPE  H13R20292   0.782   0.431   9.025  2.1157 -0.0485  1.7627
  178SOPE  H13S20293   0.777   0.277   8.951  1.3056 -0.3646  0.6659
  178SOPE  C21420294   0.871   0.416   8.820  0.0212 -0.4016  0.2151
  178SOPE  H14R20295   0.945   0.351   8.768 -0.2809 -0.8949  0.4019
  178SOPE  H14S20296   0.918   0.516   8.828  0.2692 -0.4081 -1.0479
  178SOPE  C21520297   0.736   0.420   8.728  0.5359  0.2790  0.4067
  178SOPE  H15R20298   0.670   0.492   8.781  2.1552  1.3140  1.0802
  178SOPE  H15S20299   0.678   0.329   8.754 -0.3419  1.0028  1.0206
  178SOPE  C21620300   0.780   0.431   8.580  0.0132  0.2520  0.9608
  178SOPE  H16R20301   0.851   0.348   8.559 -0.7768  0.0146 -0.9164
  178SOPE  H16S20302   0.835   0.527   8.569  0.7651 -0.4015 -1.4542
  178SOPE  C21720303   0.672   0.413   8.469 -1.1221  0.0090  0.8935
  178SOPE  H17R20304   0.596   0.494   8.479 -1.1988  0.2277 -1.2606
  178SOPE  H17S20305   0.621   0.315   8.474  0.7401 -1.1495 -1.8599
  178SOPE  C21820306   0.733   0.417   8.327  1.1337 -0.9753  0.8951
  178SOPE  H18R20307   0.808   0.335   8.322  0.2403 -1.8221  1.1684
  178SOPE  H18S20308   0.778   0.514   8.297  0.2913 -1.3432 -1.6634
  178SOPE  H18T20309   0.647   0.398   8.261  0.9939  0.5911  0.6127
  178SOPE   C3320310   0.845   0.864   9.950 -0.1182  0.4828  0.2741
  178SOPE   H3X20311   0.902   0.774   9.982  0.3790  0.7841  0.2218
  178SOPE   H3Y20312   0.911   0.951   9.936 -0.3588  1.0175  2.2660
  178SOPE   C3420313   0.775   0.839   9.818  0.1698 -0.7034 -0.3693
  178SOPE   H4X20314   0.690   0.909   9.805 -1.1646 -2.0446  1.0147
  178SOPE   H4Y20315   0.736   0.735   9.812 -0.0914 -0.5878 -0.6753
  178SOPE   C3520316   0.868   0.856   9.697 -0.2758 -0.4323  0.2634
  178SOPE   H5X20317   0.943   0.775   9.696 -0.2726 -0.4246 -1.0659
  178SOPE   H5Y20318   0.924   0.950   9.719  0.2855 -0.9476  1.0569
  178SOPE   C3620319   0.789   0.855   9.564  0.5765 -0.4028  0.4022
  178SOPE   H6X20320   0.718   0.941   9.570  0.8263 -0.2403  1.0991
  178SOPE   H6Y20321   0.738   0.757   9.561 -0.3032  0.0024  1.5736
  178SOPE   C3720322   0.885   0.876   9.451 -0.2145 -0.2835 -0.6070
  178SOPE   H7X20323   0.941   0.783   9.427  0.3302 -0.7833  2.4299
  178SOPE   H7Y20324   0.952   0.960   9.480 -0.9581 -0.2400  0.9704
  178SOPE   C3820325   0.826   0.920   9.316  0.4386 -0.4045 -0.3658
  178SOPE   H8X20326   0.802   1.029   9.317  0.0996 -0.4592 -2.2207
  178SOPE   H8Y20327   0.731   0.863   9.310 -0.0979  0.7128 -3.1460
  178SOPE   C3920328   0.913   0.888   9.187 -0.3125 -0.4289 -0.0589
  178SOPE   H9X20329   0.911   0.777   9.193 -2.1149 -0.4885 -1.2083
  178SOPE   H9Y20330   1.019   0.918   9.202  0.2641 -2.7011  0.4751
  178SOPE  C31020331   0.847   0.918   9.052 -0.8272  0.2351  0.4515
  178SOPE  H10X20332   0.817   1.025   9.051 -0.6712  0.2706 -0.8912
  178SOPE  H10Y20333   0.754   0.859   9.037 -1.5158  0.9511  1.7987
  178SOPE  C31120334   0.949   0.879   8.942 -0.9448  0.4800 -0.3925
  178SOPE  H11X20335   0.965   0.769   8.949 -3.9509 -0.0670 -1.3618
  178SOPE  H11Y20336   1.040   0.943   8.950  0.9840 -2.3756  1.4912
  178SOPE  C31220337   0.888   0.910   8.801 -0.5765  0.4007  0.1383
  178SOPE  H12X20338   0.882   1.021   8.800 -1.2528  0.3648  0.0687
  178SOPE  H12Y20339   0.788   0.863   8.788 -1.6114  2.6917 -0.4375
  178SOPE  C31320340   0.983   0.870   8.686 -0.0116 -0.1977 -0.0863
  178SOPE  H13X20341   0.986   0.760   8.668  0.3504  0.0795 -1.7529
  178SOPE  H13Y20342   1.087   0.894   8.716  0.6714 -1.2865 -1.4994
  178SOPE  C31420343   0.947   0.926   8.546 -0.0298 -0.2039 -0.2129
  178SOPE  H14X20344   0.953   1.036   8.534 -2.2002  0.0076  0.3556
  178SOPE  H14Y20345   0.837   0.907   8.545  0.2906 -2.2010  0.3441
  178SOPE  C31520346   1.016   0.867   8.424  0.0041 -0.1963  0.2109
  178SOPE  H15X20347   1.004   0.757   8.425 -1.3405 -0.1110 -2.5848
  178SOPE  H15Y20348   1.123   0.900   8.419 -0.0537 -0.1567 -0.7290
  178SOPE  C31620349   0.945   0.918   8.296 -0.0736 -0.1709  0.0555
  178SOPE  H16X20350   1.016   0.931   8.212 -0.5538 -0.9922 -0.4852
  178SOPE  H16Y20351   0.885   1.011   8.303  1.3066  0.7967 -0.7497
  178SOPE  C31720352   0.832   0.820   8.243 -0.9200  0.4946  0.0882
  178SOPE  H17X20353   0.765   0.816   8.332 -0.3923 -0.9404  0.4372
  178SOPE  H17Y20354   0.864   0.716   8.222 -0.8631  0.8209 -1.4538
  178SOPE  C31820355   0.764   0.860   8.114  0.4751  0.2019  0.3455
  178SOPE  H18X20356   0.719   0.962   8.121 -1.1861 -0.5627  0.9666
  178SOPE  H18Y20357   0.682   0.789   8.090  0.1701  0.7260 -0.1983
  178SOPE  H18Z20358   0.842   0.868   8.035  0.6089  1.6354  0.6104
  179SOPE     N20359   6.712   1.573   6.447 -0.2991 -0.2100  1.1583
  179SOPE   HN120360   6.780   1.623   6.386 -1.3999 -1.1915 -0.9306
  179SOPE   HN220361   6.731   1.476   6.415  1.3843  0.0897  1.2028
  179SOPE   HN320362   6.625   1.608   6.403  0.2760  0.6008  0.6481
  179SOPE   C1220363   6.732   1.601   6.590 -0.3043  0.0037 -0.0447
  179SOPE  H12A20364   6.841   1.608   6.607 -0.2467  0.8346 -0.6898
  179SOPE  H12B20365   6.690   1.515   6.646 -0.5495 -1.1274 -1.9291
  179SOPE   C1120366   6.666   1.738   6.627  0.4680 -0.6404  0.1706
  179SOPE  H11A20367   6.691   1.777   6.728 -0.0417 -0.8820  0.3938
  179SOPE  H11B20368   6.557   1.722   6.641  0.4271 -0.2043  0.3611
  179SOPE     P20369   6.660   1.982   6.562 -0.2310  0.4072 -0.0849
  179SOPE   O1320370   6.508   1.982   6.549 -0.6142 -0.3849 -0.6445
  179SOPE   O1420371   6.721   2.067   6.461  0.1105 -0.3298 -0.1294
  179SOPE   O1220372   6.701   1.837   6.532 -0.2271  0.7097 -0.1775
  179SOPE   O1120373   6.714   2.025   6.705  0.3944  0.3866  0.6720
  179SOPE    C120374   6.837   2.101   6.712  0.0529  0.5414 -0.0772
  179SOPE    HA20375   6.833   2.164   6.804  0.2491  1.3036 -0.5834
  179SOPE    HB20376   6.847   2.181   6.636  0.4167  2.0391  1.5067
  179SOPE    C220377   6.957   2.011   6.721  0.6937 -0.0126 -0.1255
  179SOPE    HS20378   6.950   1.942   6.635  1.8297  0.3372 -0.5155
  179SOPE   O2120379   6.951   1.941   6.846  0.6776 -0.7987 -0.3475
  179SOPE   C2120380   6.977   1.812   6.845  0.1067 -0.2486 -0.1067
  179SOPE   O2220381   7.004   1.747   6.746  0.8123 -0.3997 -0.6457
  179SOPE   C2220382   6.976   1.770   6.992  0.6392  0.8760  0.7749
  179SOPE   H2R20383   6.868   1.752   7.009  0.5145  0.8506 -0.0373
  179SOPE   H2S20384   7.008   1.848   7.064  1.3091 -0.0699  1.5206
  179SOPE    C320385   7.083   2.104   6.711 -0.5320  0.4433 -0.1828
  179SOPE    HX20386   7.092   2.153   6.611  1.0139 -0.0950 -0.3054
  179SOPE    HY20387   7.175   2.042   6.711 -0.2073  0.9213 -0.0119
  179SOPE   O3120388   7.084   2.197   6.820  0.7036  0.1404  0.0857
  179SOPE   C3120389   7.183   2.205   6.908  0.7114  0.7564 -0.3667
  179SOPE   O3220390   7.296   2.168   6.890 -0.1079  0.0319  0.0267
  179SOPE   C3220391   7.125   2.280   7.024  0.5005 -0.5581  0.2588
  179SOPE   H2X20392   7.081   2.197   7.082  1.6197  0.3084  2.3862
  179SOPE   H2Y20393   7.040   2.350   7.006  0.0637 -1.2789 -0.5016
  179SOPE   C2320394   7.059   1.641   7.024  0.4023 -0.4748  0.1642
  179SOPE   H3R20395   7.167   1.664   7.021  0.1283  0.9081  0.4711
  179SOPE   H3S20396   7.033   1.567   6.946 -2.4604 -1.2794  1.7898
  179SOPE   C2420397   7.023   1.579   7.164  0.4285 -0.1874  0.1589
  179SOPE   H4R20398   6.919   1.550   7.188 -0.7367  2.8474 -1.0072
  179SOPE   H4S20399   7.076   1.481   7.167 -1.5805 -1.3186 -0.2214
  179SOPE   C2520400   7.074   1.672   7.282  0.7351 -0.0204  0.1105
  179SOPE   H5R20401   7.185   1.668   7.274  0.8951  1.4692  1.3385
  179SOPE   H5S20402   7.055   1.781   7.272 -0.1640 -0.2110 -0.3254
  179SOPE   C2620403   7.022   1.608   7.416 -0.3034 -0.2381 -0.3154
  179SOPE   H6R20404   6.913   1.586   7.413 -0.4117  0.5359 -3.0860
  179SOPE   H6S20405   7.073   1.510   7.419 -1.8395 -1.1456 -2.6490
  179SOPE   C2720406   7.060   1.690   7.539  0.5378 -0.2980  0.2530
  179SOPE   H7R20407   7.171   1.688   7.547  0.4004 -1.9144  2.2891
  179SOPE   H7S20408   7.023   1.794   7.527  0.9309 -0.1550  0.2674
  179SOPE   C2820409   7.000   1.634   7.664  0.7508  0.2718 -0.4772
  179SOPE   H8R20410   6.891   1.611   7.660  1.2093 -2.0647 -0.2370
  179SOPE   H8S20411   7.046   1.533   7.669 -3.1634 -1.5397  2.2970
  179SOPE   C2920412   7.028   1.712   7.792 -0.1399  0.3183  0.0917
  179SOPE   H9120413   7.087   1.801   7.766  1.4626 -0.3033  1.5044
  179SOPE  C21020414   6.994   1.683   7.921 -0.6227  0.4500  1.1553
  179SOPE  H10120415   7.040   1.751   7.995  1.0623  0.4034  0.1922
  179SOPE  C21120416   6.918   1.558   7.961  0.5024 -0.0230  0.0977
  179SOPE  H11R20417   6.895   1.488   7.878 -0.0225 -0.3488  0.5153
  179SOPE  H11S20418   6.813   1.578   7.991  0.7205 -0.1747  1.0054
  179SOPE  C21220419   6.984   1.483   8.073 -0.0478 -0.4431  0.6847
  179SOPE  H12R20420   7.090   1.468   8.043  0.1383 -0.2956  1.2684
  179SOPE  H12S20421   6.942   1.381   8.080 -0.8229 -0.3409 -2.0092
  179SOPE  C21320422   6.954   1.553   8.211  0.6884 -0.0349 -0.8168
  179SOPE  H13R20423   6.844   1.564   8.212  0.6615 -0.2822 -1.1536
  179SOPE  H13S20424   6.993   1.657   8.216  0.1179  0.1366  0.1615
  179SOPE  C21420425   7.008   1.467   8.322  0.5330 -0.0646  0.1258
  179SOPE  H14R20426   6.945   1.377   8.337  1.0067 -0.4250 -0.0416
  179SOPE  H14S20427   7.003   1.519   8.420 -0.9846 -0.0771  0.0731
  179SOPE  C21520428   7.146   1.403   8.298 -0.4895 -0.0667 -0.0054
  179SOPE  H15R20429   7.214   1.488   8.275 -0.4993  0.0058  0.2341
  179SOPE  H15S20430   7.147   1.331   8.213  1.6139 -0.6675  0.5010
  179SOPE  C21620431   7.200   1.333   8.418  1.2178  0.2979 -0.5585
  179SOPE  H16R20432   7.146   1.237   8.436  3.1919 -1.1525 -2.2182
  179SOPE  H16S20433   7.191   1.398   8.507 -2.8988  0.8145 -1.2491
  179SOPE  C21720434   7.352   1.299   8.396  0.3369 -0.3538 -0.0493
  179SOPE  H17R20435   7.410   1.391   8.419  1.6404 -0.6978 -1.8564
  179SOPE  H17S20436   7.369   1.275   8.289  1.1952 -0.7086  0.1614
  179SOPE  C21820437   7.385   1.188   8.496 -0.3238 -0.2121 -0.1471
  179SOPE  H18R20438   7.406   1.226   8.599  3.2518  0.1471 -0.9445
  179SOPE  H18S20439   7.468   1.126   8.456 -1.0088  0.3589 -2.5037
  179SOPE  H18T20440   7.298   1.122   8.519  0.3511 -0.6759  1.1658
  179SOPE   C3320441   7.209   2.354   7.121  0.6133 -0.3130  0.4358
  179SOPE   H3X20442   7.265   2.440   7.077 -1.1668 -0.6446 -2.6336
  179SOPE   H3Y20443   7.294   2.284   7.135  1.6730  0.6085 -1.1207
  179SOPE   C3420444   7.137   2.394   7.252  0.0180  0.0096  0.0116
  179SOPE   H4X20445   7.125   2.303   7.314 -1.3266 -0.9791 -1.6202
  179SOPE   H4Y20446   7.044   2.448   7.222  2.5210  4.1873 -0.6053
  179SOPE   C3520447   7.212   2.501   7.337  0.1803  0.2595  0.3306
  179SOPE   H5X20448   7.221   2.594   7.278  0.5033  0.9711  1.4985
  179SOPE   H5Y20449   7.312   2.462   7.367  1.0421  2.6180  0.6322
  179SOPE   C3620450   7.142   2.552   7.464 -0.7182  0.2677 -0.0151
  179SOPE   H6X20451   7.033   2.552   7.447 -0.2662  0.2477 -3.2252
  179SOPE   H6Y20452   7.178   2.655   7.487  0.9332 -0.6517  1.6850
  179SOPE   C3720453   7.157   2.475   7.598 -0.2559 -0.2918 -0.3697
  179SOPE   H7X20454   7.259   2.430   7.603  0.0519  0.5071  0.8103
  179SOPE   H7Y20455   7.091   2.387   7.593  1.5480 -1.7540  0.6585
  179SOPE   C3820456   7.101   2.551   7.717 -0.3575 -0.6206 -0.1182
  179SOPE   H8X20457   6.995   2.582   7.703 -0.3865 -0.8794 -0.4832
  179SOPE   H8Y20458   7.151   2.648   7.738 -3.4899  1.5610 -2.3131
  179SOPE   C3920459   7.107   2.467   7.844  0.4956 -0.3155 -0.0706
  179SOPE   H9X20460   7.213   2.455   7.875 -0.0811 -0.4874  1.8955
  179SOPE   H9Y20461   7.074   2.364   7.818 -0.7893 -0.2695  1.3169
  179SOPE  C31020462   7.026   2.509   7.969 -0.7567  0.2001  0.2615
  179SOPE  H10X20463   6.918   2.508   7.944 -0.5502  0.7971 -0.6792
  179SOPE  H10Y20464   7.055   2.608   8.009  1.2521 -1.3148  2.6981
  179SOPE  C31120465   7.036   2.404   8.084 -0.3028 -0.7624  0.2716
  179SOPE  H11X20466   7.139   2.364   8.088  0.8945  2.2500  1.0902
  179SOPE  H11Y20467   6.976   2.313   8.062  1.7615 -1.7704 -1.3965
  179SOPE  C31220468   7.004   2.467   8.216 -0.1936  0.4570  0.5699
  179SOPE  H12X20469   7.065   2.559   8.228  0.9120 -0.4309  1.9149
  179SOPE  H12Y20470   7.037   2.402   8.300 -0.8801  0.5638  0.9187
  179SOPE  C31320471   6.854   2.508   8.228  0.4314 -0.2578 -0.6806
  179SOPE  H13X20472   6.791   2.418   8.213  0.3823 -0.6114  1.5403
  179SOPE  H13Y20473   6.831   2.584   8.150 -0.8136  1.5796  1.4542
  179SOPE  C31420474   6.829   2.561   8.372 -0.1534 -0.7687 -0.1033
  179SOPE  H14X20475   6.871   2.663   8.368 -0.4977 -0.6484 -0.6141
  179SOPE  H14Y20476   6.888   2.507   8.450  1.2179  2.5689  1.2486
  179SOPE  C31520477   6.684   2.568   8.420  0.1498 -0.1091  0.3490
  179SOPE  H15X20478   6.654   2.467   8.457 -1.1290 -0.6664 -2.0980
  179SOPE  H15Y20479   6.618   2.593   8.334  1.2094  0.7015 -0.2266
  179SOPE  C31620480   6.647   2.678   8.519 -0.3870  0.0386 -0.9314
  179SOPE  H16X20481   6.542   2.711   8.503 -1.2701 -1.8101  0.8106
  179SOPE  H16Y20482   6.708   2.769   8.503 -0.1744  0.0800  0.0897
  179SOPE  C31720483   6.665   2.628   8.663 -0.1556  0.8530 -0.0750
  179SOPE  H17X20484   6.772   2.603   8.677 -0.4029 -0.6994 -0.9249
  179SOPE  H17Y20485   6.605   2.535   8.673 -0.7372  1.2664  0.2883
  179SOPE  C31820486   6.628   2.736   8.772 -1.0423 -0.5494 -0.0536
  179SOPE  H18X20487   6.696   2.824   8.766 -1.8570  0.0709 -0.4799
  179SOPE  H18Y20488   6.647   2.701   8.875 -0.5738  1.8316  0.6925
  179SOPE  H18Z20489   6.525   2.778   8.757 -0.2662  1.3365 -0.3333
  180SOPE     N20490   6.369   1.849   6.348  0.5272 -0.1028  0.0697
  180SOPE   HN120491   6.381   1.906   6.262 -1.2507  2.5863  1.5312
  180SOPE   HN220492   6.440   1.884   6.415  1.1164 -0.4688 -0.3537
  180SOPE   HN320493   6.391   1.750   6.322  2.8433  0.5540 -0.5677
  180SOPE   C1220494   6.231   1.868   6.403  0.2385 -0.4996  0.4918
  180SOPE  H12A20495   6.162   1.866   6.316  0.3997 -0.4981  0.3634
  180SOPE  H12B20496   6.236   1.965   6.458 -0.5900 -0.3243  0.2685
  180SOPE   C1120497   6.195   1.761   6.517 -0.1888 -0.1622  0.5490
  180SOPE  H11A20498   6.099   1.795   6.559 -0.5869 -0.0117 -0.4540
  180SOPE  H11B20499   6.272   1.764   6.597  1.4172 -1.1491 -0.9299
  180SOPE     P20500   6.308   1.529   6.461  0.1317 -0.4201 -0.4534
  180SOPE   O1320501   6.425   1.587   6.392 -0.6270 -0.0728 -0.4616
  180SOPE   O1420502   6.266   1.393   6.415 -0.3501 -0.0491  0.3534
  180SOPE   O1220503   6.188   1.632   6.462 -0.3112 -0.5707  0.2355
  180SOPE   O1120504   6.345   1.519   6.618  0.3103 -0.5209 -0.0585
  180SOPE    C120505   6.250   1.473   6.719 -0.9621 -0.0180 -0.4010
  180SOPE    HA20506   6.249   1.366   6.750 -1.5311  0.0138 -0.3061
  180SOPE    HB20507   6.146   1.492   6.687 -0.6790  0.8235 -0.8245
  180SOPE    C220508   6.253   1.561   6.851 -0.1925  0.8026  0.5430
  180SOPE    HS20509   6.252   1.665   6.813  1.3421 -0.0055 -1.8026
  180SOPE   O2120510   6.380   1.527   6.909 -0.1021  0.2460  0.0989
  180SOPE   C2120511   6.479   1.615   6.897 -0.1502  0.1818  0.2082
  180SOPE   O2220512   6.470   1.724   6.844  0.0966 -0.3409 -0.1625
  180SOPE   C2220513   6.608   1.570   6.958 -0.1621 -0.0380 -0.2231
  180SOPE   H2R20514   6.696   1.613   6.907 -0.4527  0.0083 -0.6908
  180SOPE   H2S20515   6.610   1.459   6.949  0.3712  0.1128 -1.9832
  180SOPE    C320516   6.141   1.543   6.951  0.1955  0.1450  0.0471
  180SOPE    HX20517   6.145   1.433   6.970  2.2224  0.2735  0.3793
  180SOPE    HY20518   6.039   1.573   6.918  0.2034  1.6406  1.3480
  180SOPE   O3120519   6.173   1.613   7.068  0.2927  0.1047  0.2977
  180SOPE   C3120520   6.128   1.740   7.068  0.0678 -1.3225 -0.4301
  180SOPE   O3220521   6.050   1.784   6.984  1.0564  0.1419  0.3769
  180SOPE   C3220522   6.197   1.822   7.179 -0.0981  0.2352  0.7154
  180SOPE   H2X20523   6.277   1.872   7.121 -1.7495  0.3129 -1.5710
  180SOPE   H2Y20524   6.239   1.748   7.251 -0.8769 -0.9159  0.0213
  180SOPE   C2320525   6.628   1.621   7.101 -0.2022 -0.3103  0.1200
  180SOPE   H3R20526   6.642   1.731   7.102 -0.9890 -0.2085  1.5107
  180SOPE   H3S20527   6.723   1.583   7.145 -0.4209 -1.7508 -0.6094
  180SOPE   C2420528   6.509   1.577   7.190 -0.1959  0.1163  0.9299
  180SOPE   H4R20529   6.411   1.613   7.152  1.0066 -0.6955 -3.2449
  180SOPE   H4S20530   6.523   1.467   7.181  1.3414  0.1797  2.1556
  180SOPE   C2520531   6.531   1.629   7.334 -0.8812  0.0947 -0.3294
  180SOPE   H5R20532   6.636   1.607   7.362 -1.7026 -0.2345  2.6480
  180SOPE   H5S20533   6.516   1.738   7.318 -0.3759  0.3255  0.7336
  180SOPE   C2620534   6.440   1.559   7.433  0.3652 -0.0956 -0.3044
  180SOPE   H6R20535   6.341   1.587   7.392  1.0808 -2.1051 -3.5751
  180SOPE   H6S20536   6.454   1.450   7.422 -1.8389 -0.5697  1.3858
  180SOPE   C2720537   6.463   1.615   7.579 -0.2727  0.7895 -0.2825
  180SOPE   H7R20538   6.571   1.611   7.604 -0.7322 -1.8752  1.3761
  180SOPE   H7S20539   6.447   1.725   7.568  0.3626  0.9060 -0.0506
  180SOPE   C2820540   6.361   1.553   7.684 -0.1239  0.3114  1.1405
  180SOPE   H8R20541   6.380   1.608   7.779 -0.1040  1.2542  0.5985
  180SOPE   H8S20542   6.253   1.562   7.662 -0.2321  2.6173  2.5021
  180SOPE   C2920543   6.393   1.406   7.718  0.3906  0.2525  0.0912
  180SOPE   H9120544   6.369   1.328   7.645  1.0435  0.2702 -0.1419
  180SOPE  C21020545   6.439   1.360   7.839 -0.2112  0.5506 -0.0719
  180SOPE  H10120546   6.461   1.254   7.855 -0.6451  0.5606  0.5937
  180SOPE  C21120547   6.469   1.463   7.947 -0.2660  0.5945  0.0808
  180SOPE  H11R20548   6.371   1.508   7.973 -1.6994 -2.6220  0.3931
  180SOPE  H11S20549   6.544   1.536   7.911 -1.2822  1.3391 -0.5571
  180SOPE  C21220550   6.520   1.422   8.080 -0.8091  0.2277 -0.2802
  180SOPE  H12R20551   6.618   1.369   8.069 -1.0992 -0.6845  1.4114
  180SOPE  H12S20552   6.443   1.356   8.125  0.9237 -2.1592 -0.6757
  180SOPE  C21320553   6.533   1.536   8.185  0.2343 -0.0530 -0.7148
  180SOPE  H13R20554   6.436   1.589   8.176 -0.8254 -1.6059  1.4279
  180SOPE  H13S20555   6.612   1.605   8.147  0.8186 -0.9463 -1.1483
  180SOPE  C21420556   6.559   1.492   8.326 -0.5704  0.0682  0.6828
  180SOPE  H14R20557   6.667   1.465   8.337 -0.3721  0.9245  0.8576
  180SOPE  H14S20558   6.498   1.402   8.348  0.5623 -0.5580  1.3745
  180SOPE  C21520559   6.520   1.597   8.426  0.4148  0.3945  0.0060
  180SOPE  H15R20560   6.523   1.551   8.526  2.8929  1.2534  0.3530
  180SOPE  H15S20561   6.416   1.631   8.406 -0.6103 -2.2990  0.5749
  180SOPE  C21620562   6.618   1.715   8.423 -0.1174 -0.4386  0.8075
  180SOPE  H16R20563   6.619   1.771   8.327  1.0735 -2.4798 -0.4073
  180SOPE  H16S20564   6.722   1.677   8.424 -0.0305 -0.3276 -1.4643
  180SOPE  C21720565   6.593   1.819   8.526 -0.0894 -0.2246  0.7347
  180SOPE  H17R20566   6.556   1.765   8.616 -0.9867 -0.5968  0.1535
  180SOPE  H17S20567   6.517   1.895   8.497 -0.2757 -0.3785  0.8195
  180SOPE  C21820568   6.718   1.900   8.554 -0.4162  0.1599  0.2241
  180SOPE  H18R20569   6.754   1.939   8.456 -1.7709  1.3769  0.1951
  180SOPE  H18S20570   6.777   1.813   8.591  0.4669  1.1316  1.1014
  180SOPE  H18T20571   6.721   1.988   8.621  0.6755 -0.6721  1.2779
  180SOPE   C3320572   6.109   1.938   7.243  0.1091 -0.1726  0.2122
  180SOPE   H3X20573   6.073   2.014   7.170 -1.7562 -1.9317 -0.7723
  180SOPE   H3Y20574   6.166   1.994   7.320 -0.4581 -2.2634  2.1873
  180SOPE   C3420575   5.982   1.883   7.312 -0.1312  0.4923  0.0686
  180SOPE   H4X20576   5.926   1.814   7.245  0.6135  0.9111 -1.0022
  180SOPE   H4Y20577   5.908   1.963   7.334 -1.4211 -1.1256  1.6456
  180SOPE   C3520578   6.014   1.825   7.447  0.0179  0.2839 -0.0138
  180SOPE   H5X20579   6.082   1.898   7.496 -0.5158  0.6876  0.1252
  180SOPE   H5Y20580   6.072   1.731   7.432 -0.5375  0.2485 -2.0814
  180SOPE   C3620581   5.899   1.812   7.547  0.2109  1.0607 -0.4658
  180SOPE   H6X20582   5.817   1.758   7.495 -0.8152  2.4139 -0.2895
  180SOPE   H6Y20583   5.865   1.915   7.572 -1.1885  0.0920  1.8681
  180SOPE   C3720584   5.940   1.739   7.672  0.1761 -0.1744 -0.4380
  180SOPE   H7X20585   5.990   1.646   7.636 -2.6963 -1.6011 -0.8826
  180SOPE   H7Y20586   5.849   1.720   7.732  0.8949  0.0051  0.7208
  180SOPE   C3820587   6.048   1.805   7.756 -0.1983 -0.5781  0.1625
  180SOPE   H8X20588   6.019   1.906   7.792  1.9227  0.6029 -1.3144
  180SOPE   H8Y20589   6.143   1.832   7.705  0.2866 -0.2693  1.2112
  180SOPE   C3920590   6.099   1.712   7.872 -0.2835 -0.3931 -0.0595
  180SOPE   H9X20591   6.192   1.766   7.899 -0.4991 -0.0450 -0.0174
  180SOPE   H9Y20592   6.146   1.618   7.835  0.0231  0.6968 -2.5888
  180SOPE  C31020593   5.999   1.681   7.985 -0.5156  0.3192  0.9003
  180SOPE  H10X20594   6.011   1.575   8.015  2.3263  0.3307 -0.1156
  180SOPE  H10Y20595   5.899   1.708   7.943  0.2425 -1.1035 -1.9073
  180SOPE  C31120596   6.023   1.765   8.112 -0.2308  0.2812  0.0417
  180SOPE  H11X20597   6.014   1.871   8.080  1.9010  0.6353  0.5530
  180SOPE  H11Y20598   6.121   1.750   8.162 -0.6545  0.4030  0.9048
  180SOPE  C31220599   5.908   1.746   8.211 -0.1144  0.1792  0.1273
  180SOPE  H12X20600   5.930   1.653   8.269  1.1234  1.2069  1.3406
  180SOPE  H12Y20601   5.816   1.743   8.149 -0.0349  1.6108 -0.0644
  180SOPE  C31320602   5.901   1.854   8.315 -0.1638 -0.3925  0.1863
  180SOPE  H13X20603   5.890   1.955   8.270  0.9931 -1.2239 -2.0622
  180SOPE  H13Y20604   5.999   1.859   8.368  1.7091 -0.8690 -3.1118
  180SOPE  C31420605   5.779   1.844   8.407  0.5232  0.2897 -0.0173
  180SOPE  H14X20606   5.786   1.741   8.449 -0.4873 -0.2349 -1.1089
  180SOPE  H14Y20607   5.680   1.852   8.357  1.1913  0.5120 -1.3447
  180SOPE  C31520608   5.782   1.940   8.528  0.2231  0.6227 -0.0952
  180SOPE  H15X20609   5.806   2.041   8.487  2.6822  0.2651  0.4381
  180SOPE  H15Y20610   5.873   1.918   8.586 -0.0120  1.5517  0.6304
  180SOPE  C31620611   5.659   1.942   8.624 -0.1565 -0.4142  0.4268
  180SOPE  H16X20612   5.628   1.839   8.653  0.2573 -0.9074 -0.8418
  180SOPE  H16Y20613   5.583   2.002   8.570  1.7648  1.2726 -0.4753
  180SOPE  C31720614   5.693   2.016   8.751 -0.2526  0.2769 -0.3874
  180SOPE  H17X20615   5.595   2.030   8.800  0.6117  1.8239  0.9410
  180SOPE  H17Y20616   5.735   2.117   8.733  1.1405 -0.1977  0.1462
  180SOPE  C31820617   5.785   1.945   8.846  0.1007  0.2937  0.8221
  180SOPE  H18X20618   5.851   1.872   8.794  1.0923  2.3971 -0.9473
  180SOPE  H18Y20619   5.728   1.876   8.912 -0.1319  0.0550  0.3750
  180SOPE  H18Z20620   5.843   2.004   8.920  2.2503 -1.4282  0.5559
  181SOPE     N20621   5.309   6.753   6.202 -0.0001  0.1843 -0.0355
  181SOPE   HN120622   5.227   6.689   6.200 -0.1061  0.2385  1.8587
  181SOPE   HN220623   5.340   6.741   6.300  1.0066  0.0894 -0.3531
  181SOPE   HN320624   5.269   6.848   6.193 -0.1784  0.2998  1.9101
  181SOPE   C1220625   5.431   6.726   6.110  0.4231 -0.9694 -0.2032
  181SOPE  H12A20626   5.503   6.805   6.137 -0.4222 -0.5656  0.8975
  181SOPE  H12B20627   5.401   6.742   6.004 -0.4257 -2.3586 -0.1951
  181SOPE   C1120628   5.490   6.586   6.132 -0.2895 -0.1981 -0.0437
  181SOPE  H11A20629   5.532   6.595   6.234 -0.1115  0.3288 -0.1638
  181SOPE  H11B20630   5.569   6.562   6.057 -0.3672 -0.4068 -0.0608
  181SOPE     P20631   5.353   6.401   6.014  0.0049  0.2528  0.2678
  181SOPE   O1320632   5.347   6.487   5.894  0.8946 -0.1827  0.0351
  181SOPE   O1420633   5.241   6.305   6.039 -0.3118  0.1596 -0.0822
  181SOPE   O1220634   5.387   6.492   6.141 -0.1684 -0.3777 -0.2767
  181SOPE   O1120635   5.495   6.329   5.995 -0.0038  0.1005 -0.5133
  181SOPE    C120636   5.505   6.193   5.962 -0.3210  0.7586 -0.1004
  181SOPE    HA20637   5.576   6.175   5.878  2.2462  1.9179  1.7565
  181SOPE    HB20638   5.410   6.149   5.923  0.0515 -0.8785  0.8158
  181SOPE    C220639   5.561   6.111   6.084 -1.2124  0.1171  0.2273
  181SOPE    HS20640   5.564   6.002   6.063 -1.2144  0.3947 -1.2793
  181SOPE   O2120641   5.501   6.150   6.209 -0.1261 -0.3746  0.5469
  181SOPE   C2120642   5.483   6.044   6.289 -0.5140  0.4455  0.4144
  181SOPE   O2220643   5.498   5.925   6.268  0.9527  0.0533 -0.1336
  181SOPE   C2220644   5.450   6.095   6.425 -0.4999 -0.1669 -0.0765
  181SOPE   H2R20645   5.360   6.161   6.418  0.1030  0.7935  0.9226
  181SOPE   H2S20646   5.537   6.159   6.452 -0.5305 -1.0636  2.2634
  181SOPE    C320647   5.711   6.151   6.092 -0.0171  0.1098  0.0062
  181SOPE    HX20648   5.731   6.259   6.110  1.2288 -0.0359 -0.4637
  181SOPE    HY20649   5.761   6.132   5.994  0.9636  0.2168  0.4789
  181SOPE   O3120650   5.769   6.087   6.209 -0.3215  0.6444  0.6591
  181SOPE   C3120651   5.818   5.962   6.171  0.3096 -0.3226  0.4128
  181SOPE   O3220652   5.815   5.928   6.057  0.3670 -0.0773  0.1728
  181SOPE   C3220653   5.874   5.896   6.289  0.2612  0.2544  0.4819
  181SOPE   H2X20654   5.939   5.970   6.341  0.5953  1.2333 -1.3058
  181SOPE   H2Y20655   5.914   5.793   6.281  1.6038  0.6659  1.6190
  181SOPE   C2320656   5.412   5.997   6.538  0.4187  0.8570  0.0025
  181SOPE   H3R20657   5.497   5.928   6.560 -0.1757  0.4471  1.0843
  181SOPE   H3S20658   5.325   5.933   6.514  1.7620 -1.6639  1.4946
  181SOPE   C2420659   5.395   6.068   6.672  0.0683  0.1368 -0.0227
  181SOPE   H4R20660   5.484   6.129   6.698  0.2360 -0.3291  0.5054
  181SOPE   H4S20661   5.306   6.133   6.663  0.0096  0.0355 -0.1834
  181SOPE   C2520662   5.364   5.980   6.794  0.5685 -0.4389 -0.1221
  181SOPE   H5R20663   5.269   5.928   6.768  1.7880 -3.0641  0.4915
  181SOPE   H5S20664   5.449   5.910   6.811  1.3391  0.4177 -0.3593
  181SOPE   C2620665   5.332   6.069   6.915  0.3010  0.7438  0.7635
  181SOPE   H6R20666   5.391   6.163   6.917  0.0894  0.9033 -0.3914
  181SOPE   H6S20667   5.228   6.098   6.892  0.6462 -0.5277 -2.6202
  181SOPE   C2720668   5.324   5.993   7.056  0.4842 -0.5102  1.0270
  181SOPE   H7R20669   5.318   5.884   7.036 -2.2435 -0.3171  0.4981
  181SOPE   H7S20670   5.426   6.015   7.093  0.9805  1.7099 -1.5279
  181SOPE   C2820671   5.215   6.057   7.149  0.0520  0.1712 -0.3649
  181SOPE   H8R20672   5.230   6.165   7.174 -2.2817  0.6943 -1.0595
  181SOPE   H8S20673   5.120   6.047   7.092 -1.1580  2.9603  1.0309
  181SOPE   C2920674   5.202   5.973   7.274 -0.1671 -0.5848  0.0372
  181SOPE   H9120675   5.136   5.885   7.274  2.7200 -2.8387  0.4380
  181SOPE  C21020676   5.247   6.019   7.396 -0.8797  0.3412  0.0634
  181SOPE  H10120677   5.238   5.956   7.486  0.3746 -2.0696 -1.4624
  181SOPE  C21120678   5.331   6.142   7.421  0.3518 -0.2422 -0.0666
  181SOPE  H11R20679   5.260   6.226   7.437  1.6541  0.5502  1.6535
  181SOPE  H11S20680   5.387   6.169   7.329 -1.1363  1.3550 -0.5515
  181SOPE  C21220681   5.429   6.140   7.540 -0.0047  0.3070  0.2579
  181SOPE  H12R20682   5.516   6.073   7.520  0.5344  0.7770  1.0053
  181SOPE  H12S20683   5.364   6.094   7.617  0.0491  2.0203  1.3442
  181SOPE  C21320684   5.488   6.272   7.573  0.1036 -0.1677  0.1593
  181SOPE  H13R20685   5.402   6.342   7.586  0.5159  0.3811 -0.0677
  181SOPE  H13S20686   5.551   6.310   7.490  1.8971 -2.4162  0.4490
  181SOPE  C21420687   5.575   6.287   7.697 -0.3783 -0.3603 -0.7648
  181SOPE  H14R20688   5.603   6.390   7.728  2.1297 -1.0313 -0.7398
  181SOPE  H14S20689   5.668   6.228   7.683  0.3506  0.5469  0.2509
  181SOPE  C21520690   5.503   6.227   7.818  0.0441 -0.3032  0.3729
  181SOPE  H15R20691   5.516   6.117   7.805 -1.0852 -0.2660 -1.3018
  181SOPE  H15S20692   5.395   6.252   7.812  0.5188  1.1593 -3.1620
  181SOPE  C21620693   5.564   6.288   7.949  0.0624 -0.2702  0.7962
  181SOPE  H16R20694   5.527   6.391   7.965 -0.4470 -0.2538 -0.4819
  181SOPE  H16S20695   5.675   6.294   7.947 -0.0454  2.1902  0.4509
  181SOPE  C21720696   5.527   6.198   8.065  0.3967 -0.2466 -0.3772
  181SOPE  H17R20697   5.568   6.101   8.029 -0.1186 -0.4938 -0.3083
  181SOPE  H17S20698   5.416   6.188   8.071  0.4084 -0.1324  0.1243
  181SOPE  C21820699   5.581   6.245   8.201  0.1819  0.0699  0.3313
  181SOPE  H18R20700   5.570   6.355   8.212  0.6197  0.5482 -3.4354
  181SOPE  H18S20701   5.688   6.215   8.202  0.3680  0.5177 -1.8920
  181SOPE  H18T20702   5.534   6.188   8.284 -0.2604  0.4169  0.3245
  181SOPE   C3320703   5.763   5.856   6.387 -0.2993  0.0018 -0.0666
  181SOPE   H3X20704   5.692   5.786   6.339 -0.5487  0.6689 -0.6840
  181SOPE   H3Y20705   5.708   5.950   6.409  0.9059  0.2817  1.9953
  181SOPE   C3420706   5.814   5.792   6.514 -0.3799  0.7889 -0.8640
  181SOPE   H4X20707   5.891   5.718   6.485 -1.0521  0.1360 -1.0053
  181SOPE   H4Y20708   5.733   5.737   6.568  1.4790 -2.0410 -0.8321
  181SOPE   C3520709   5.883   5.883   6.617 -0.0653  0.6367 -0.6965
  181SOPE   H5X20710   5.975   5.925   6.573  0.2574  1.1269  0.4374
  181SOPE   H5Y20711   5.917   5.818   6.700 -1.4950 -0.3850 -0.8778
  181SOPE   C3620712   5.786   5.983   6.672 -0.1269 -0.7645 -0.5224
  181SOPE   H6X20713   5.690   5.931   6.693 -0.9976  0.6732 -0.8797
  181SOPE   H6Y20714   5.754   6.064   6.603 -0.2283 -0.2125  0.1690
  181SOPE   C3720715   5.833   6.049   6.805 -0.0320  0.4420  0.2222
  181SOPE   H7X20716   5.914   6.121   6.779  1.1544 -0.8045  0.3750
  181SOPE   H7Y20717   5.862   5.980   6.888  0.4201  1.0340  0.5609
  181SOPE   C3820718   5.724   6.148   6.856  0.0040 -0.3312 -1.3109
  181SOPE   H8X20719   5.624   6.100   6.870  0.1102 -0.2544 -0.2876
  181SOPE   H8Y20720   5.713   6.235   6.788 -0.1216  0.4545 -0.2927
  181SOPE   C3920721   5.757   6.215   6.993 -0.3610  0.6242  0.1620
  181SOPE   H9X20722   5.671   6.283   7.008  1.7251  3.0356  1.4254
  181SOPE   H9Y20723   5.858   6.259   6.984  0.7179 -2.0550 -1.7795
  181SOPE  C31020724   5.758   6.117   7.112 -0.5490  0.2261  0.3642
  181SOPE  H10X20725   5.840   6.046   7.088  0.4524  1.3077  0.5701
  181SOPE  H10Y20726   5.668   6.052   7.117 -0.3559 -0.2099 -1.3861
  181SOPE  C31120727   5.781   6.181   7.254  0.4741  0.2771 -0.4543
  181SOPE  H11X20728   5.781   6.105   7.334  0.4590 -0.8971 -1.5526
  181SOPE  H11Y20729   5.699   6.255   7.265  1.3982  1.1500  0.7202
  181SOPE  C31220730   5.905   6.264   7.282  0.0149  0.0130  0.2039
  181SOPE  H12X20731   5.894   6.345   7.207 -1.2632  0.9646  1.3999
  181SOPE  H12Y20732   6.007   6.220   7.272  0.8839  2.0355 -0.0221
  181SOPE  C31320733   5.896   6.324   7.420  0.3210  0.3236 -0.1666
  181SOPE  H13X20734   5.921   6.241   7.490  0.5707  0.8414  0.3661
  181SOPE  H13Y20735   5.798   6.362   7.455  0.3252  0.7847 -0.6529
  181SOPE  C31420736   6.000   6.438   7.442  0.4149 -0.6619  0.0633
  181SOPE  H14X20737   6.001   6.519   7.367 -0.0780 -2.1596 -1.5744
  181SOPE  H14Y20738   6.096   6.386   7.424  0.7942  0.3256 -0.7667
  181SOPE  C31520739   6.028   6.477   7.584 -0.9973 -0.4979 -0.4007
  181SOPE  H15X20740   6.107   6.555   7.585  0.7393 -2.2035  1.2909
  181SOPE  H15Y20741   6.066   6.396   7.650  0.4810  1.5524  1.3458
  181SOPE  C31620742   5.912   6.535   7.668  0.2292  0.3119 -0.4330
  181SOPE  H16X20743   5.821   6.473   7.652  0.4250  0.1941 -1.0978
  181SOPE  H16Y20744   5.885   6.636   7.631 -1.4477 -0.2444 -0.7792
  181SOPE  C31720745   5.947   6.538   7.817 -0.5325 -0.3314  0.0505
  181SOPE  H17X20746   6.053   6.572   7.824 -1.0498  1.6058 -0.9502
  181SOPE  H17Y20747   5.941   6.438   7.863  0.7929 -1.2936 -1.7832
  181SOPE  C31820748   5.867   6.639   7.905  0.1851  0.4800  0.6014
  181SOPE  H18X20749   5.920   6.639   8.003 -0.0632 -2.9838  0.7669
  181SOPE  H18Y20750   5.763   6.621   7.940 -0.1900  1.3908 -0.0080
  181SOPE  H18Z20751   5.874   6.742   7.863 -0.5128  0.1103 -0.4334
  182SOPE     N20752   6.245   1.321   6.164  0.2706  0.3340 -0.2255
  182SOPE   HN120753   6.250   1.414   6.117  0.0709  0.1997 -0.5195
  182SOPE   HN220754   6.153   1.280   6.138 -0.0476  0.3563  0.8335
  182SOPE   HN320755   6.246   1.333   6.267  0.9807 -1.3917 -0.0118
  182SOPE   C1220756   6.365   1.241   6.124 -0.2819  0.4970 -0.3309
  182SOPE  H12A20757   6.389   1.256   6.016 -0.4107 -1.5921 -0.6676
  182SOPE  H12B20758   6.342   1.133   6.131 -1.4047  0.5200 -3.0948
  182SOPE   C1120759   6.491   1.281   6.204  1.2688 -0.0984  0.2085
  182SOPE  H11A20760   6.484   1.257   6.312  4.1270 -0.9521  0.2490
  182SOPE  H11B20761   6.494   1.393   6.202  0.3839 -0.0668  0.5044
  182SOPE     P20762   6.754   1.242   6.212  0.1237  0.2970  0.2504
  182SOPE   O1320763   6.761   1.348   6.314 -0.0294  0.2345 -0.2586
  182SOPE   O1420764   6.837   1.271   6.092  0.3107  0.4555 -0.2526
  182SOPE   O1220765   6.611   1.208   6.162  0.2141 -0.2788 -0.2547
  182SOPE   O1120766   6.816   1.110   6.266  0.3016 -0.5540  0.7184
  182SOPE    C120767   6.735   1.008   6.324 -0.1861 -0.3233  0.5776
  182SOPE    HA20768   6.797   0.917   6.336 -1.4305 -1.2636 -0.0122
  182SOPE    HB20769   6.650   0.978   6.259 -0.1570 -1.7374  1.1765
  182SOPE    C220770   6.685   1.043   6.466  0.1880  0.2330  0.4849
  182SOPE    HS20771   6.614   1.128   6.454  0.4276  0.5301  1.1233
  182SOPE   O2120772   6.796   1.050   6.559  0.1750 -0.5712  0.4180
  182SOPE   C2120773   6.782   1.143   6.657 -0.4511 -0.3326  0.1291
  182SOPE   O2220774   6.696   1.223   6.671 -0.3416 -0.0186  0.0542
  182SOPE   C2220775   6.905   1.128   6.755 -0.2773 -0.1100  0.5725
  182SOPE   H2R20776   6.993   1.156   6.693 -0.7512 -1.5203 -0.7889
  182SOPE   H2S20777   6.928   1.030   6.803  1.0736 -0.5525 -0.9096
  182SOPE    C320778   6.598   0.927   6.520 -0.7089 -0.0829  0.2567
  182SOPE    HX20779   6.660   0.837   6.508 -1.0725 -0.3226  0.1714
  182SOPE    HY20780   6.507   0.910   6.459  0.6895  0.6039 -2.0752
  182SOPE   O3120781   6.553   0.935   6.659  0.2163 -0.1812  0.1975
  182SOPE   C3120782   6.454   1.016   6.689  0.0142  0.0809  0.1884
  182SOPE   O3220783   6.375   1.067   6.614  0.4624 -0.0512  0.0750
  182SOPE   C3220784   6.467   1.045   6.835 -0.4232 -0.2125 -0.2415
  182SOPE   H2X20785   6.573   1.058   6.867 -1.6488  2.8225  2.9473
  182SOPE   H2Y20786   6.413   0.959   6.880 -1.0297  0.7664  0.9259
  182SOPE   C2320787   6.890   1.229   6.875 -0.0655  0.5925  1.2710
  182SOPE   H3R20788   6.834   1.319   6.841  1.3641  0.1691 -2.4639
  182SOPE   H3S20789   6.989   1.263   6.911  1.0015  0.0654 -1.0241
  182SOPE   C2420790   6.828   1.153   7.002 -0.7610 -0.3509 -0.2126
  182SOPE   H4R20791   6.718   1.148   6.984 -0.9482 -0.4724  0.8912
  182SOPE   H4S20792   6.868   1.049   6.999  0.1833 -0.0731  1.9568
  182SOPE   C2520793   6.852   1.228   7.136 -0.1419  0.2678 -0.3193
  182SOPE   H5R20794   6.956   1.208   7.171 -1.2570 -1.2831  2.3161
  182SOPE   H5S20795   6.853   1.338   7.128  0.3253  0.1909 -1.4118
  182SOPE   C2620796   6.768   1.186   7.255 -0.5658 -0.2516  0.7739
  182SOPE   H6R20797   6.660   1.186   7.229 -0.4646  0.0075  0.3525
  182SOPE   H6S20798   6.792   1.079   7.274  1.1374 -0.1028 -0.4580
  182SOPE   C2720799   6.781   1.271   7.384  0.0713 -0.3711 -1.2571
  182SOPE   H7R20800   6.887   1.277   7.418 -0.5734 -1.5503  1.0651
  182SOPE   H7S20801   6.762   1.380   7.368  0.1560 -0.1963 -0.1993
  182SOPE   C2820802   6.689   1.220   7.498 -0.6424  0.2267 -0.1428
  182SOPE   H8R20803   6.581   1.225   7.473 -0.7979  2.2229  0.8304
  182SOPE   H8S20804   6.706   1.110   7.492  0.4444  0.3381  0.6527
  182SOPE   C2920805   6.716   1.266   7.637  0.5359 -0.4572 -0.0875
  182SOPE   H9120806   6.691   1.370   7.664  0.6573 -0.5490  0.3918
  182SOPE  C21020807   6.766   1.194   7.740  0.7159 -0.2208 -1.4147
  182SOPE  H10120808   6.798   1.248   7.830  1.4844  0.5309 -2.1212
  182SOPE  C21120809   6.803   1.048   7.722  0.2667 -0.2498  0.1569
  182SOPE  H11R20810   6.731   1.010   7.648 -3.5919  2.9165  2.1041
  182SOPE  H11S20811   6.803   0.980   7.810  1.4085  0.9706  1.1344
  182SOPE  C21220812   6.958   1.050   7.688  0.3518 -0.2196 -0.0943
  182SOPE  H12R20813   6.970   1.109   7.595  0.7922  0.6226  0.4882
  182SOPE  H12S20814   6.977   0.943   7.663 -2.5187 -1.2491  1.8922
  182SOPE  C21320815   7.043   1.103   7.801 -0.1648  0.4550 -0.3529
  182SOPE  H13R20816   7.038   1.027   7.883  0.5641  1.9297  1.0911
  182SOPE  H13S20817   7.009   1.202   7.836  0.0627  0.6090 -0.5676
  182SOPE  C21420818   7.193   1.118   7.782 -0.1359 -0.0836  0.2780
  182SOPE  H14R20819   7.208   1.196   7.705 -0.2642  1.2272  1.5665
  182SOPE  H14S20820   7.245   1.024   7.753 -0.3827 -1.1307  3.0752
  182SOPE  C21520821   7.254   1.178   7.903  0.3069 -0.3949  0.6261
  182SOPE  H15R20822   7.238   1.111   7.990 -0.3857 -1.9117 -0.6541
  182SOPE  H15S20823   7.217   1.278   7.933  0.8738 -0.8964  3.1720
  182SOPE  C21620824   7.410   1.185   7.904  0.2333 -0.4232 -0.2343
  182SOPE  H16R20825   7.457   1.249   7.825  2.3461  0.2605  1.5260
  182SOPE  H16S20826   7.445   1.081   7.889  2.2813 -0.0593  1.7993
  182SOPE  C21720827   7.474   1.234   8.032 -0.2903 -0.9774  0.1347
  182SOPE  H17R20828   7.458   1.171   8.123  0.3443  0.1345  1.0304
  182SOPE  H17S20829   7.421   1.328   8.059  1.1465 -0.4792  1.3186
  182SOPE  C21820830   7.622   1.268   8.015  0.1586  0.2588 -0.4020
  182SOPE  H18R20831   7.669   1.275   8.116 -1.8689 -0.1029  0.5802
  182SOPE  H18S20832   7.635   1.365   7.961  1.9499  0.0144 -0.4402
  182SOPE  H18T20833   7.685   1.200   7.954 -2.0347  0.8783 -3.4736
  182SOPE   C3320834   6.388   1.171   6.874  0.4817  0.1133  1.1898
  182SOPE   H3X20835   6.280   1.165   6.848  0.2045 -0.4799  2.4398
  182SOPE   H3Y20836   6.447   1.259   6.841 -0.9005  0.5141 -0.2742
  182SOPE   C3420837   6.394   1.186   7.023 -0.0364 -0.2693  0.2563
  182SOPE   H4X20838   6.343   1.283   7.042 -0.1437 -0.2485 -0.1411
  182SOPE   H4Y20839   6.502   1.182   7.049  0.0627 -0.3638 -0.1574
  182SOPE   C3520840   6.304   1.091   7.099  0.5449 -0.1973 -0.1256
  182SOPE   H5X20841   6.351   0.990   7.094 -1.2109 -0.9884 -1.2136
  182SOPE   H5Y20842   6.203   1.091   7.053 -0.2097  0.4826  1.4864
  182SOPE   C3620843   6.307   1.138   7.247  0.2857  0.2383 -0.4530
  182SOPE   H6X20844   6.266   1.241   7.261  1.6884  0.7909 -0.3674
  182SOPE   H6Y20845   6.413   1.143   7.279 -0.0208  1.0703  0.4749
  182SOPE   C3720846   6.237   1.043   7.344 -0.0331 -0.3257  0.1188
  182SOPE   H7X20847   6.288   0.944   7.347  0.0995 -0.2723 -0.2425
  182SOPE   H7Y20848   6.130   1.035   7.316 -0.0403 -1.3764  0.4252
  182SOPE   C3820849   6.235   1.112   7.484  0.1824  0.4771  0.3614
  182SOPE   H8X20850   6.203   1.218   7.478 -0.5886  0.1734 -1.1817
  182SOPE   H8Y20851   6.339   1.103   7.523  0.5218 -2.4294 -1.0361
  182SOPE   C3920852   6.128   1.041   7.578 -0.5309  0.4775  0.2886
  182SOPE   H9X20853   6.156   0.934   7.590 -1.7337  0.1896  0.5987
  182SOPE   H9Y20854   6.030   1.059   7.529  0.0370 -1.0097 -1.4524
  182SOPE  C31020855   6.132   1.098   7.719 -0.3068  0.7473 -0.0408
  182SOPE  H10X20856   6.026   1.093   7.755 -0.5352  0.9250 -0.6845
  182SOPE  H10Y20857   6.153   1.207   7.709 -2.4920  0.9865 -2.8643
  182SOPE  C31120858   6.234   1.039   7.819 -0.4356  0.0910  0.4255
  182SOPE  H11X20859   6.325   1.074   7.766 -1.6175  0.4411 -1.4407
  182SOPE  H11Y20860   6.222   0.928   7.821  2.7087 -0.4364 -3.0162
  182SOPE  C31220861   6.216   1.089   7.957  0.7115  0.6821 -0.0203
  182SOPE  H12X20862   6.122   1.042   7.992  1.8924 -1.0610  0.8788
  182SOPE  H12Y20863   6.201   1.199   7.953 -1.6646  0.3085 -2.2986
  182SOPE  C31320864   6.329   1.068   8.066 -0.5338 -0.6322 -0.4315
  182SOPE  H13X20865   6.390   1.159   8.050 -2.5363  1.0643  1.1988
  182SOPE  H13Y20866   6.380   0.979   8.024  0.8263 -0.8219  1.5620
  182SOPE  C31420867   6.287   1.053   8.213 -0.1107  1.0447 -0.0586
  182SOPE  H14X20868   6.359   0.996   8.276 -1.3243  0.5304  0.8807
  182SOPE  H14Y20869   6.192   0.996   8.217  0.2854  0.4864  3.1259
  182SOPE  C31520870   6.252   1.179   8.297 -0.0253  0.4570 -0.3205
  182SOPE  H15X20871   6.348   1.222   8.331 -0.9054  0.6691  2.0411
  182SOPE  H15Y20872   6.201   1.143   8.389  1.9913 -1.5372  0.0702
  182SOPE  C31620873   6.162   1.279   8.223  0.5584 -0.2273 -0.0922
  182SOPE  H16X20874   6.094   1.221   8.157  0.1295 -0.8462  0.8837
  182SOPE  H16Y20875   6.222   1.345   8.158 -3.2750  1.2557 -2.2396
  182SOPE  C31720876   6.066   1.362   8.306  0.8157  0.3779  0.2930
  182SOPE  H17X20877   6.033   1.311   8.399  2.5752  0.1390  0.7896
  182SOPE  H17Y20878   5.980   1.386   8.240  0.7489  2.6646  1.1731
  182SOPE  C31820879   6.146   1.481   8.350 -0.0085 -0.1337 -0.6214
  182SOPE  H18X20880   6.202   1.534   8.270 -1.9759  1.6199 -0.8547
  182SOPE  H18Y20881   6.217   1.449   8.430 -0.8018  2.4692  1.1964
  182SOPE  H18Z20882   6.082   1.559   8.397  0.4456 -0.5257  0.6853
  183SOPE     N20883   1.752   5.987   5.995  0.3765 -0.3466  0.1558
  183SOPE   HN120884   1.794   6.080   5.977 -1.7518  0.5787 -0.2163
  183SOPE   HN220885   1.710   5.945   5.910 -0.0667 -0.9050  0.6457
  183SOPE   HN320886   1.675   6.001   6.063  0.2933 -0.5151  0.0974
  183SOPE   C1220887   1.865   5.903   6.048  0.0940 -0.2787  0.3481
  183SOPE  H12A20888   1.951   5.894   5.978 -1.9672 -3.5410 -1.9487
  183SOPE  H12B20889   1.825   5.801   6.066  1.0611 -0.7477 -0.1302
  183SOPE   C1120890   1.920   5.949   6.190  0.2765  0.2211 -0.1383
  183SOPE  H11A20891   1.978   5.871   6.244 -1.1332 -0.3825  0.5406
  183SOPE  H11B20892   1.830   5.951   6.255  0.5256 -0.8177  0.2488
  183SOPE     P20893   2.063   6.126   6.315 -0.3667 -0.1751 -0.1121
  183SOPE   O1320894   1.977   6.175   6.422  0.1234 -0.7162  0.1788
  183SOPE   O1420895   2.157   6.220   6.253 -0.6966 -0.5228 -0.2984
  183SOPE   O1220896   1.981   6.077   6.190  0.4077  0.1615  0.4561
  183SOPE   O1120897   2.136   5.997   6.364  1.0685  0.5802 -0.0052
  183SOPE    C120898   2.163   5.959   6.502  0.3267 -0.4460  0.1738
  183SOPE    HA20899   2.225   6.041   6.543 -0.3588  0.6339 -0.9067
  183SOPE    HB20900   2.224   5.866   6.496 -0.7009 -1.0460 -1.5258
  183SOPE    C220901   2.043   5.927   6.602  0.0886 -0.2232  0.0313
  183SOPE    HS20902   1.981   6.019   6.607 -0.8533 -0.9244  1.7786
  183SOPE   O2120903   2.099   5.908   6.736  0.7542 -0.1031  0.2035
  183SOPE   C2120904   2.139   6.019   6.798 -0.4778 -0.3198 -0.3260
  183SOPE   O2220905   2.132   6.132   6.759 -0.6543 -0.2698 -0.4046
  183SOPE   C2220906   2.173   5.979   6.937  0.1987  0.8376 -0.5842
  183SOPE   H2R20907   2.222   6.067   6.983  0.3947 -0.3488  1.5483
  183SOPE   H2S20908   2.243   5.893   6.926 -2.2486 -1.3034  0.1477
  183SOPE    C320909   1.965   5.805   6.557 -0.2982 -0.0307  0.3227
  183SOPE    HX20910   2.041   5.724   6.560  0.8984  1.1105  1.5514
  183SOPE    HY20911   1.924   5.810   6.454  1.0267 -0.3197 -0.2412
  183SOPE   O3120912   1.862   5.783   6.655 -0.1278 -0.4930 -0.1337
  183SOPE   C3120913   1.866   5.680   6.737  0.4261 -0.0536  0.0569
  183SOPE   O3220914   1.950   5.590   6.740 -0.5203  0.1985 -0.0718
  183SOPE   C3220915   1.752   5.714   6.836  0.0747 -0.0504  0.1772
  183SOPE   H2X20916   1.660   5.713   6.774  0.4057  2.7189 -0.4006
  183SOPE   H2Y20917   1.769   5.816   6.875  0.4388 -0.3536  0.8232
  183SOPE   C2320918   2.058   5.921   7.016  0.9326  0.0740 -0.2239
  183SOPE   H3R20919   2.022   5.826   6.972  0.2638  0.9984 -1.6996
  183SOPE   H3S20920   1.971   5.989   7.003 -0.6543 -1.7727  0.5058
  183SOPE   C2420921   2.090   5.906   7.160 -0.2068 -0.1791 -0.1731
  183SOPE   H4R20922   2.179   5.841   7.172 -0.6631 -1.2209 -2.2351
  183SOPE   H4S20923   2.116   6.010   7.191  3.9968 -0.7586 -1.5620
  183SOPE   C2520924   1.969   5.857   7.233 -1.1395  0.2474  0.2785
  183SOPE   H5R20925   1.881   5.924   7.220 -1.9558 -0.8799 -0.0633
  183SOPE   H5S20926   1.936   5.754   7.208  0.9972 -0.6017  0.7966
  183SOPE   C2620927   1.995   5.857   7.382  0.4313 -0.2030  0.4931
  183SOPE   H6R20928   1.930   5.783   7.433 -1.5769  1.4024  0.3427
  183SOPE   H6S20929   2.104   5.846   7.398  0.7774  0.7951 -1.0546
  183SOPE   C2720930   1.973   5.989   7.445  0.3572 -0.2066  0.1679
  183SOPE   H7R20931   2.037   6.061   7.389  1.7881 -0.8636  0.9677
  183SOPE   H7S20932   1.864   6.012   7.454  0.3871 -0.2502  0.6165
  183SOPE   C2820933   2.025   5.987   7.590  0.1865  0.6740 -0.2861
  183SOPE   H8R20934   1.974   5.913   7.656  1.0658  0.7173  0.4492
  183SOPE   H8S20935   2.134   5.964   7.588  0.1272 -0.1810  3.2570
  183SOPE   C2920936   2.013   6.118   7.653  0.0813  0.2044  0.2696
  183SOPE   H9120937   1.953   6.197   7.605  0.4391 -1.5613 -3.1598
  183SOPE  C21020938   2.063   6.149   7.774 -0.8527 -0.1563  0.2914
  183SOPE  H10120939   2.052   6.254   7.807  1.9838  0.6970 -1.3216
  183SOPE  C21120940   2.154   6.071   7.865  0.0997 -0.2765 -0.2398
  183SOPE  H11R20941   2.251   6.124   7.880  0.3505 -0.3999 -1.4016
  183SOPE  H11S20942   2.183   5.971   7.827 -1.1090 -0.0347 -1.8108
  183SOPE  C21220943   2.103   6.055   8.012 -0.6481 -0.2758 -0.3960
  183SOPE  H12R20944   2.193   6.048   8.076 -1.3461  0.8748  0.7314
  183SOPE  H12S20945   2.056   5.956   8.028  1.4460 -1.6400 -2.4141
  183SOPE  C21320946   2.023   6.172   8.064 -0.6358  0.1937 -0.7813
  183SOPE  H13R20947   1.920   6.181   8.021 -0.1109  1.5831 -1.7780
  183SOPE  H13S20948   2.060   6.265   8.016 -0.9196  0.3682 -0.6660
  183SOPE  C21420949   2.041   6.188   8.217 -0.3539 -0.0049 -0.5196
  183SOPE  H14R20950   2.037   6.090   8.269 -2.7088  0.0309 -0.5693
  183SOPE  H14S20951   1.954   6.244   8.257  0.1570  1.7243 -1.7802
  183SOPE  C21520952   2.164   6.266   8.253 -0.4336 -0.1246 -0.4574
  183SOPE  H15R20953   2.172   6.361   8.196 -2.2238  1.4383  1.8249
  183SOPE  H15S20954   2.255   6.212   8.217  1.1944  1.2603  1.4713
  183SOPE  C21620955   2.167   6.307   8.400 -0.0126  0.7453  0.2474
  183SOPE  H16R20956   2.071   6.359   8.418 -0.4974  0.7306 -2.1516
  183SOPE  H16S20957   2.249   6.379   8.418  0.6555 -0.1816  0.9688
  183SOPE  C21720958   2.176   6.183   8.503 -0.0428 -0.2557 -0.6666
  183SOPE  H17R20959   2.076   6.135   8.504  0.4613 -1.4103 -2.2178
  183SOPE  H17S20960   2.188   6.222   8.606 -1.1500  2.2598 -1.4293
  183SOPE  C21820961   2.292   6.084   8.477 -0.0315 -0.3974  0.1772
  183SOPE  H18R20962   2.260   5.986   8.518 -0.8018 -0.6313 -0.9541
  183SOPE  H18S20963   2.380   6.118   8.535  1.3369 -0.6221 -1.7212
  183SOPE  H18T20964   2.327   6.082   8.371  0.4400 -0.6677  0.3390
  183SOPE   C3320965   1.737   5.610   6.943 -0.0279 -0.3522 -0.6080
  183SOPE   H3X20966   1.819   5.612   7.018  1.1511  1.8275 -1.9038
  183SOPE   H3Y20967   1.757   5.513   6.892  0.5680 -1.1784  1.1488
  183SOPE   C3420968   1.587   5.609   6.998 -0.8355 -0.4160 -0.2942
  183SOPE   H4X20969   1.596   5.542   7.086 -0.1606  0.3722  0.2411
  183SOPE   H4Y20970   1.528   5.564   6.915 -2.0427 -2.2653  1.5184
  183SOPE   C3520971   1.535   5.748   7.051 -0.3491  0.5612  0.0459
  183SOPE   H5X20972   1.431   5.736   7.088 -0.6725  0.5028 -0.8552
  183SOPE   H5Y20973   1.537   5.830   6.976 -0.2463 -0.3982 -1.0324
  183SOPE   C3620974   1.608   5.809   7.166 -0.1395  0.4993 -0.5171
  183SOPE   H6X20975   1.564   5.907   7.192 -1.0877  1.0189 -3.8622
  183SOPE   H6Y20976   1.718   5.818   7.153 -0.2812  0.4036 -1.8570
  183SOPE   C3720977   1.604   5.723   7.299  0.7166  0.2148  0.1295
  183SOPE   H7X20978   1.676   5.639   7.287 -0.3219 -0.6449 -0.1405
  183SOPE   H7Y20979   1.502   5.680   7.308  0.5344  0.1892 -1.8563
  183SOPE   C3820980   1.633   5.805   7.427 -0.0249 -0.0138  0.3700
  183SOPE   H8X20981   1.553   5.882   7.440  1.5328  1.8271 -0.6324
  183SOPE   H8Y20982   1.729   5.859   7.412 -3.0434  5.1381 -1.9327
  183SOPE   C3920983   1.655   5.737   7.566 -0.2565 -0.3585 -0.3744
  183SOPE   H9X20984   1.752   5.682   7.565  0.1059  0.1882  2.2882
  183SOPE   H9Y20985   1.573   5.662   7.574  0.3231 -0.8160  1.6643
  183SOPE  C31020986   1.665   5.837   7.682  0.1127 -0.1704 -0.1882
  183SOPE  H10X20987   1.570   5.893   7.692  0.4668  1.1288 -3.5175
  183SOPE  H10Y20988   1.742   5.915   7.665 -0.5261  0.1692 -1.5868
  183SOPE  C31120989   1.694   5.787   7.824  0.3019 -0.9471  0.4743
  183SOPE  H11X20990   1.789   5.731   7.815  2.0013  2.3287 -4.0056
  183SOPE  H11Y20991   1.610   5.727   7.866 -1.5673  0.8955 -0.5008
  183SOPE  C31220992   1.709   5.903   7.918  0.6908 -0.9985 -0.1508
  183SOPE  H12X20993   1.621   5.970   7.907  3.1310  1.9405 -2.7824
  183SOPE  H12Y20994   1.801   5.960   7.892  0.8754 -0.7130  1.1098
  183SOPE  C31320995   1.719   5.855   8.064  0.3357  0.2170  0.7869
  183SOPE  H13X20996   1.815   5.801   8.083  0.3653  0.0246  0.0905
  183SOPE  H13Y20997   1.639   5.779   8.078 -0.0565  0.3108 -0.8679
  183SOPE  C31420998   1.706   5.964   8.168  0.0891  0.3282  0.0860
  183SOPE  H14X20999   1.608   6.016   8.177 -1.2113 -1.5118 -2.6020
  183SOPE  H14Y21000   1.785   6.039   8.144  1.3404 -1.0656 -0.2382
  183SOPE  C31521001   1.746   5.923   8.308 -1.0188  0.2625  0.6998
  183SOPE  H15X21002   1.845   5.874   8.296 -0.7673  1.5003 -2.9642
  183SOPE  H15Y21003   1.674   5.844   8.338 -0.4777  0.1939  1.8531
  183SOPE  C31621004   1.745   6.028   8.412  0.9244  0.1361 -0.6574
  183SOPE  H16X21005   1.641   6.066   8.423  0.5866 -0.8503 -0.3501
  183SOPE  H16Y21006   1.811   6.114   8.387  0.4981  1.8326  3.5245
  183SOPE  C31721007   1.783   5.974   8.554 -0.4253  0.0192 -0.1497
  183SOPE  H17X21008   1.893   5.958   8.560 -0.2388  1.2136 -0.2490
  183SOPE  H17Y21009   1.734   5.875   8.573  0.0009 -0.3354 -0.8887
  183SOPE  C31821010   1.735   6.074   8.662  0.0596  0.0874 -0.1985
  183SOPE  H18X21011   1.788   6.172   8.661 -2.0790  1.3277 -4.3171
  183SOPE  H18Y21012   1.765   6.017   8.752  0.7083  0.0787 -0.4151
  183SOPE  H18Z21013   1.625   6.086   8.655 -0.0341 -1.0316 -0.7665
  184SOPE     N21014   1.706   6.255   6.434  0.4270 -0.1726  0.0734
  184SOPE   HN121015   1.689   6.323   6.511 -1.8466 -0.8064  0.1786
  184SOPE   HN221016   1.651   6.176   6.474 -1.9078  2.0658  1.4589
  184SOPE   HN321017   1.805   6.225   6.438  0.7872  0.7590 -1.3252
  184SOPE   C1221018   1.667   6.306   6.299 -0.0361  0.3461  0.1254
  184SOPE  H12A21019   1.710   6.239   6.222 -3.2381  1.2867 -2.5679
  184SOPE  H12B21020   1.708   6.409   6.292  0.6903  0.0232 -0.3565
  184SOPE   C1121021   1.513   6.300   6.282 -0.1964  0.2144 -0.2644
  184SOPE  H11A21022   1.488   6.349   6.186  0.3239 -3.4237 -2.3474
  184SOPE  H11B21023   1.474   6.369   6.360 -1.8888 -0.4919 -0.4661
  184SOPE     P21024   1.415   6.092   6.173  0.1346  0.2201  0.2311
  184SOPE   O1321025   1.541   6.022   6.143 -0.2642  0.2885 -0.1751
  184SOPE   O1421026   1.361   6.176   6.064  0.2307 -0.3650  0.1536
  184SOPE   O1221027   1.450   6.176   6.291  0.3774 -0.2848  0.0643
  184SOPE   O1121028   1.300   5.995   6.227  0.5429 -0.4213 -0.2459
  184SOPE    C121029   1.298   5.955   6.365 -0.6542  0.7099 -0.0369
  184SOPE    HA21030   1.401   5.944   6.405 -0.8486 -0.4569  0.1727
  184SOPE    HB21031   1.251   5.854   6.368 -0.6554  0.6968 -0.4255
  184SOPE    C221032   1.209   6.041   6.453  0.4760 -0.0612 -1.0683
  184SOPE    HS21033   1.267   6.135   6.466 -1.1249  1.1095 -2.2228
  184SOPE   O2121034   1.179   5.974   6.579 -0.0450  0.1326  0.0819
  184SOPE   C2121035   1.281   5.964   6.662  0.0707  0.0306  0.0775
  184SOPE   O2221036   1.394   6.008   6.654  0.2265  0.2980  0.2342
  184SOPE   C2221037   1.225   5.887   6.785 -0.3708 -0.7147  0.2918
  184SOPE   H2R21038   1.267   5.785   6.778 -0.6815 -0.6582 -3.8030
  184SOPE   H2S21039   1.117   5.885   6.759 -0.4167  0.3921  0.3363
  184SOPE    C321040   1.072   6.078   6.387 -0.2572  0.7022 -0.1225
  184SOPE    HX21041   1.016   5.982   6.389 -0.6617  0.9486  1.1216
  184SOPE    HY21042   1.077   6.099   6.278  0.3692  1.3552  0.0305
  184SOPE   O3121043   1.010   6.181   6.464 -0.0496 -0.3111 -0.2693
  184SOPE   C3121044   0.884   6.165   6.491 -0.1384  0.5577 -0.3392
  184SOPE   O3221045   0.811   6.075   6.455 -0.0962  0.4913  0.0371
  184SOPE   C3221046   0.840   6.281   6.581  0.0056 -0.5165  0.4163
  184SOPE   H2X21047   0.781   6.344   6.511 -1.7996 -0.3241  2.0940
  184SOPE   H2Y21048   0.927   6.346   6.604 -0.0842  0.6809 -2.3843
  184SOPE   C2321049   1.253   5.952   6.921  0.2130 -0.0092  0.1752
  184SOPE   H3R21050   1.360   5.979   6.935 -0.1196  0.8065  1.1957
  184SOPE   H3S21051   1.221   5.868   6.986  1.0585 -0.7714 -0.3711
  184SOPE   C2421052   1.173   6.075   6.954  0.0964  0.3751 -0.2382
  184SOPE   H4R21053   1.185   6.145   6.869  1.4498  0.4714  0.0318
  184SOPE   H4S21054   1.069   6.036   6.963 -0.1877  1.0483 -0.5914
  184SOPE   C2521055   1.215   6.158   7.072  0.7245 -0.4350 -0.1483
  184SOPE   H5R21056   1.313   6.209   7.064 -0.2598  1.3528 -1.2923
  184SOPE   H5S21057   1.133   6.228   7.101  0.3867 -1.2315  0.8529
  184SOPE   C2621058   1.228   6.060   7.192 -0.0987  0.0273  0.0049
  184SOPE   H6R21059   1.141   5.993   7.174  0.5812 -0.4419 -1.6011
  184SOPE   H6S21060   1.333   6.026   7.197 -0.4771 -0.9515  1.5229
  184SOPE   C2721061   1.205   6.125   7.327  0.1433  0.5604  0.4717
  184SOPE   H7R21062   1.293   6.186   7.354  0.4117  0.5761 -0.4150
  184SOPE   H7S21063   1.129   6.204   7.307  0.1702  1.0616  2.3467
  184SOPE   C2821064   1.171   6.032   7.438 -0.5629  0.5418  0.7550
  184SOPE   H8R21065   1.112   5.946   7.398  0.4965 -0.4458  1.3185
  184SOPE   H8S21066   1.271   5.993   7.466  0.0913  0.1053 -1.9794
  184SOPE   C2921067   1.091   6.097   7.550  0.2961  0.0178 -0.3844
  184SOPE   H9121068   0.987   6.123   7.524 -0.1480 -1.5366 -0.2030
  184SOPE  C21021069   1.128   6.107   7.678  0.1683 -0.2271 -0.0204
  184SOPE  H10121070   1.058   6.162   7.742 -0.8170 -0.2143 -1.0964
  184SOPE  C21121071   1.266   6.063   7.734  0.2366 -0.0577  0.1398
  184SOPE  H11R21072   1.349   6.089   7.665 -0.1184  0.9142  0.0785
  184SOPE  H11S21073   1.267   5.952   7.743 -0.7484 -0.1295 -0.4187
  184SOPE  C21221074   1.311   6.109   7.874  0.3880 -0.1750  0.1447
  184SOPE  H12R21075   1.309   6.220   7.874 -2.8844 -0.1683 -1.1489
  184SOPE  H12S21076   1.419   6.087   7.890  0.1027 -3.0776 -1.5806
  184SOPE  C21321077   1.218   6.046   7.981  1.1541 -0.3453 -0.9027
  184SOPE  H13R21078   1.181   5.944   7.957 -0.0524 -0.6111  1.8852
  184SOPE  H13S21079   1.121   6.099   7.983  1.2220 -0.2545  0.0494
  184SOPE  C21421080   1.296   6.049   8.116  0.1005  0.3055 -0.3388
  184SOPE  H14R21081   1.316   6.158   8.116 -0.6249  0.4570 -2.1722
  184SOPE  H14S21082   1.386   5.985   8.110  0.0083  0.1040  0.3335
  184SOPE  C21521083   1.203   6.006   8.229  0.0270  1.0027  0.8337
  184SOPE  H15R21084   1.164   5.904   8.209  0.8382  0.9383 -0.5401
  184SOPE  H15S21085   1.118   6.077   8.227 -0.0480  0.8959 -1.4136
  184SOPE  C21621086   1.262   6.007   8.370 -0.5098  0.4256  0.2783
  184SOPE  H16R21087   1.312   6.103   8.394  0.7078 -0.4297  1.2243
  184SOPE  H16S21088   1.333   5.923   8.383 -0.8622 -0.2238 -1.8469
  184SOPE  C21721089   1.146   5.985   8.468  0.6531  0.3070  0.1659
  184SOPE  H17R21090   1.098   5.885   8.460 -0.9409  0.7786  2.9616
  184SOPE  H17S21091   1.066   6.061   8.458  2.9557  2.5160 -2.1163
  184SOPE  C21821092   1.200   5.995   8.611 -0.1448 -0.2299  0.2855
  184SOPE  H18R21093   1.237   6.096   8.640  0.0212 -0.4606  0.8921
  184SOPE  H18S21094   1.283   5.926   8.636 -0.1894 -0.0343  0.9808
  184SOPE  H18T21095   1.127   5.971   8.691 -0.9749 -0.3284 -0.4970
  184SOPE   C3321096   0.781   6.229   6.712  0.4403  0.3460 -1.0951
  184SOPE   H3X21097   0.856   6.171   6.771  0.2924  0.8956 -0.3579
  184SOPE   H3Y21098   0.707   6.150   6.688 -0.1013  0.9727 -1.5039
  184SOPE   C3421099   0.723   6.331   6.813  0.1796  0.3249  0.0699
  184SOPE   H4X21100   0.622   6.361   6.778 -0.2532 -0.0105  1.0324
  184SOPE   H4Y21101   0.801   6.411   6.811 -0.2380  0.7652  1.1079
  184SOPE   C3521102   0.704   6.288   6.956  0.1292  0.0455 -0.2061
  184SOPE   H5X21103   0.798   6.246   6.998  0.6074  2.2183  1.0096
  184SOPE   H5Y21104   0.618   6.218   6.945 -0.3560  0.8822 -1.7991
  184SOPE   C3621105   0.664   6.406   7.044 -0.1382  0.4355 -0.5540
  184SOPE   H6X21106   0.597   6.465   6.978  0.8733  0.4305 -1.6026
  184SOPE   H6Y21107   0.751   6.475   7.050 -1.5878  2.2766 -0.2446
  184SOPE   C3721108   0.611   6.365   7.183 -0.5250 -0.4547 -0.0267
  184SOPE   H7X21109   0.527   6.292   7.169 -1.7476  0.9867 -0.3519
  184SOPE   H7Y21110   0.568   6.454   7.235 -1.4115 -1.3791  0.8594
  184SOPE   C3821111   0.710   6.291   7.278  0.8094  0.2962  0.0912
  184SOPE   H8X21112   0.803   6.352   7.274  2.1397 -1.7549 -1.9660
  184SOPE   H8Y21113   0.731   6.188   7.241 -1.0143  0.4898 -1.5463
  184SOPE   C3921114   0.647   6.278   7.420 -0.3772 -0.7503  0.6737
  184SOPE   H9X21115   0.719   6.217   7.478  1.4587  1.3246  0.6482
  184SOPE   H9Y21116   0.546   6.233   7.417 -1.1888  0.9696  1.6185
  184SOPE  C31021117   0.639   6.418   7.492  0.0311  0.3793  0.5894
  184SOPE  H10X21118   0.568   6.478   7.431 -0.6599 -0.4008  0.6302
  184SOPE  H10Y21119   0.743   6.456   7.486  0.0445  0.1666 -0.5670
  184SOPE  C31121120   0.595   6.406   7.638  0.5433 -0.8305 -0.4308
  184SOPE  H11X21121   0.492   6.372   7.662  0.9904  0.3286  3.5364
  184SOPE  H11Y21122   0.604   6.511   7.673  0.6822  0.1680 -3.3637
  184SOPE  C31221123   0.705   6.335   7.729  0.7737 -0.2084  1.2019
  184SOPE  H12X21124   0.797   6.394   7.710  0.1098  0.8440  1.2307
  184SOPE  H12Y21125   0.727   6.228   7.707 -3.4847 -1.1880  1.2140
  184SOPE  C31321126   0.659   6.344   7.870 -0.0627 -0.4236 -0.0097
  184SOPE  H13X21127   0.562   6.289   7.879  0.0244 -0.4719  0.7284
  184SOPE  H13Y21128   0.643   6.453   7.885 -1.3020 -0.5313 -0.4880
  184SOPE  C31421129   0.764   6.296   7.972  0.5663 -0.3450 -0.1397
  184SOPE  H14X21130   0.865   6.341   7.975  1.0283 -1.3489 -0.3587
  184SOPE  H14Y21131   0.771   6.187   7.952 -2.9707 -0.3457 -1.8891
  184SOPE  C31521132   0.718   6.321   8.121  0.7847  0.0017  1.7345
  184SOPE  H15X21133   0.611   6.295   8.132  0.6767 -1.5251 -1.9972
  184SOPE  H15Y21134   0.737   6.430   8.131 -1.9126  1.0438 -3.1643
  184SOPE  C31621135   0.809   6.229   8.213 -0.3966  0.1926  0.4697
  184SOPE  H16X21136   0.919   6.228   8.205 -0.3494  0.8305  0.9369
  184SOPE  H16Y21137   0.782   6.127   8.180  1.2127 -0.0936  0.0317
  184SOPE  C31721138   0.766   6.224   8.364  0.6433 -0.2715 -0.5697
  184SOPE  H17X21139   0.828   6.146   8.413 -0.1385 -1.6550 -1.7211
  184SOPE  H17Y21140   0.660   6.195   8.382  1.3817 -2.7455  0.0386
  184SOPE  C31821141   0.789   6.361   8.422  0.0941 -0.4595  0.0046
  184SOPE  H18X21142   0.727   6.446   8.386  2.1468  1.9830  2.0651
  184SOPE  H18Y21143   0.893   6.386   8.391 -0.6473  0.1161 -2.1425
  184SOPE  H18Z21144   0.780   6.361   8.533 -0.5477 -0.3308 -0.0444
  185SAPI   C1221145   4.093   3.011  10.949 -0.4532 -0.3231  0.3509
  185SAPI    H221146   4.013   3.079  10.985  1.8733  2.9738 -0.4289
  185SAPI    O221147   4.147   3.060  10.831 -0.0588 -0.4414  0.1177
  185SAPI   HO221148   4.083   3.056  10.759  0.3933  0.3500 -0.3293
  185SAPI   C1321149   4.207   3.005  11.048 -0.4256 -0.1187 -0.2432
  185SAPI    H321150   4.161   2.959  11.138 -2.1886  1.3552 -0.3559
  185SAPI    O321151   4.238   3.135  11.101  0.2589 -0.1626  0.5280
  185SAPI   HO321152   4.273   3.187  11.028 -2.9476 -1.5632 -2.1367
  185SAPI   C1421153   4.331   2.928  10.997  0.2250  0.7064 -0.2380
  185SAPI    H421154   4.357   2.992  10.909  0.1861  2.6519  1.1287
  185SAPI    O421155   4.438   2.934  11.089 -0.1768 -0.9341 -0.1667
  185SAPI   HO421156   4.510   2.903  11.033  0.0862  2.4386 -1.8221
  185SAPI   C1521157   4.297   2.782  10.967  0.4629  0.0595 -0.0311
  185SAPI    H521158   4.278   2.735  11.066  2.2758  1.2136  0.8883
  185SAPI    O521159   4.410   2.709  10.909 -0.3785  0.7012  0.1495
  185SAPI   HO521160   4.443   2.749  10.828  0.2575  0.3161  0.2161
  185SAPI   C1621161   4.171   2.779  10.870  0.1821  0.3408  0.0914
  185SAPI    H621162   4.206   2.822  10.773 -1.0380 -0.4833 -0.7196
  185SAPI    O621163   4.129   2.647  10.848  0.7441  0.0505 -0.1254
  185SAPI   HO621164   4.075   2.647  10.769  0.4341  1.4470  0.0895
  185SAPI   C1121165   4.051   2.865  10.928 -0.0809 -0.5150 -0.0060
  185SAPI    H121166   4.020   2.807  11.017  1.7201  0.8466  1.5397
  185SAPI     P21167   3.794   2.898  10.885  0.2606 -0.3909  0.1500
  185SAPI   O1321168   3.769   3.050  10.873 -0.1769 -0.2985  0.1432
  185SAPI   O1421169   3.769   2.836  11.016 -0.0825  0.1152 -0.1796
  185SAPI   O1221170   3.949   2.863  10.832 -0.5090 -0.1788  0.3709
  185SAPI   O1121171   3.712   2.837  10.773  0.3704 -0.0069  0.4412
  185SAPI    C121172   3.726   2.702  10.715 -0.6792  0.1834 -0.5829
  185SAPI    HA21173   3.808   2.642  10.760  1.4551  0.8079 -3.4693
  185SAPI    HB21174   3.624   2.659  10.717 -0.9467  0.8800  1.9138
  185SAPI    C221175   3.748   2.708  10.562  0.2481 -0.5351 -0.2275
  185SAPI    HS21176   3.749   2.601  10.529 -1.7453 -0.0329 -2.0448
  185SAPI   O2121177   3.862   2.776  10.513 -0.3034 -0.7798  0.3684
  185SAPI   C2121178   3.990   2.739  10.546  0.4014  0.3503  0.0746
  185SAPI   O2221179   4.011   2.637  10.608 -0.1779 -0.0103 -0.1170
  185SAPI   C2221180   4.091   2.828  10.477  0.3857 -0.4783  0.0366
  185SAPI   H2R21181   4.051   2.918  10.426 -3.2413 -1.7690  0.4374
  185SAPI   H2S21182   4.164   2.858  10.554  0.3994 -0.5544  0.0535
  185SAPI    C321183   3.629   2.768  10.493  1.1808 -0.4237  0.0672
  185SAPI    HX21184   3.629   2.879  10.496 -0.4054 -0.3944 -0.3120
  185SAPI    HY21185   3.538   2.743  10.551 -0.1222 -0.7500 -2.0694
  185SAPI   O3121186   3.627   2.722  10.360  0.1703  0.9024 -0.2338
  185SAPI   C3121187   3.524   2.771  10.299 -0.1363  0.5936  0.2789
  185SAPI   O3221188   3.459   2.865  10.339 -0.2275  0.5464  0.3018
  185SAPI   C3221189   3.511   2.713  10.153  0.0174  0.2440 -0.4910
  185SAPI   H2X21190   3.480   2.606  10.157  0.8246  0.0027 -0.6169
  185SAPI   H2Y21191   3.614   2.724  10.113 -0.0026 -2.6479 -1.4914
  185SAPI   C2321192   4.162   2.745  10.361  0.9350  0.7769  0.3967
  185SAPI   H3R21193   4.207   2.659  10.414 -1.2091 -0.2668  0.5865
  185SAPI   H3S21194   4.246   2.806  10.321  0.9258 -0.3722 -1.4092
  185SAPI   C2421195   4.075   2.679  10.250 -0.1838 -0.1361  0.4186
  185SAPI   H4R21196   4.004   2.752  10.204  0.7534 -1.3649 -3.1217
  185SAPI   H4S21197   4.008   2.606  10.300  2.8769 -2.6745  0.9547
  185SAPI   C2521198   4.161   2.608  10.151 -0.5532 -0.4206 -0.0805
  185SAPI   H5R21199   4.246   2.551  10.190  1.3234  2.3080  0.0052
  185SAPI   C2621200   4.150   2.610  10.017  0.0319 -0.3717 -0.0922
  185SAPI   H6R21201   4.212   2.543   9.957 -0.8225 -1.2487 -0.0084
  185SAPI   C2721202   4.047   2.692   9.941  0.3595 -0.4572 -0.1249
  185SAPI   H7R21203   4.060   2.793   9.984  1.3137 -0.7191  0.2226
  185SAPI   H7S21204   3.948   2.654   9.972  0.1435  0.9711  0.9592
  185SAPI   C2821205   4.055   2.697   9.793  0.2256  0.4772  0.1788
  185SAPI   H8R21206   4.110   2.618   9.739 -1.1211  0.4820 -1.2341
  185SAPI   C2921207   4.008   2.791   9.706 -0.0328  0.3698  0.6229
  185SAPI   H9R21208   4.045   2.787   9.603  0.6015 -0.6296  0.8910
  185SAPI  C21021209   3.925   2.919   9.722  0.2773  0.4079  0.6511
  185SAPI  H10R21210   3.921   2.990   9.637 -1.6246 -0.1688  0.2373
  185SAPI  H10S21211   3.985   2.970   9.801  0.3685  0.4746  0.5395
  185SAPI  C21121212   3.791   2.883   9.770 -0.8047  0.1312  0.3665
  185SAPI  H11R21213   3.780   2.849   9.874  1.0804 -1.0615  0.2096
  185SAPI  C21221214   3.683   2.870   9.689 -0.9452 -0.5146  0.1173
  185SAPI  H12R21215   3.584   2.855   9.734 -1.8742  2.5429 -0.7855
  185SAPI  C21321216   3.674   2.894   9.544  0.3831 -0.5136  0.0174
  185SAPI  H13R21217   3.774   2.927   9.510  0.7278 -0.5486  0.9778
  185SAPI  H13S21218   3.615   2.986   9.529  1.4212 -0.0532 -1.3422
  185SAPI  C21421219   3.634   2.778   9.458 -0.2283 -0.1348 -0.4745
  185SAPI  H14R21220   3.534   2.742   9.484 -0.9619  3.8834  2.9232
  185SAPI  C21521221   3.710   2.705   9.387  0.3923  0.1089  0.0779
  185SAPI  H15R21222   3.664   2.631   9.319  3.2419 -1.3730 -0.3198
  185SAPI  C21621223   3.854   2.726   9.361 -0.4955 -0.3474 -0.8160
  185SAPI  H16R21224   3.926   2.642   9.370 -0.6750 -0.6283 -1.9160
  185SAPI  H16S21225   3.902   2.813   9.412  1.0673 -1.6415 -0.0088
  185SAPI  C21721226   3.860   2.780   9.215 -0.1902  0.5964  0.7533
  185SAPI  H17R21227   3.798   2.871   9.208 -0.0170  0.6370 -0.2856
  185SAPI  H17S21228   3.817   2.715   9.136  1.4603  1.3306 -0.7851
  185SAPI  C21821229   4.008   2.811   9.166  0.6020  0.1929  0.4272
  185SAPI  H18R21230   4.066   2.717   9.162 -0.8529 -0.7943  1.7669
  185SAPI  H18S21231   4.056   2.883   9.234 -3.0612  2.4848  0.7269
  185SAPI  C21921232   4.012   2.879   9.030  0.7505  0.1881  0.0744
  185SAPI  H19R21233   4.115   2.891   8.991  1.8072 -1.9668  2.0439
  185SAPI  H19S21234   3.968   2.980   9.032 -1.1210 -0.5682 -2.0390
  185SAPI  C22021235   3.916   2.811   8.927 -0.4129  0.3272 -0.1947
  185SAPI  H20R21236   3.917   2.700   8.938  0.8039  0.2558 -0.9880
  185SAPI  H20S21237   3.955   2.839   8.827 -0.1231 -1.7863 -0.6920
  185SAPI  H20T21238   3.816   2.851   8.956  0.5259  3.3958 -1.0172
  185SAPI   C3321239   3.413   2.791  10.064 -0.1248  0.3337  0.9680
  185SAPI   H3X21240   3.447   2.895  10.049  0.6720 -0.3264 -2.0841
  185SAPI   H3Y21241   3.317   2.794  10.119 -0.7594  1.1539 -0.1512
  185SAPI   C3421242   3.394   2.736   9.922  0.2029  0.2422 -0.2036
  185SAPI   H4X21243   3.374   2.627   9.930 -0.5192  0.4524  0.9482
  185SAPI   H4Y21244   3.497   2.733   9.880 -0.1271 -1.3322 -0.9456
  185SAPI   C3521245   3.295   2.818   9.839 -0.2706 -0.2791 -0.3177
  185SAPI   H5X21246   3.338   2.919   9.853 -1.2932  0.0685  0.3908
  185SAPI   H5Y21247   3.199   2.816   9.896 -0.1321 -0.0815 -0.0786
  185SAPI   C3621248   3.279   2.779   9.688 -0.2454 -0.3042  0.4235
  185SAPI   H6X21249   3.255   2.671   9.680 -1.0675 -0.1121  0.2391
  185SAPI   H6Y21250   3.371   2.803   9.630 -2.0924  1.6914 -1.7858
  185SAPI   C3721251   3.171   2.859   9.609 -0.3257 -0.0709 -0.2672
  185SAPI   H7X21252   3.205   2.964   9.593 -2.6064  0.6190 -0.8396
  185SAPI   H7Y21253   3.077   2.874   9.667 -0.1613  0.7679 -0.2124
  185SAPI   C3821254   3.138   2.790   9.481 -0.2553 -1.0113  0.3319
  185SAPI   H8X21255   3.105   2.687   9.503 -2.2789 -0.3163  0.5983
  185SAPI   H8Y21256   3.229   2.774   9.418 -0.2851  0.2199 -0.0506
  185SAPI   C3921257   3.040   2.861   9.384 -0.4450  0.2049  0.5862
  185SAPI   H9X21258   3.092   2.958   9.366  1.3057 -0.5376  1.5566
  185SAPI   H9Y21259   2.956   2.896   9.447 -0.9104 -0.3492  0.2805
  185SAPI  C31021260   3.011   2.783   9.258  0.5659 -0.0203 -0.8139
  185SAPI  H10X21261   2.968   2.683   9.279  0.7642  0.1077  0.2479
  185SAPI  H10Y21262   3.106   2.771   9.201  1.8226  1.2072  0.9926
  185SAPI  C31121263   2.913   2.857   9.158  0.4777  0.2047 -0.7335
  185SAPI  H11X21264   2.930   2.959   9.117 -0.4563 -0.3599 -2.5600
  185SAPI  H11Y21265   2.815   2.867   9.210  1.0110 -0.2791  0.3828
  185SAPI  C31221266   2.897   2.774   9.033 -0.3401 -0.0256 -0.0308
  185SAPI  H12X21267   2.861   2.669   9.043 -0.4209 -0.3886 -3.5349
  185SAPI  H12Y21268   3.000   2.760   8.991 -0.6437  1.3911 -1.2977
  185SAPI  C31321269   2.808   2.831   8.920  0.1730  0.4992 -1.0794
  185SAPI  H13X21270   2.866   2.824   8.825  0.5469  1.0239 -0.8890
  185SAPI  H13Y21271   2.788   2.939   8.937 -0.4826  0.5031 -1.8180
  185SAPI  C31421272   2.674   2.759   8.898 -0.1456  0.2075 -0.2876
  185SAPI  H14X21273   2.607   2.771   8.987 -0.8350  1.0903 -0.9174
  185SAPI  H14Y21274   2.689   2.650   8.890  1.4676  0.5005 -1.2423
  185SAPI  C31521275   2.586   2.821   8.785 -0.0874 -0.2740  0.0709
  185SAPI  H15X21276   2.578   2.932   8.792  0.2421 -0.3026  1.0378
  185SAPI  H15Y21277   2.486   2.771   8.790  0.7123 -1.9294 -0.1699
  185SAPI  C31621278   2.639   2.786   8.635  0.1508  0.3980  0.2011
  185SAPI  H16X21279   2.658   2.678   8.619 -0.6433  0.6398 -2.5263
  185SAPI  H16Y21280   2.733   2.845   8.625  0.2784  0.2107  0.2988
  185SAPI  C31721281   2.532   2.837   8.535  0.2370 -0.3379  0.2795
  185SAPI  H17X21282   2.544   2.946   8.513  0.2610 -0.4196 -0.1105
  185SAPI  H17Y21283   2.429   2.820   8.572 -0.3973 -0.8401 -1.6642
  185SAPI  C31821284   2.534   2.770   8.400 -0.9783  0.1656 -0.6489
  185SAPI  H18X21285   2.459   2.820   8.336 -2.8942  0.0046  1.4371
  185SAPI  H18Y21286   2.526   2.661   8.422  0.1070 -0.0842 -1.4539
  185SAPI  H18Z21287   2.628   2.792   8.345  0.1182 -2.5481  0.0240
  186SAPI   C1221288   3.935   1.104  11.225  0.3022  0.1656  0.1864
  186SAPI    H221289   3.858   1.174  11.186  1.0888  1.3137  0.6814
  186SAPI    O221290   4.003   1.187  11.317  0.1389  0.8051  0.0132
  186SAPI   HO221291   3.974   1.278  11.311 -0.9150  0.4650 -0.2800
  186SAPI   C1321292   3.845   1.000  11.294 -0.2069 -0.2481 -0.3356
  186SAPI    H321293   3.780   0.951  11.218  1.3902 -1.7119 -0.7776
  186SAPI    O321294   3.754   1.066  11.383  0.5660  0.4015 -0.7820
  186SAPI   HO321295   3.794   1.133  11.438 -0.1551 -1.0672  1.5943
  186SAPI   C1421296   3.937   0.900  11.371  1.3943  0.8824 -0.2824
  186SAPI    H421297   3.989   0.966  11.444 -0.8774  2.7392 -0.2679
  186SAPI    O421298   3.846   0.803  11.430  0.4464 -0.3295  0.0967
  186SAPI   HO421299   3.786   0.850  11.488  0.9585  0.4224  0.0377
  186SAPI   C1521300   4.035   0.837  11.268  0.8485 -0.2835 -0.4784
  186SAPI    H521301   3.959   0.779  11.212 -1.6801  1.0634  1.4122
  186SAPI    O521302   4.122   0.748  11.341  0.3412  0.6733  0.2201
  186SAPI   HO521303   4.066   0.674  11.368  1.1127  0.0927  0.2288
  186SAPI   C1621304   4.108   0.938  11.191  0.0077  0.2949  0.5349
  186SAPI    H621305   4.169   0.992  11.267 -0.0847 -1.7313  2.1064
  186SAPI    O621306   4.190   0.872  11.094  0.6478 -0.1852  0.2241
  186SAPI   HO621307   4.257   0.938  11.073  0.8942 -0.5421 -0.1151
  186SAPI   C1121308   4.013   1.035  11.123 -0.6591  0.2859  0.1306
  186SAPI    H121309   3.944   0.974  11.061 -0.9850  0.2023  0.5691
  186SAPI     P21310   4.006   1.180  10.900  0.2472  0.1858  0.0811
  186SAPI   O1321311   4.073   1.302  10.848  0.2165 -0.3007  0.2101
  186SAPI   O1421312   3.860   1.188  10.913  0.5618 -0.6495  0.3894
  186SAPI   O1221313   4.074   1.138  11.039 -0.0399  0.1247 -0.2282
  186SAPI   O1121314   4.048   1.059  10.803 -0.0015  0.7049 -0.1940
  186SAPI    C121315   4.182   1.027  10.793 -0.6080 -0.5918 -0.2375
  186SAPI    HA21316   4.254   1.110  10.806  1.4398 -2.4527  0.5773
  186SAPI    HB21317   4.219   0.960  10.873 -0.5170 -1.4811 -1.0087
  186SAPI    C221318   4.217   0.973  10.653 -0.4380 -0.1656 -0.1626
  186SAPI    HS21319   4.326   0.974  10.634 -0.3541 -2.4620  0.0060
  186SAPI   O2121320   4.146   1.041  10.553 -0.0021  0.2363  0.3520
  186SAPI   C2121321   4.173   1.163  10.540  0.1871  0.3304 -0.3057
  186SAPI   O2221322   4.271   1.221  10.587  0.3657  0.0759 -0.2303
  186SAPI   C2221323   4.065   1.222  10.453  0.2254  0.3762  0.1182
  186SAPI   H2R21324   3.968   1.212  10.507 -1.2243  0.0350 -2.4548
  186SAPI   H2S21325   4.087   1.324  10.416  2.5939 -0.5207 -1.0121
  186SAPI    C321326   4.187   0.819  10.652  0.9003 -0.4224 -0.4659
  186SAPI    HX21327   4.077   0.811  10.660  0.9533 -0.0214  0.8328
  186SAPI    HY21328   4.218   0.765  10.744 -2.1795 -0.0779  0.8241
  186SAPI   O3121329   4.240   0.748  10.536  0.0844 -0.2590 -0.1453
  186SAPI   C3121330   4.232   0.615  10.541 -0.1851  0.5649  0.0004
  186SAPI   O3221331   4.166   0.556  10.623 -0.4353 -0.0583 -0.1401
  186SAPI   C3221332   4.310   0.558  10.420  0.1279 -1.0382 -0.1538
  186SAPI   H2X21333   4.413   0.534  10.454  0.5968  1.1521  0.0305
  186SAPI   H2Y21334   4.311   0.629  10.335  0.1210  0.4255  1.0327
  186SAPI   C2321335   4.054   1.142  10.320  0.3602 -0.0365  0.4787
  186SAPI   H3R21336   3.988   1.055  10.341 -0.7309  0.8525  0.7372
  186SAPI   H3S21337   4.152   1.094  10.297  0.0845 -1.2916  1.8771
  186SAPI   C2421338   3.982   1.218  10.209  0.7518  1.1769  0.3050
  186SAPI   H4R21339   4.045   1.297  10.163 -1.4816  1.8579 -1.6748
  186SAPI   H4S21340   3.900   1.278  10.255 -1.4995  1.2231 -3.5475
  186SAPI   C2521341   3.915   1.135  10.100  0.3454 -0.6266  0.1181
  186SAPI   H5R21342   3.815   1.096  10.122 -1.2613  2.9826 -0.4702
  186SAPI   C2621343   3.969   1.103   9.977  0.9420 -0.0796  0.3775
  186SAPI   H6R21344   3.910   1.048   9.903  1.1831  0.0745  0.0670
  186SAPI   C2721345   4.112   1.136   9.933  0.2965 -0.2521  0.0455
  186SAPI   H7R21346   4.149   1.056   9.866  1.1997 -0.7240  1.0906
  186SAPI   H7S21347   4.176   1.132  10.024  0.0988  1.4045  0.2666
  186SAPI   C2821348   4.131   1.268   9.861 -0.2327  0.7733 -0.7015
  186SAPI   H8R21349   4.098   1.358   9.915 -0.1589 -0.8494  2.1547
  186SAPI   C2921350   4.184   1.289   9.736 -0.0714  0.0861 -0.1317
  186SAPI   H9R21351   4.206   1.395   9.712 -2.6482  0.7334  0.2528
  186SAPI  C21021352   4.237   1.190   9.634  0.0619 -0.3216 -0.3656
  186SAPI  H10R21353   4.215   1.089   9.675 -0.8802 -0.3078 -0.8158
  186SAPI  H10S21354   4.346   1.210   9.628 -0.0909  0.0401 -2.0938
  186SAPI  C21121355   4.169   1.189   9.502 -0.4825 -0.1788  0.6351
  186SAPI  H11R21356   4.061   1.176   9.516 -0.3248 -1.5830  0.5540
  186SAPI  C21221357   4.217   1.228   9.380  0.4328 -0.3567  0.2645
  186SAPI  H12R21358   4.147   1.240   9.296 -0.2232 -1.2307  0.6783
  186SAPI  C21321359   4.359   1.264   9.349 -0.4420  0.1208  0.3747
  186SAPI  H13R21360   4.430   1.276   9.433  0.3318 -0.8469 -0.1367
  186SAPI  H13S21361   4.365   1.358   9.290  0.7167  0.8176  1.5804
  186SAPI  C21421362   4.415   1.149   9.269 -1.1288 -0.1170 -0.0853
  186SAPI  H14R21363   4.393   1.046   9.299 -0.3606 -0.3688 -0.3810
  186SAPI  C21521364   4.510   1.163   9.172  0.6878 -0.4486  0.8078
  186SAPI  H15R21365   4.525   1.078   9.104 -0.1502 -1.1089  1.4491
  186SAPI  C21621366   4.571   1.293   9.134  0.2284  0.0186  0.3547
  186SAPI  H16R21367   4.638   1.321   9.218 -1.8625  1.5556  1.5412
  186SAPI  H16S21368   4.495   1.373   9.141 -1.2190 -1.3103  0.1316
  186SAPI  C21721369   4.662   1.306   9.003  0.1525  0.6677  0.1388
  186SAPI  H17R21370   4.740   1.227   9.012 -2.2766 -1.5917  2.2758
  186SAPI  H17S21371   4.717   1.402   9.013  2.8272 -0.7135 -0.9194
  186SAPI  C21821372   4.579   1.314   8.870 -0.1653  0.6309  0.4331
  186SAPI  H18R21373   4.512   1.403   8.858 -0.5156  0.2139 -0.8844
  186SAPI  H18S21374   4.529   1.216   8.859  3.5946 -1.2912 -0.1291
  186SAPI  C21921375   4.678   1.318   8.757 -0.0271  0.3786 -0.1190
  186SAPI  H19R21376   4.626   1.285   8.664 -1.0762  2.2883 -0.2172
  186SAPI  H19S21377   4.765   1.249   8.767  0.2692  0.9358  1.2177
  186SAPI  C22021378   4.736   1.454   8.731 -1.1829 -0.9637 -0.2109
  186SAPI  H20R21379   4.837   1.443   8.685 -0.8961  0.6983 -0.0248
  186SAPI  H20S21380   4.761   1.496   8.831  0.9933 -2.8075  0.0637
  186SAPI  H20T21381   4.668   1.518   8.671 -0.0690 -1.8444 -2.4360
  186SAPI   C3321382   4.251   0.417  10.369 -0.2528  0.2159 -0.5081
  186SAPI   H3X21383   4.163   0.436  10.304 -0.6926  2.7828  0.7991
  186SAPI   H3Y21384   4.232   0.348  10.454  0.8195 -0.4331 -0.7838
  186SAPI   C3421385   4.361   0.337  10.294  0.6698 -0.7436  0.2111
  186SAPI   H4X21386   4.308   0.243  10.267 -0.2054 -0.4042  0.7185
  186SAPI   H4Y21387   4.450   0.310  10.354  0.6700  0.6319  0.8610
  186SAPI   C3521388   4.410   0.400  10.167  0.8428 -0.3342 -0.2003
  186SAPI   H5X21389   4.498   0.461  10.198 -0.7654  1.5489  0.7872
  186SAPI   H5Y21390   4.348   0.482  10.124  2.0670  1.5860  1.5608
  186SAPI   C3621391   4.446   0.314  10.048 -0.2750 -0.0394  0.4239
  186SAPI   H6X21392   4.365   0.240  10.030  1.1504 -1.4183 -0.3650
  186SAPI   H6Y21393   4.540   0.257  10.066 -1.3000 -1.4591  1.3854
  186SAPI   C3721394   4.462   0.411   9.926  0.1341  0.3920 -0.0664
  186SAPI   H7X21395   4.542   0.485   9.944  0.9089 -0.0637 -1.5363
  186SAPI   H7Y21396   4.364   0.459   9.906 -0.0484  0.3092  0.5983
  186SAPI   C3821397   4.494   0.326   9.804 -0.0730  0.3977  0.2523
  186SAPI   H8X21398   4.426   0.243   9.774 -1.5049  1.6383  0.0074
  186SAPI   H8Y21399   4.597   0.287   9.816 -0.9083 -1.8787  0.3741
  186SAPI   C3921400   4.497   0.408   9.674 -0.0849 -0.4713 -0.7664
  186SAPI   H9X21401   4.562   0.497   9.690 -1.0254  0.2008 -0.6729
  186SAPI   H9Y21402   4.395   0.438   9.644  0.3040  2.3308  0.5171
  186SAPI  C31021403   4.552   0.326   9.555  0.0395 -0.1275 -0.2397
  186SAPI  H10X21404   4.488   0.240   9.525  0.8072 -1.3090  1.4248
  186SAPI  H10Y21405   4.649   0.279   9.583 -2.3299 -2.6995  4.2810
  186SAPI  C31121406   4.572   0.414   9.432  1.1335  0.0446  0.5885
  186SAPI  H11X21407   4.633   0.498   9.470 -0.6018  1.2214  0.8611
  186SAPI  H11Y21408   4.478   0.463   9.399  1.7126  0.5302 -0.3623
  186SAPI  C31221409   4.642   0.352   9.301  0.1233  0.8934  0.4737
  186SAPI  H12X21410   4.740   0.308   9.329  0.1659 -0.1480 -1.2322
  186SAPI  H12Y21411   4.660   0.435   9.229 -0.5818  1.2891  0.7393
  186SAPI  C31321412   4.556   0.239   9.235 -0.4288  0.6980  0.2387
  186SAPI  H13X21413   4.455   0.279   9.212 -0.9004 -0.5991  0.0085
  186SAPI  H13Y21414   4.541   0.165   9.317  0.2377  2.1936  1.7438
  186SAPI  C31421415   4.635   0.173   9.115 -0.3710 -0.1247  0.3779
  186SAPI  H14X21416   4.730   0.120   9.135 -0.8785 -1.2824 -0.2460
  186SAPI  H14Y21417   4.659   0.251   9.040  2.9057 -0.8424  0.6219
  186SAPI  C31521418   4.541   0.073   9.042  0.1094  1.0582  0.6529
  186SAPI  H15X21419   4.457   0.140   9.012  0.9982  2.0448  0.3426
  186SAPI  H15Y21420   4.509  -0.002   9.117 -0.5041 -0.5905 -1.2210
  186SAPI  C31621421   4.595   0.023   8.911  0.1147  1.1761  0.5183
  186SAPI  H16X21422   4.695  -0.024   8.925 -0.1942 -0.3337 -2.0178
  186SAPI  H16Y21423   4.613   0.104   8.836  2.2287 -0.5724 -0.9112
  186SAPI  C31721424   4.488  -0.070   8.848 -0.0467 -0.3949 -0.0208
  186SAPI  H17X21425   4.398  -0.007   8.829 -0.0622 -0.6154 -0.6973
  186SAPI  H17Y21426   4.466  -0.148   8.924  3.0429 -1.6745 -0.3761
  186SAPI  C31821427   4.539  -0.129   8.712  0.4625  0.4895  0.0325
  186SAPI  H18X21428   4.562  -0.049   8.639  0.6405 -0.7015 -1.2400
  186SAPI  H18Y21429   4.454  -0.190   8.674 -1.6020  1.5447  2.7911
  186SAPI  H18Z21430   4.631  -0.189   8.731  1.8825  2.4716 -0.4378
  187SAPI   C1221431   1.793   2.351   6.418  1.0167  0.0299 -0.3664
  187SAPI    H221432   1.841   2.303   6.506 -0.0381 -0.6488 -0.1541
  187SAPI    O221433   1.650   2.343   6.444  0.0431 -0.7345  0.7170
  187SAPI   HO221434   1.628   2.253   6.420  1.2645 -0.4639 -1.6099
  187SAPI   C1321435   1.837   2.492   6.408  0.2444  0.3481  0.1254
  187SAPI    H321436   1.947   2.495   6.400  0.2524 -0.6527 -0.2573
  187SAPI    O321437   1.800   2.575   6.518  0.5886  0.8885 -0.2820
  187SAPI   HO321438   1.707   2.566   6.537 -0.0368  1.0496 -3.1505
  187SAPI   C1421439   1.789   2.555   6.277 -0.8742  0.2298 -0.6190
  187SAPI    H421440   1.679   2.569   6.276 -1.0905 -1.3804 -2.0229
  187SAPI    O421441   1.849   2.687   6.268  0.9672  0.3063 -0.2367
  187SAPI   HO421442   1.807   2.743   6.335 -1.0756 -1.1999 -0.2283
  187SAPI   C1521443   1.847   2.473   6.160 -0.2937  0.1331 -0.2357
  187SAPI    H521444   1.958   2.479   6.166 -0.3320 -0.7190  1.6398
  187SAPI    O521445   1.822   2.536   6.031 -0.1067 -0.1562  0.6071
  187SAPI   HO521446   1.737   2.581   6.034  0.2022  0.4168  0.9351
  187SAPI   C1621447   1.814   2.324   6.175  0.5013 -0.4960  0.1876
  187SAPI    H621448   1.704   2.310   6.164  0.6201 -1.6422  0.3940
  187SAPI    O621449   1.871   2.244   6.068  0.3112 -0.6315 -0.7273
  187SAPI   HO621450   1.848   2.153   6.090  0.0991 -0.9522 -2.2134
  187SAPI   C1121451   1.850   2.263   6.307  0.1112  0.1924 -0.0079
  187SAPI    H121452   1.961   2.268   6.311  0.1235  0.3551 -0.5810
  187SAPI     P21453   1.901   2.016   6.392  0.1577 -0.2441 -0.2820
  187SAPI   O1321454   2.039   2.059   6.380 -0.1519  0.3330 -0.7558
  187SAPI   O1421455   1.872   1.880   6.336 -0.0957  0.1026  0.0485
  187SAPI   O1221456   1.795   2.124   6.320 -0.2323 -0.8547  1.0759
  187SAPI   O1121457   1.857   2.031   6.541 -0.7430 -0.1405  0.0142
  187SAPI    C121458   1.729   1.983   6.587  0.8441 -0.3778 -0.1712
  187SAPI    HA21459   1.638   2.028   6.541  0.4626 -0.6260  0.3413
  187SAPI    HB21460   1.726   1.872   6.586  0.2238 -0.4138  2.9586
  187SAPI    C221461   1.717   2.009   6.748 -0.0813  0.5084 -0.1427
  187SAPI    HS21462   1.629   1.952   6.784 -0.5894  1.5651  0.3069
  187SAPI   O2121463   1.689   2.148   6.772 -0.3022 -0.2825  0.6713
  187SAPI   C2121464   1.572   2.194   6.730 -0.4479 -0.8302  0.2293
  187SAPI   O2221465   1.492   2.129   6.669  0.2293 -0.2817 -0.4624
  187SAPI   C2221466   1.541   2.337   6.779  0.8763 -0.5103  0.0611
  187SAPI   H2R21467   1.639   2.367   6.823 -0.4953  2.6670  1.1155
  187SAPI   H2S21468   1.526   2.409   6.695 -0.8133 -0.9408 -0.0179
  187SAPI    C321469   1.845   1.965   6.833 -0.1633 -0.1542  1.1538
  187SAPI    HX21470   1.936   2.007   6.786 -0.7999 -0.5123 -0.4609
  187SAPI    HY21471   1.851   1.855   6.817  4.0062  0.4401 -2.2232
  187SAPI   O3121472   1.828   1.996   6.972 -0.1942  0.0157  0.0461
  187SAPI   C3121473   1.754   1.921   7.050  0.8790 -0.1586 -0.3067
  187SAPI   O3221474   1.681   1.828   7.012 -0.2195  0.1173 -0.0375
  187SAPI   C3221475   1.755   1.967   7.197  0.4295 -0.2831 -0.5764
  187SAPI   H2X21476   1.731   2.075   7.207  0.8219 -0.0603 -1.8623
  187SAPI   H2Y21477   1.853   1.946   7.245 -0.2676  0.6752  1.3079
  187SAPI   C2321478   1.433   2.354   6.890 -0.4579 -0.7660  0.3852
  187SAPI   H3R21479   1.343   2.337   6.828 -0.4572 -0.8088  0.3962
  187SAPI   H3S21480   1.439   2.458   6.928 -1.1243 -0.6619  0.2095
  187SAPI   C2421481   1.442   2.255   7.002  0.2773 -0.0796  0.0686
  187SAPI   H4R21482   1.541   2.265   7.052  0.4747 -0.4018 -0.2588
  187SAPI   H4S21483   1.434   2.148   6.972  1.6100 -0.2145  0.1522
  187SAPI   C2521484   1.321   2.279   7.088 -1.0407 -0.1058 -0.6441
  187SAPI   H5R21485   1.228   2.296   7.032 -0.3487  0.0573 -1.7489
  187SAPI   C2621486   1.322   2.288   7.222  0.2298 -0.2069 -0.3310
  187SAPI   H6R21487   1.231   2.306   7.280  0.6183  2.0480 -0.3797
  187SAPI   C2721488   1.451   2.279   7.307  0.3025 -0.3848  0.2797
  187SAPI   H7R21489   1.509   2.194   7.265  0.6744  1.1997 -2.5468
  187SAPI   H7S21490   1.417   2.257   7.410 -1.1577  1.7776  0.2921
  187SAPI   C2821491   1.541   2.399   7.314  0.6016 -0.2895  0.0806
  187SAPI   H8R21492   1.532   2.476   7.235 -0.8948 -1.0031 -0.4560
  187SAPI   C2921493   1.644   2.418   7.407  0.3159  0.0320 -0.3888
  187SAPI   H9R21494   1.706   2.508   7.392  1.6779 -0.7442  0.4112
  187SAPI  C21021495   1.697   2.308   7.511  0.2250  0.6540  0.4942
  187SAPI  H10R21496   1.804   2.330   7.530  0.2926  0.5499  0.2303
  187SAPI  H10S21497   1.688   2.210   7.460  1.1724  0.9435 -0.2482
  187SAPI  C21121498   1.615   2.320   7.640 -0.4263  0.0237 -0.0507
  187SAPI  H11R21499   1.518   2.268   7.637 -0.2566 -0.2412 -1.5453
  187SAPI  C21221500   1.651   2.387   7.747 -0.0438  0.0987 -0.1216
  187SAPI  H12R21501   1.579   2.387   7.831 -1.2354  1.5372 -1.1075
  187SAPI  C21321502   1.769   2.477   7.768  0.1777 -0.3387  0.0753
  187SAPI  H13R21503   1.736   2.583   7.759 -0.6704 -0.5657  0.4151
  187SAPI  H13S21504   1.835   2.460   7.681 -0.5515 -1.1324 -0.3280
  187SAPI  C21421505   1.850   2.443   7.892  0.1096 -0.7644  0.3011
  187SAPI  H14R21506   1.877   2.336   7.896 -1.1223 -1.1687 -1.6658
  187SAPI  C21521507   1.897   2.542   7.969 -0.4112 -0.0706 -0.3319
  187SAPI  H15R21508   1.957   2.526   8.060  0.1310  2.9710 -0.0969
  187SAPI  C21621509   1.868   2.692   7.943  0.0698 -0.0516 -0.3985
  187SAPI  H16R21510   1.761   2.715   7.926  0.0296  0.0812  0.0198
  187SAPI  H16S21511   1.923   2.701   7.847  0.9369  1.4808  0.2251
  187SAPI  C21721512   1.919   2.783   8.057 -0.3407  0.0753 -0.3871
  187SAPI  H17R21513   1.921   2.886   8.015 -0.4169  0.6178  0.9314
  187SAPI  H17S21514   2.021   2.751   8.087 -0.4499 -0.9999 -1.1235
  187SAPI  C21821515   1.828   2.768   8.185  0.5252  0.5832 -0.0529
  187SAPI  H18R21516   1.842   2.668   8.230  1.1167  0.0477 -1.3904
  187SAPI  H18S21517   1.728   2.759   8.136  1.3653  1.4580 -1.9882
  187SAPI  C21921518   1.836   2.883   8.281  0.0204  0.8627  0.0515
  187SAPI  H19R21519   1.787   2.862   8.379  3.7395 -1.3468  1.5378
  187SAPI  H19S21520   1.792   2.974   8.237  0.0506  0.0060 -1.7898
  187SAPI  C22021521   1.985   2.907   8.327 -0.4309 -0.0078 -0.5680
  187SAPI  H20R21522   1.957   2.949   8.426 -0.3538 -0.2688 -0.4365
  187SAPI  H20S21523   2.040   2.964   8.249  2.5265 -1.2745  0.5393
  187SAPI  H20T21524   2.039   2.812   8.346 -0.3483  0.3429  0.9668
  187SAPI   C3321525   1.642   1.888   7.268 -0.5200  0.3095  0.5690
  187SAPI   H3X21526   1.688   1.787   7.281  1.6859  1.1917 -0.1041
  187SAPI   H3Y21527   1.549   1.894   7.208 -0.4244 -1.8743  0.1585
  187SAPI   C3421528   1.616   1.930   7.414 -0.4503 -0.0118 -0.2035
  187SAPI   H4X21529   1.574   2.032   7.410  1.0305  0.5675 -1.6388
  187SAPI   H4Y21530   1.710   1.928   7.473 -0.6854 -1.9703  0.1609
  187SAPI   C3521531   1.507   1.848   7.484  0.6494  0.3143  0.3875
  187SAPI   H5X21532   1.560   1.755   7.513 -0.0010  0.2443  1.3810
  187SAPI   H5Y21533   1.424   1.822   7.415  0.6202  0.9392  0.1880
  187SAPI   C3621534   1.452   1.900   7.619 -0.0871  0.3986  0.4189
  187SAPI   H6X21535   1.400   1.816   7.670 -2.4134  1.1462 -0.6364
  187SAPI   H6Y21536   1.368   1.971   7.604 -1.0747 -0.4926  1.5893
  187SAPI   C3721537   1.558   1.950   7.719 -0.4244  0.0337 -0.6761
  187SAPI   H7X21538   1.605   2.035   7.664 -0.3434 -1.0435 -2.3089
  187SAPI   H7Y21539   1.630   1.867   7.727  0.2559  0.8784  2.4862
  187SAPI   C3821540   1.507   1.997   7.858  0.1326  0.9426 -0.4392
  187SAPI   H8X21541   1.475   1.915   7.926  0.7540  0.7096 -0.4168
  187SAPI   H8Y21542   1.421   2.065   7.841 -1.7587 -1.1983  0.3390
  187SAPI   C3921543   1.622   2.063   7.936  0.6943 -0.1895 -0.3118
  187SAPI   H9X21544   1.650   2.163   7.898  2.1815 -0.4539  0.0456
  187SAPI   H9Y21545   1.704   1.994   7.907 -1.0464 -1.5138 -2.2091
  187SAPI  C31021546   1.597   2.068   8.086 -0.0245  0.7109 -0.0237
  187SAPI  H10X21547   1.497   2.101   8.119  0.2265  1.3445  0.1093
  187SAPI  H10Y21548   1.667   2.134   8.142 -0.6162  0.7268  0.7075
  187SAPI  C31121549   1.634   1.937   8.155 -0.1678  0.0146  0.4127
  187SAPI  H11X21550   1.734   1.914   8.113 -0.5017  1.8065 -1.4241
  187SAPI  H11Y21551   1.572   1.852   8.121  1.2467 -1.4191  1.3135
  187SAPI  C31221552   1.668   1.937   8.310  0.7936  0.5520  0.5227
  187SAPI  H12X21553   1.729   2.028   8.328 -1.2804  1.7790  1.4616
  187SAPI  H12Y21554   1.730   1.850   8.342  2.9062  1.1883 -1.6659
  187SAPI  C31321555   1.541   1.938   8.399  0.2891  0.2719  0.1930
  187SAPI  H13X21556   1.547   1.875   8.490 -1.4014 -0.0320  0.1169
  187SAPI  H13Y21557   1.462   1.883   8.342  1.8618 -0.9207 -0.8907
  187SAPI  C31421558   1.473   2.070   8.440  0.4943 -0.4049 -0.6409
  187SAPI  H14X21559   1.477   2.127   8.345  0.6431 -1.5139 -1.3131
  187SAPI  H14Y21560   1.521   2.119   8.528 -0.9837  3.2291 -1.7591
  187SAPI  C31521561   1.322   2.051   8.469  0.9794 -0.3151 -0.2729
  187SAPI  H15X21562   1.274   2.009   8.378  0.6726 -0.6100  0.0234
  187SAPI  H15Y21563   1.274   2.151   8.479  0.2832 -0.6440 -0.3258
  187SAPI  C31621564   1.290   1.951   8.578 -0.2334  0.5175  0.3873
  187SAPI  H16X21565   1.313   1.851   8.534 -0.0959  1.2093 -1.1531
  187SAPI  H16Y21566   1.181   1.950   8.602 -0.3428 -3.1602  0.0638
  187SAPI  C31721567   1.367   1.963   8.714  0.9800  0.3835  0.5782
  187SAPI  H17X21568   1.358   2.070   8.745 -2.0365  0.4400 -0.2916
  187SAPI  H17Y21569   1.477   1.952   8.707  0.9903 -0.8901  2.3915
  187SAPI  C31821570   1.293   1.871   8.811 -0.2133  0.1723  0.4726
  187SAPI  H18X21571   1.185   1.895   8.823 -0.2010 -0.7628  2.8112
  187SAPI  H18Y21572   1.347   1.855   8.907  0.4916  1.2180  0.2585
  187SAPI  H18Z21573   1.282   1.776   8.755  1.7869  0.9434 -1.2638
  188SAPI   C1221574   2.846   5.744   6.393 -0.8262  0.1031 -0.1177
  188SAPI    H221575   2.785   5.709   6.479  1.5567  1.0441  2.0333
  188SAPI    O221576   2.760   5.750   6.277  0.4016  0.3660  0.0400
  188SAPI   HO221577   2.698   5.678   6.291 -0.1720  0.7185 -0.6740
  188SAPI   C1321578   2.909   5.874   6.428 -0.2000 -0.4456  0.1399
  188SAPI    H321579   2.974   5.861   6.517  0.2816 -1.2196 -0.3232
  188SAPI    O321580   2.795   5.960   6.459  0.1594 -0.2728 -0.1766
  188SAPI   HO321581   2.744   5.976   6.379 -1.0829 -0.4858  0.5606
  188SAPI   C1421582   2.990   5.927   6.310 -0.0790  0.8641 -0.1157
  188SAPI    H421583   2.916   5.944   6.228 -1.5725 -0.5409  0.8897
  188SAPI    O421584   3.048   6.054   6.345  0.4737  0.5613  0.6262
  188SAPI   HO421585   2.973   6.113   6.350  0.4468  0.8384 -2.0056
  188SAPI   C1521586   3.094   5.825   6.262 -0.5658 -0.6568  0.0030
  188SAPI    H521587   3.166   5.809   6.345  0.2245 -0.3608 -0.6227
  188SAPI    O521588   3.162   5.867   6.147  0.2004  0.3736  0.2248
  188SAPI   HO521589   3.252   5.880   6.177 -0.1470 -2.0577  2.4776
  188SAPI   C1621590   3.029   5.691   6.231  0.5485 -0.3040  0.0635
  188SAPI    H621591   2.972   5.695   6.135  0.2022 -1.6392  0.2105
  188SAPI    O621592   3.130   5.594   6.201 -0.2048 -0.4099  0.2678
  188SAPI   HO621593   3.101   5.516   6.248 -2.8318  0.7810  0.6836
  188SAPI   C1121594   2.952   5.644   6.360  0.4445  0.3237 -0.1076
  188SAPI    H121595   3.032   5.642   6.437  0.7101  1.2797 -0.3482
  188SAPI     P21596   2.963   5.380   6.429  0.2123 -0.7374  0.0173
  188SAPI   O1321597   3.108   5.386   6.408 -0.1696  0.1908  0.0554
  188SAPI   O1421598   2.897   5.253   6.384 -0.4263  0.2110 -0.3705
  188SAPI   O1221599   2.899   5.508   6.346 -0.6191 -0.0322  0.1469
  188SAPI   O1121600   2.936   5.411   6.587 -0.1512 -0.2152  0.3835
  188SAPI    C121601   2.799   5.406   6.633 -0.1691 -0.5441  0.1571
  188SAPI    HA21602   2.766   5.510   6.654 -0.1537 -0.5992  0.4574
  188SAPI    HB21603   2.730   5.363   6.558  0.9005  0.3539 -1.3600
  188SAPI    C221604   2.777   5.316   6.755 -0.1392 -0.1048  0.0960
  188SAPI    HS21605   2.669   5.304   6.779  0.3294 -1.5038  1.5682
  188SAPI   O2121606   2.848   5.365   6.873  0.3042 -0.6096  0.1009
  188SAPI   C2121607   2.798   5.466   6.928  0.1808  0.0722 -0.4879
  188SAPI   O2221608   2.699   5.527   6.895  0.2857 -0.3025 -0.0383
  188SAPI   C2221609   2.883   5.488   7.053  0.6357 -0.4737 -0.6259
  188SAPI   H2R21610   2.910   5.391   7.101  1.4613 -0.6433 -1.4116
  188SAPI   H2S21611   2.981   5.535   7.031  0.7905 -0.1587  0.6991
  188SAPI    C321612   2.822   5.171   6.711 -0.5601  0.0475 -0.1212
  188SAPI    HX21613   2.915   5.181   6.651 -0.0586  1.2936  0.8485
  188SAPI    HY21614   2.754   5.124   6.636 -0.7771 -0.4391  0.3812
  188SAPI   O3121615   2.852   5.092   6.833  0.4184 -0.6403 -0.7025
  188SAPI   C3121616   2.740   5.058   6.894 -1.1209 -0.7073 -0.9475
  188SAPI   O3221617   2.628   5.071   6.845 -0.5643 -0.9254 -0.7320
  188SAPI   C3221618   2.778   4.986   7.028  0.0853 -1.3991 -0.5971
  188SAPI   H2X21619   2.887   4.967   7.024  0.3633 -0.2172  0.7094
  188SAPI   H2Y21620   2.722   4.891   7.043 -0.0346 -1.3840 -0.9489
  188SAPI   C2321621   2.815   5.591   7.153 -0.1251  0.0161  0.1018
  188SAPI   H3R21622   2.801   5.687   7.099 -1.3987 -0.2247 -0.0099
  188SAPI   H3S21623   2.887   5.607   7.236  0.4058  1.7548 -0.6605
  188SAPI   C2421624   2.681   5.548   7.219  0.9706 -0.0196  0.0889
  188SAPI   H4R21625   2.699   5.445   7.255 -2.1927  0.3090  2.8184
  188SAPI   H4S21626   2.603   5.529   7.142  0.4439  0.6432  0.4568
  188SAPI   C2521627   2.619   5.646   7.329 -0.5167  0.3518  0.1484
  188SAPI   H5R21628   2.613   5.747   7.287 -0.2386 -1.0847 -3.5299
  188SAPI   C2621629   2.584   5.608   7.450  0.9014 -0.5766  0.1259
  188SAPI   H6R21630   2.545   5.679   7.524 -2.8971 -1.8816 -0.5462
  188SAPI   C2721631   2.595   5.472   7.508 -0.1719 -0.3636 -0.3156
  188SAPI   H7R21632   2.597   5.391   7.431  0.7050 -0.7021  0.0644
  188SAPI   H7S21633   2.512   5.449   7.578 -0.5795  2.4586  0.1914
  188SAPI   C2821634   2.730   5.463   7.579 -0.4395  0.0266 -0.8789
  188SAPI   H8R21635   2.820   5.454   7.516 -1.4014  0.4799 -2.3444
  188SAPI   C2921636   2.741   5.478   7.716 -0.1794 -0.0998 -1.1875
  188SAPI   H9R21637   2.837   5.441   7.755 -0.5295 -0.1785 -0.3991
  188SAPI  C21021638   2.620   5.496   7.813 -0.4825 -0.2042  0.2817
  188SAPI  H10R21639   2.556   5.406   7.820  0.3084 -1.0662 -2.8303
  188SAPI  H10S21640   2.555   5.579   7.780 -0.1891  0.7382  1.9900
  188SAPI  C21121641   2.660   5.541   7.948  0.4033  0.0460  0.5622
  188SAPI  H11R21642   2.714   5.636   7.936 -0.1734 -0.0248 -3.3040
  188SAPI  C21221643   2.641   5.491   8.066 -0.5294  0.4713  0.1224
  188SAPI  H12R21644   2.672   5.549   8.154 -0.3580 -0.4387  0.6762
  188SAPI  C21321645   2.580   5.362   8.108 -0.4136  0.5188  0.5063
  188SAPI  H13R21646   2.633   5.313   8.192 -0.7677 -1.1066 -0.1939
  188SAPI  H13S21647   2.588   5.294   8.020 -0.7622  0.3139  0.6335
  188SAPI  C21421648   2.432   5.366   8.138 -0.3927  1.1773  0.2851
  188SAPI  H14R21649   2.374   5.411   8.056 -0.3178 -0.5558 -0.7230
  188SAPI  C21521650   2.371   5.309   8.240  0.0051 -0.3478 -0.2345
  188SAPI  H15R21651   2.262   5.324   8.246  0.2293  0.8156  1.1815
  188SAPI  C21621652   2.444   5.225   8.340 -0.1188  0.1283  0.4935
  188SAPI  H16R21653   2.539   5.190   8.293 -0.0001 -0.1695  0.9498
  188SAPI  H16S21654   2.382   5.133   8.347  0.7647 -0.4665  0.5989
  188SAPI  C21721655   2.471   5.289   8.476  0.0804 -0.2107 -0.0803
  188SAPI  H17R21656   2.544   5.372   8.467  0.1041 -0.2868 -0.5606
  188SAPI  H17S21657   2.511   5.222   8.555  1.3277  1.2103  0.5216
  188SAPI  C21821658   2.355   5.366   8.542  0.6263  0.0698 -0.7963
  188SAPI  H18R21659   2.326   5.460   8.491 -0.6955  0.3351  0.3935
  188SAPI  H18S21660   2.392   5.386   8.645  1.1096 -2.1575 -0.4930
  188SAPI  C21921661   2.224   5.282   8.563 -0.5377 -0.1438  0.0547
  188SAPI  H19R21662   2.243   5.173   8.573 -1.0790 -0.0485  2.3940
  188SAPI  H19S21663   2.155   5.296   8.477  0.9279  2.4110 -0.7614
  188SAPI  C22021664   2.153   5.309   8.696 -0.6286  0.2612  0.0547
  188SAPI  H20R21665   2.125   5.416   8.695  0.8772  0.6632 -1.5931
  188SAPI  H20S21666   2.220   5.300   8.784 -0.8696  3.8230  0.6517
  188SAPI  H20T21667   2.062   5.247   8.707 -0.6839  0.6224  1.7028
  188SAPI   C3321668   2.755   5.073   7.157 -0.6500  0.0840 -0.0582
  188SAPI   H3X21669   2.647   5.099   7.166 -0.4116  1.6416 -1.4852
  188SAPI   H3Y21670   2.815   5.166   7.159 -0.8749  0.2403 -0.3228
  188SAPI   C3421671   2.793   4.997   7.288  0.5554  0.4188 -0.4065
  188SAPI   H4X21672   2.901   4.972   7.284  0.9542  1.5201  2.6293
  188SAPI   H4Y21673   2.741   4.899   7.299 -1.2676  1.6694  2.7326
  188SAPI   C3521674   2.765   5.083   7.413  0.4895 -0.1536 -0.0859
  188SAPI   H5X21675   2.658   5.109   7.418 -0.0203 -1.8911 -1.2412
  188SAPI   H5Y21676   2.815   5.181   7.395  1.8685 -0.5795  1.2863
  188SAPI   C3621677   2.804   5.005   7.544 -0.1179 -0.2245 -0.2773
  188SAPI   H6X21678   2.912   4.981   7.534  0.0346  1.0190 -1.8851
  188SAPI   H6Y21679   2.746   4.911   7.534 -2.5124  1.0883  0.9051
  188SAPI   C3721680   2.783   5.103   7.665  1.1701  0.1897  0.1030
  188SAPI   H7X21681   2.673   5.098   7.680  0.9866  2.1905 -0.5034
  188SAPI   H7Y21682   2.817   5.205   7.638  0.8494  0.1634 -0.3943
  188SAPI   C3821683   2.849   5.047   7.791  0.2484 -0.3746  0.5026
  188SAPI   H8X21684   2.956   5.070   7.772 -0.2633  0.8788 -1.0566
  188SAPI   H8Y21685   2.825   4.939   7.793 -3.2142  0.2981 -0.8920
  188SAPI   C3921686   2.811   5.119   7.921 -0.6179  0.4013 -0.0301
  188SAPI   H9X21687   2.702   5.099   7.925 -0.3498 -0.9094  1.6522
  188SAPI   H9Y21688   2.818   5.229   7.906  1.7122  0.1954 -0.7071
  188SAPI  C31021689   2.895   5.075   8.039  0.6393  0.3406  0.3168
  188SAPI  H10X21690   2.995   5.115   8.014  0.2346  0.9389 -0.3669
  188SAPI  H10Y21691   2.879   4.965   8.043  2.2578  0.0413 -1.0597
  188SAPI  C31121692   2.845   5.131   8.169  0.2661 -0.2241  0.2860
  188SAPI  H11X21693   2.744   5.088   8.184  0.0131  0.2808  0.0154
  188SAPI  H11Y21694   2.844   5.240   8.147 -0.1311 -0.4173 -0.7053
  188SAPI  C31221695   2.935   5.084   8.291 -0.6275  0.2131  0.0413
  188SAPI  H12X21696   3.039   5.118   8.274 -0.6983 -0.0911 -1.0781
  188SAPI  H12Y21697   2.939   4.974   8.311  0.4049  0.2416 -0.0027
  188SAPI  C31321698   2.881   5.147   8.422 -0.2645 -0.6290  0.0571
  188SAPI  H13X21699   2.949   5.117   8.505 -0.1141 -1.3806 -0.3322
  188SAPI  H13Y21700   2.776   5.114   8.437 -0.6940  0.4922 -0.4096
  188SAPI  C31421701   2.880   5.299   8.421 -0.5571 -0.7595 -0.2951
  188SAPI  H14X21702   2.784   5.336   8.378  0.4337  0.4323 -1.5286
  188SAPI  H14Y21703   2.961   5.342   8.358 -0.0684 -1.1625  0.0546
  188SAPI  C31521704   2.908   5.361   8.556 -0.1984  0.5164  0.4843
  188SAPI  H15X21705   3.004   5.323   8.595  2.0119  2.4282 -2.9057
  188SAPI  H15Y21706   2.831   5.340   8.634 -1.4887  0.3296 -0.8047
  188SAPI  C31621707   2.911   5.510   8.529  0.2170  0.0614 -1.1280
  188SAPI  H16X21708   2.817   5.541   8.479  0.8063  1.8042 -1.1738
  188SAPI  H16Y21709   2.999   5.541   8.469  0.2162 -1.1346 -1.7710
  188SAPI  C31721710   2.918   5.600   8.656 -0.1050 -0.0560  0.1826
  188SAPI  H17X21711   2.843   5.560   8.728 -0.4398  2.5905  1.3832
  188SAPI  H17Y21712   2.874   5.699   8.631  1.0060  0.2977 -0.4040
  188SAPI  C31821713   3.052   5.623   8.714 -0.9235 -0.0591 -0.3091
  188SAPI  H18X21714   3.125   5.539   8.711 -1.3962 -0.6243  2.6217
  188SAPI  H18Y21715   3.026   5.652   8.818 -0.9679 -0.3209 -0.2487
  188SAPI  H18Z21716   3.110   5.706   8.669 -1.7889  1.7857  1.9103
  189POPC     N21717   1.852   6.471  10.816  0.8357 -0.0531  0.6697
  189POPC   C1221718   1.994   6.430  10.798  0.3111  0.3451  0.3758
  189POPC  H12A21719   2.036   6.501  10.728 -0.1331 -0.5880 -0.8364
  189POPC  H12B21720   1.988   6.339  10.741  1.9640 -0.1758  1.0092
  189POPC   C1321721   1.769   6.449  10.690  0.5442  0.4850  0.1624
  189POPC  H13A21722   1.669   6.489  10.699 -0.9182 -3.0137  0.4347
  189POPC  H13B21723   1.817   6.492  10.604  0.9335 -0.1350  0.0625
  189POPC  H13C21724   1.762   6.342  10.676 -1.6840  0.6619 -0.2667
  189POPC   C1421725   1.791   6.391  10.923  0.3426 -0.5595 -0.0933
  189POPC  H14A21726   1.864   6.398  11.002 -1.5294  1.8126  1.4907
  189POPC  H14B21727   1.692   6.425  10.950  0.0137 -0.0533 -1.8700
  189POPC  H14C21728   1.780   6.287  10.896  1.9265 -0.6407 -0.4389
  189POPC   C1521729   1.841   6.612  10.845  0.5701  0.8028  0.1212
  189POPC  H15A21730   1.738   6.636  10.865 -0.0292 -1.1120 -0.5795
  189POPC  H15B21731   1.898   6.673  10.776  0.1157  1.0289 -0.0503
  189POPC  H15C21732   1.892   6.633  10.938  0.6639 -1.7959  0.6931
  189POPC   C1121733   2.086   6.408  10.922  0.4545 -0.8010 -0.3466
  189POPC  H11A21734   2.186   6.363  10.905  1.2008 -0.3577  2.6857
  189POPC  H11B21735   2.035   6.327  10.979 -1.2261 -1.3880 -2.5722
  189POPC     P21736   2.164   6.659  10.949  0.0899  0.0836  0.6574
  189POPC   O1321737   2.285   6.661  11.035 -0.4785 -0.2441 -0.6365
  189POPC   O1421738   2.066   6.767  10.971 -0.7483 -0.6660  0.1639
  189POPC   O1221739   2.090   6.527  11.006  0.7054  0.0610  0.4052
  189POPC   O1121740   2.195   6.627  10.802 -0.2164  0.1827 -0.3478
  189POPC    C121741   2.274   6.722  10.738  0.0603 -0.1694 -0.9279
  189POPC    HA21742   2.380   6.702  10.764  0.8768  1.8824 -2.5676
  189POPC    HB21743   2.247   6.827  10.764 -0.3480 -0.5956  0.4344
  189POPC    C221744   2.264   6.706  10.585  0.4154 -0.2178  0.0696
  189POPC    HS21745   2.157   6.727  10.560  0.7710  1.7200  0.0823
  189POPC   O2121746   2.303   6.580  10.541  0.2620  0.1479  0.0312
  189POPC   C2121747   2.202   6.495  10.516 -0.5944  0.7889  0.3216
  189POPC   O2221748   2.083   6.515  10.522 -0.3010  0.1894 -0.4743
  189POPC   C2221749   2.258   6.359  10.475 -0.1942  0.3512  0.2175
  189POPC   H2R21750   2.170   6.291  10.476 -1.0085  1.3842  2.6725
  189POPC   H2S21751   2.334   6.325  10.548 -0.2748  0.3375  0.2959
  189POPC    C321752   2.356   6.806  10.519 -0.2686 -0.2609 -0.7831
  189POPC    HX21753   2.456   6.799  10.567 -0.7711  1.7363  0.5717
  189POPC    HY21754   2.318   6.905  10.553  0.4507  0.5404 -2.2715
  189POPC   O3121755   2.359   6.803  10.376  0.2926 -0.2273 -0.0871
  189POPC   C3121756   2.467   6.757  10.319  0.6819 -0.2674  1.0596
  189POPC   O3221757   2.572   6.731  10.370 -0.4028  0.6237  0.1804
  189POPC   C3221758   2.445   6.743  10.167  0.0289 -1.5853  0.5246
  189POPC   H2X21759   2.446   6.845  10.124 -1.0469 -2.3795 -1.4357
  189POPC   H2Y21760   2.352   6.686  10.149 -1.5913  1.1120  0.1573
  189POPC   C2321761   2.324   6.353  10.332  0.2008  0.2103 -0.1422
  189POPC   H3R21762   2.341   6.243  10.329 -2.3410 -0.2690  1.5580
  189POPC   H3S21763   2.410   6.423  10.335  0.2296  0.1423  2.2202
  189POPC   C2421764   2.227   6.368  10.221  0.2399 -0.2945  0.7493
  189POPC   H4R21765   2.189   6.472  10.213  2.2495  0.3703 -0.3719
  189POPC   H4S21766   2.134   6.311  10.239 -0.1833 -1.1961 -3.8266
  189POPC   C2521767   2.295   6.332  10.089 -0.0003 -0.6405 -0.0877
  189POPC   H5R21768   2.342   6.232  10.100  0.8583 -0.0302  1.9027
  189POPC   H5S21769   2.385   6.393  10.069 -2.3539  2.8386 -0.4013
  189POPC   C2621770   2.196   6.343   9.962 -0.1910  0.1970 -0.5240
  189POPC   H6R21771   2.163   6.448   9.950  0.1892  0.2359 -1.2473
  189POPC   H6S21772   2.100   6.289   9.978 -0.5760  1.2542  0.8385
  189POPC   C2721773   2.268   6.308   9.829  0.2651  0.1365  0.4793
  189POPC   H7R21774   2.195   6.258   9.761 -0.9433  0.7046  1.3588
  189POPC   H7S21775   2.339   6.226   9.855  1.5412  1.6569  1.8596
  189POPC   C2821776   2.341   6.425   9.749  0.2564  0.6170  0.5395
  189POPC   H8R21777   2.411   6.377   9.678  1.3473  2.1567  0.5638
  189POPC   H8S21778   2.412   6.480   9.815  0.1252  2.8548 -1.1262
  189POPC   C2921779   2.250   6.533   9.690  0.4795  0.0236  0.2738
  189POPC   H9121780   2.190   6.575   9.772  0.8397  2.0203 -0.4523
  189POPC  C21021781   2.228   6.573   9.562  0.9660  0.3983 -1.2104
  189POPC  H10121782   2.153   6.649   9.536 -0.6162 -0.6487  0.2081
  189POPC  C21121783   2.304   6.514   9.446 -0.2386  0.0593  1.2312
  189POPC  H11R21784   2.255   6.419   9.416 -1.1632  0.7626  0.4775
  189POPC  H11S21785   2.412   6.501   9.468  0.2516  0.5605 -0.7368
  189POPC  C21221786   2.297   6.616   9.328  0.1976 -0.2461 -1.1270
  189POPC  H12R21787   2.310   6.717   9.373 -1.5870 -0.8343  0.8176
  189POPC  H12S21788   2.201   6.595   9.276  0.3638 -0.9524 -1.1448
  189POPC  C21321789   2.406   6.588   9.212 -0.2058  0.8443 -0.1065
  189POPC  H13R21790   2.409   6.477   9.203 -1.5611  0.8997 -1.3896
  189POPC  H13S21791   2.500   6.624   9.259 -0.3597  0.1915  0.7319
  189POPC  C21421792   2.395   6.673   9.092 -0.5340 -0.5218 -0.3786
  189POPC  H14R21793   2.402   6.775   9.136 -0.0325 -0.2223 -1.1459
  189POPC  H14S21794   2.295   6.662   9.045 -0.2470 -0.2999 -1.0361
  189POPC  C21521795   2.515   6.652   8.997  0.2613  0.0711 -0.0793
  189POPC  H15R21796   2.608   6.663   9.056 -1.0835 -1.2828  2.4234
  189POPC  H15S21797   2.524   6.738   8.928  1.0664 -1.2541 -1.6446
  189POPC  C21621798   2.499   6.521   8.914 -0.2772  0.2239  0.3757
  189POPC  H16R21799   2.405   6.527   8.856  0.6897  0.1268 -1.2297
  189POPC  H16S21800   2.490   6.428   8.975  1.3314  0.5477  1.1425
  189POPC  C21721801   2.596   6.504   8.794  0.0092 -0.2181 -0.2777
  189POPC  H17R21802   2.702   6.494   8.828 -0.3118 -2.2654  0.2284
  189POPC  H17S21803   2.582   6.598   8.738 -1.7511 -1.0462 -1.2759
  189POPC  C21821804   2.559   6.394   8.695 -0.1318  0.0586  0.1014
  189POPC  H18R21805   2.563   6.297   8.750  0.0333  0.8795  1.5617
  189POPC  H18S21806   2.631   6.396   8.610  0.7310  1.1141  0.8422
  189POPC  H18T21807   2.453   6.421   8.677  0.2715  2.1625  0.7113
  189POPC   C3321808   2.566   6.666  10.093 -0.3687 -0.1944 -0.9585
  189POPC   H3X21809   2.563   6.556  10.111  4.3129 -0.0108  1.5587
  189POPC   H3Y21810   2.666   6.694  10.133 -0.9731 -0.8054  1.0775
  189POPC   C3421811   2.537   6.680   9.943  0.0351  0.0687 -0.1419
  189POPC   H4X21812   2.427   6.694   9.934  0.2975  1.2316 -1.8891
  189POPC   H4Y21813   2.568   6.583   9.900 -0.9873 -0.8153  1.0715
  189POPC   C3521814   2.619   6.795   9.882  0.1819  0.2032 -0.6431
  189POPC   H5X21815   2.725   6.773   9.908 -0.6685 -1.5873  1.5700
  189POPC   H5Y21816   2.596   6.895   9.925 -1.6902  0.3522 -1.9585
  189POPC   C3621817   2.612   6.806   9.725 -0.5295  0.0536  0.4107
  189POPC   H6X21818   2.683   6.887   9.696  0.5597 -0.0990  2.5255
  189POPC   H6Y21819   2.514   6.854   9.702 -0.9103 -0.8084  0.2262
  189POPC   C3721820   2.634   6.682   9.643 -0.8006  0.3723 -0.1588
  189POPC   H7X21821   2.557   6.602   9.652  0.8208 -1.0728  1.2392
  189POPC   H7Y21822   2.733   6.632   9.657 -1.1832 -1.3246 -3.0004
  189POPC   C3821823   2.616   6.707   9.497  0.3814  0.0674 -0.1752
  189POPC   H8X21824   2.507   6.723   9.484  0.2498 -2.1419 -1.9778
  189POPC   H8Y21825   2.640   6.613   9.443  0.5724 -0.9555  1.6581
  189POPC   C3921826   2.693   6.829   9.447  0.4269 -0.3806 -0.4306
  189POPC   H9X21827   2.800   6.816   9.472  0.3281 -1.6924 -0.6540
  189POPC   H9Y21828   2.648   6.920   9.491  1.4760  0.2623 -0.6667
  189POPC  C31021829   2.683   6.860   9.293  0.3292  0.1309 -0.6048
  189POPC  H10X21830   2.580   6.879   9.255 -0.4679 -2.2187  0.3028
  189POPC  H10Y21831   2.719   6.774   9.233  1.2410  0.3155 -0.3224
  189POPC  C31121832   2.783   6.970   9.250  0.0010  0.4009  0.0721
  189POPC  H11X21833   2.887   6.940   9.276  0.0937  0.7340  0.0947
  189POPC  H11Y21834   2.766   7.054   9.321  1.8145  2.5314 -1.9163
  189POPC  C31221835   2.786   7.018   9.104 -0.2478 -0.4637 -0.4623
  189POPC  H12X21836   2.847   7.110   9.112 -1.4014  0.1018  2.4069
  189POPC  H12Y21837   2.682   7.037   9.072  0.1896 -1.6010 -2.6510
  189POPC  C31321838   2.843   6.919   9.003  0.0660  0.2165 -0.0034
  189POPC  H13X21839   2.774   6.832   8.989  0.5946 -0.5816  2.1780
  189POPC  H13Y21840   2.946   6.895   9.037  0.8795  4.3511  0.6547
  189POPC  C31421841   2.858   6.980   8.867 -0.3576 -0.7698 -0.0523
  189POPC  H14X21842   2.924   7.068   8.884  0.7287 -1.6161  0.1525
  189POPC  H14Y21843   2.755   7.016   8.844  0.6358  1.4577 -1.1919
  189POPC  C31521844   2.918   6.896   8.753 -0.0933 -0.3798  0.3897
  189POPC  H15X21845   3.006   6.837   8.787 -1.3799 -2.8801 -0.4606
  189POPC  H15Y21846   2.939   6.957   8.663 -0.3120  0.2649  0.7729
  189POPC  C31621847   2.821   6.789   8.702  0.7051 -0.3907 -0.1278
  189POPC  H16X21848   2.730   6.838   8.662  0.4825 -0.8233 -0.1598
  189POPC  H16Y21849   2.782   6.731   8.789 -1.9928  1.8191  0.2185
  189POPC  H16Z21850   2.861   6.709   8.636 -1.8727 -1.4720 -0.4548
  190POPC     N21851   5.010   3.141  11.139 -0.5201 -0.1852  0.9168
  190POPC   C1221852   4.947   3.003  11.172  0.0511  0.4550  0.9812
  190POPC  H12A21853   4.842   3.012  11.195 -0.3603 -2.0182  0.1563
  190POPC  H12B21854   4.997   2.965  11.260  0.4673 -0.0330  0.5391
  190POPC   C1321855   5.157   3.126  11.138 -0.5758  0.1548  0.3465
  190POPC  H13A21856   5.195   3.073  11.223 -0.1421 -1.2498 -0.7124
  190POPC  H13B21857   5.187   3.061  11.058  1.0043 -0.6435  1.5841
  190POPC  H13C21858   5.212   3.217  11.119 -0.1821  0.0918  1.1791
  190POPC   C1421859   4.957   3.195  11.005 -0.1450 -0.3239  0.3922
  190POPC  H14A21860   4.970   3.113  10.936 -1.2991 -0.9066  0.8515
  190POPC  H14B21861   4.850   3.198  11.019  0.0548  3.0619  1.7544
  190POPC  H14C21862   4.997   3.290  10.972 -0.5759  0.3339  1.7419
  190POPC   C1521863   4.978   3.240  11.248  0.0712 -0.6487 -0.0032
  190POPC  H15A21864   4.872   3.253  11.263  0.0533  1.3633 -1.6543
  190POPC  H15B21865   5.031   3.329  11.220 -2.0672  1.1812  1.5847
  190POPC  H15C21866   5.020   3.205  11.342  1.1700 -0.6133 -0.4718
  190POPC   C1121867   4.970   2.890  11.069 -0.0742  0.4097  0.2323
  190POPC  H11A21868   4.926   2.801  11.119  1.9008 -0.5349  0.3046
  190POPC  H11B21869   5.076   2.860  11.058 -0.2984 -0.5664  0.6606
  190POPC     P21870   4.770   2.849  10.902 -0.2057 -0.4120  0.2274
  190POPC   O1321871   4.666   2.931  10.967 -0.9475 -0.3223 -0.1075
  190POPC   O1421872   4.775   2.705  10.922  0.3898 -0.2898 -0.4697
  190POPC   O1221873   4.911   2.913  10.939  0.2657  0.3304  0.4600
  190POPC   O1121874   4.764   2.870  10.741  0.5993 -0.6463 -0.4506
  190POPC    C121875   4.814   2.990  10.683  0.1366  0.0505  0.1619
  190POPC    HA21876   4.924   2.982  10.666  0.2262 -0.2003  0.8505
  190POPC    HB21877   4.807   3.071  10.759  0.1854 -1.2699  1.5989
  190POPC    C221878   4.754   3.023  10.549 -0.1223 -0.2985  0.1269
  190POPC    HS21879   4.822   3.094  10.499 -1.0234  1.5740  1.5009
  190POPC   O2121880   4.615   3.055  10.560 -0.6491  0.1428 -0.2405
  190POPC   C2121881   4.602   3.175  10.607  0.2823 -0.4681 -0.2238
  190POPC   O2221882   4.689   3.257  10.627 -0.3713  0.5193 -0.4696
  190POPC   C2221883   4.453   3.201  10.627 -0.0283  0.4537 -0.3614
  190POPC   H2R21884   4.455   3.272  10.713 -2.6418  0.6247 -0.4148
  190POPC   H2S21885   4.400   3.110  10.663  1.9263 -0.3473  0.6257
  190POPC    C321886   4.776   2.893  10.461 -0.2870 -0.3561 -0.1565
  190POPC    HX21887   4.752   2.807  10.527  0.5038  0.2966  1.0074
  190POPC    HY21888   4.886   2.898  10.446 -0.1732 -4.3974 -1.1525
  190POPC   O3121889   4.706   2.893  10.332 -0.5431  0.3178  0.4003
  190POPC   C3121890   4.587   2.839  10.339  0.1126  0.8576 -0.9327
  190POPC   O3221891   4.529   2.795  10.439  0.0478 -0.0195  0.1290
  190POPC   C3221892   4.525   2.832  10.204 -0.6632 -0.5450 -0.2877
  190POPC   H2X21893   4.551   2.928  10.156 -0.7920 -0.7598 -0.7894
  190POPC   H2Y21894   4.418   2.862  10.214 -1.0296 -1.3203 -1.7469
  190POPC   C2321895   4.382   3.257  10.505 -0.1222 -0.9336  0.1774
  190POPC   H3R21896   4.411   3.362  10.483  0.0332 -1.3757 -1.7492
  190POPC   H3S21897   4.277   3.272  10.540  0.1108  0.3039  0.3636
  190POPC   C2421898   4.381   3.162  10.384  0.0922 -0.0129 -0.1648
  190POPC   H4R21899   4.337   3.066  10.421 -1.2484  1.2650  1.6230
  190POPC   H4S21900   4.483   3.148  10.343 -0.3390 -1.9067 -0.6752
  190POPC   C2521901   4.285   3.224  10.282 -0.2160 -0.0728 -0.3903
  190POPC   H5R21902   4.316   3.330  10.272 -0.5602  0.2462  1.7085
  190POPC   H5S21903   4.188   3.236  10.334 -0.5740  4.0563 -1.8608
  190POPC   C2621904   4.267   3.152  10.149  0.3417 -0.3608  0.2156
  190POPC   H6R21905   4.209   3.058  10.160 -4.1168  2.1455 -0.5065
  190POPC   H6S21906   4.368   3.126  10.111 -0.4457 -2.5318 -0.4683
  190POPC   C2721907   4.193   3.236  10.042  0.2572  0.3011  0.5559
  190POPC   H7R21908   4.254   3.326  10.016  1.7451 -0.8089  0.1306
  190POPC   H7S21909   4.093   3.262  10.082  0.4640 -0.9523  1.9208
  190POPC   C2821910   4.169   3.154   9.914  0.7945 -0.0159  0.5081
  190POPC   H8R21911   4.096   3.076   9.945  1.8220 -1.0595  0.3785
  190POPC   H8S21912   4.261   3.098   9.886  0.7171 -0.2820  0.7803
  190POPC   C2921913   4.115   3.233   9.802  0.0089 -0.4070 -0.0638
  190POPC   H9121914   4.020   3.285   9.826  1.2985  2.1085 -0.2875
  190POPC  C21021915   4.170   3.248   9.682  0.5416  0.6964  0.0165
  190POPC  H10121916   4.121   3.307   9.603  1.9138  2.7496  0.6946
  190POPC  C21121917   4.305   3.190   9.640  0.2380 -0.6149  0.0692
  190POPC  H11R21918   4.379   3.175   9.722  0.7347  1.5158  0.0384
  190POPC  H11S21919   4.344   3.262   9.565 -3.9754  0.5345 -1.1618
  190POPC  C21221920   4.298   3.053   9.564 -0.3249  0.5637 -0.2370
  190POPC  H12R21921   4.249   2.983   9.635 -1.0609  2.3923  1.1002
  190POPC  H12S21922   4.403   3.022   9.550 -0.0601  0.8585  1.0544
  190POPC  C21321923   4.228   3.056   9.432 -0.3817 -0.8319 -0.0182
  190POPC  H13R21924   4.121   3.083   9.440 -0.2685 -0.0593 -0.9081
  190POPC  H13S21925   4.247   2.957   9.385  0.3539 -0.5814 -0.2569
  190POPC  C21421926   4.296   3.153   9.335  0.1480 -0.2130  0.3669
  190POPC  H14R21927   4.405   3.143   9.354  0.4521  0.7916 -0.8398
  190POPC  H14S21928   4.261   3.251   9.372  0.3555  0.3113 -0.8174
  190POPC  C21521929   4.257   3.135   9.190 -0.0437  0.1924 -0.2124
  190POPC  H15R21930   4.155   3.177   9.177 -0.6567 -0.7517  1.4713
  190POPC  H15S21931   4.268   3.025   9.178 -2.0317  0.1047 -1.3920
  190POPC  C21621932   4.360   3.194   9.084  0.1877 -0.0109  0.1357
  190POPC  H16R21933   4.461   3.192   9.129 -0.0845  4.0588  1.1938
  190POPC  H16S21934   4.335   3.303   9.079 -0.2706 -0.1008  0.4592
  190POPC  C21721935   4.346   3.149   8.937  0.4140 -0.2402  0.1269
  190POPC  H17R21936   4.242   3.179   8.911 -0.4063 -1.7496  1.5659
  190POPC  H17S21937   4.345   3.038   8.932  1.9834 -0.2648  0.3141
  190POPC  C21821938   4.453   3.215   8.848  0.6599  0.2922 -0.0033
  190POPC  H18R21939   4.448   3.325   8.860  0.3506  0.8557 -4.7511
  190POPC  H18S21940   4.432   3.189   8.742  1.8207 -0.4711 -0.0703
  190POPC  H18T21941   4.556   3.176   8.865  0.7650  0.8469  0.6820
  190POPC   C3321942   4.548   2.701  10.124 -1.2865  0.4257  0.1497
  190POPC   H3X21943   4.465   2.628  10.125 -1.1493  0.2798  2.1871
  190POPC   H3Y21944   4.649   2.666  10.154 -1.3335  0.2549  0.1071
  190POPC   C3421945   4.575   2.736   9.976 -0.1000 -0.0083 -0.4039
  190POPC   H4X21946   4.608   2.640   9.931 -0.8606  0.7817 -2.7503
  190POPC   H4Y21947   4.666   2.800   9.973  0.4137 -0.3390  4.4960
  190POPC   C3521948   4.469   2.803   9.891 -0.0100  0.0562 -0.0287
  190POPC   H5X21949   4.454   2.905   9.932  1.4069 -0.4825  1.9430
  190POPC   H5Y21950   4.376   2.743   9.891 -0.3698  0.6081  0.2031
  190POPC   C3621951   4.506   2.823   9.744  0.1543  0.3699  0.2647
  190POPC   H6X21952   4.579   2.904   9.720 -2.0965  1.0807 -5.0069
  190POPC   H6Y21953   4.404   2.845   9.704 -0.8653 -0.7885  2.1650
  190POPC   C3721954   4.569   2.705   9.681 -0.3261  0.5776 -0.2779
  190POPC   H7X21955   4.502   2.618   9.693 -0.3116  0.7134  0.7588
  190POPC   H7Y21956   4.665   2.683   9.733 -0.8714 -0.1488  0.4185
  190POPC   C3821957   4.582   2.723   9.523 -0.8278 -0.6167 -0.0432
  190POPC   H8X21958   4.668   2.661   9.489  0.4756  1.2067 -0.1394
  190POPC   H8Y21959   4.614   2.827   9.501  2.6459 -1.8935 -1.2812
  190POPC   C3921960   4.467   2.681   9.433 -0.6625 -0.5877 -0.4060
  190POPC   H9X21961   4.382   2.742   9.470  2.0571  1.9933  1.8528
  190POPC   H9Y21962   4.452   2.572   9.450 -0.6697 -0.1493  2.5392
  190POPC  C31021963   4.504   2.709   9.288  0.3741  0.1091 -0.3497
  190POPC  H10X21964   4.596   2.654   9.257  0.3883 -0.4856  0.7273
  190POPC  H10Y21965   4.533   2.816   9.282  0.6204  0.1063  0.7532
  190POPC  C31121966   4.393   2.674   9.188  0.0094  0.1734  0.5173
  190POPC  H11X21967   4.292   2.690   9.233 -0.0752  1.5232 -0.1149
  190POPC  H11Y21968   4.399   2.567   9.157  0.1217 -0.0100  1.1732
  190POPC  C31221969   4.413   2.760   9.058 -0.2472 -0.5420 -0.0339
  190POPC  H12X21970   4.522   2.752   9.036 -0.1844 -1.0034  0.4260
  190POPC  H12Y21971   4.387   2.866   9.077  1.9162 -0.0041 -0.0106
  190POPC  C31321972   4.330   2.714   8.940 -0.1207 -0.3146  0.2447
  190POPC  H13X21973   4.355   2.772   8.848  2.0825 -1.0452  0.3589
  190POPC  H13Y21974   4.223   2.741   8.952 -0.5879 -1.3950 -1.3406
  190POPC  C31421975   4.353   2.566   8.901 -0.7990  0.5440 -0.1728
  190POPC  H14X21976   4.313   2.493   8.975  1.0467  0.9926  1.3065
  190POPC  H14Y21977   4.463   2.549   8.897 -0.6892  1.4994 -1.5583
  190POPC  C31521978   4.285   2.524   8.770 -0.5549 -0.1557  1.1688
  190POPC  H15X21979   4.304   2.601   8.693  1.3312 -2.3443 -0.6012
  190POPC  H15Y21980   4.175   2.509   8.778 -0.7343  1.4105  1.7163
  190POPC  C31621981   4.340   2.393   8.720  0.3665  0.2185  0.3975
  190POPC  H16X21982   4.325   2.369   8.612 -2.0143 -1.8797  1.1447
  190POPC  H16Y21983   4.298   2.313   8.785  2.6946 -0.1637  1.4725
  190POPC  H16Z21984   4.451   2.395   8.726  0.3211  2.0461  0.7631
  191POPC     N21985   5.676   3.375   6.106  0.0423 -0.0374  0.1964
  191POPC   C1221986   5.680   3.265   6.206  0.2420 -0.1654  0.0273
  191POPC  H12A21987   5.778   3.219   6.205  1.5109  2.3767 -2.4527
  191POPC  H12B21988   5.599   3.197   6.191 -2.0810  2.0950  1.8408
  191POPC   C1321989   5.738   3.505   6.145 -0.7015 -0.2614 -0.3275
  191POPC  H13A21990   5.681   3.546   6.228  0.1573  0.1646  0.0606
  191POPC  H13B21991   5.841   3.505   6.179 -0.7783 -0.8799 -0.1014
  191POPC  H13C21992   5.723   3.583   6.072 -1.3793 -0.5313 -0.4734
  191POPC   C1421993   5.745   3.330   5.975  0.3652  0.1531 -0.3835
  191POPC  H14A21994   5.688   3.246   5.938 -0.7712  0.9425 -0.4747
  191POPC  H14B21995   5.743   3.402   5.894 -2.6192  2.1286  1.3344
  191POPC  H14C21996   5.846   3.314   6.009  0.9441  1.9102 -1.1935
  191POPC   C1521997   5.527   3.398   6.072 -0.2050 -0.5720  0.1785
  191POPC  H15A21998   5.475   3.425   6.163 -4.8581 -1.1370 -2.1224
  191POPC  H15B21999   5.502   3.306   6.022 -0.0407  0.0305 -1.0493
  191POPC  H15C22000   5.523   3.480   6.001  1.5095 -1.2964 -0.7735
  191POPC   C1122001   5.636   3.314   6.355 -0.2826  0.4957  0.1131
  191POPC  H11A22002   5.706   3.395   6.385 -0.6354  0.3729  1.2799
  191POPC  H11B22003   5.643   3.231   6.428 -1.8310  0.0504 -0.2229
  191POPC     P22004   5.466   3.499   6.419 -0.1094  0.0340 -0.2134
  191POPC   O1322005   5.349   3.550   6.345  0.3640 -0.5692  0.1943
  191POPC   O1422006   5.579   3.590   6.416 -0.0898 -0.0194 -0.4395
  191POPC   O1222007   5.500   3.358   6.354 -0.0219  0.6559 -0.6730
  191POPC   O1122008   5.418   3.479   6.562  1.0440 -0.3990 -0.0092
  191POPC    C122009   5.301   3.391   6.587 -0.7681  0.1486 -0.4000
  191POPC    HA22010   5.314   3.293   6.535 -2.7071 -0.1763 -0.3082
  191POPC    HB22011   5.208   3.440   6.553 -0.3439  0.2251 -1.4870
  191POPC    C222012   5.305   3.344   6.740  0.0137  0.3322 -0.5466
  191POPC    HS22013   5.209   3.296   6.768  0.2063  0.2382 -0.0507
  191POPC   O2122014   5.320   3.471   6.807  0.3637  0.0536 -0.4456
  191POPC   C2122015   5.208   3.535   6.839 -0.4242  0.2643 -1.0736
  191POPC   O2222016   5.098   3.505   6.797 -0.5609  0.3906 -0.2819
  191POPC   C2222017   5.234   3.656   6.938 -0.2300 -0.5447 -0.1551
  191POPC   H2R22018   5.305   3.729   6.893  0.5784 -0.6811  0.8762
  191POPC   H2S22019   5.283   3.611   7.027  0.4563 -0.3794 -0.4417
  191POPC    C322020   5.423   3.254   6.778  0.6808 -0.8990 -0.4688
  191POPC    HX22021   5.504   3.311   6.727 -0.3475  0.7346 -0.3180
  191POPC    HY22022   5.408   3.153   6.733 -0.6005 -0.5322 -0.8756
  191POPC   O3122023   5.450   3.244   6.913 -0.1013 -0.0785  0.5767
  191POPC   C3122024   5.369   3.177   6.986  0.1793  0.3858  0.3381
  191POPC   O3222025   5.265   3.129   6.945  0.0225  0.4958 -0.3795
  191POPC   C3222026   5.423   3.170   7.130  0.4462  0.2509  0.1865
  191POPC   H2X22027   5.450   3.272   7.165 -0.2413 -0.0835  1.7232
  191POPC   H2Y22028   5.519   3.114   7.129  0.1124 -0.3407  1.1519
  191POPC   C2322029   5.096   3.711   6.988 -0.0793 -0.0517 -0.5395
  191POPC   H3R22030   5.047   3.624   7.037  3.1843 -1.3901  0.5199
  191POPC   H3S22031   5.032   3.752   6.907 -0.3067 -0.5012 -0.5944
  191POPC   C2422032   5.081   3.821   7.102 -0.6989  0.8589  0.1692
  191POPC   H4R22033   5.090   3.922   7.055 -0.1707  0.2474 -1.0758
  191POPC   H4S22034   5.164   3.799   7.171 -0.0740  3.3822  0.2786
  191POPC   C2522035   4.940   3.828   7.163 -1.3162  0.0511 -0.5770
  191POPC   H5R22036   4.925   3.732   7.217  2.1259  0.0919  0.6004
  191POPC   H5S22037   4.868   3.837   7.079 -0.9694 -1.4777 -1.0526
  191POPC   C2622038   4.927   3.945   7.264 -0.0270  0.1161 -0.8896
  191POPC   H6R22039   4.819   3.974   7.265 -0.3462 -0.9913 -1.6343
  191POPC   H6S22040   4.986   4.030   7.223  1.5260  0.5703  2.1417
  191POPC   C2722041   4.982   3.922   7.403 -0.7606 -0.7650 -0.2079
  191POPC   H7R22042   5.000   4.024   7.442  0.5030  0.3777 -3.5957
  191POPC   H7S22043   5.084   3.881   7.419 -0.2635  0.7918  0.6755
  191POPC   C2822044   4.892   3.835   7.492 -0.0642  0.3061  0.6907
  191POPC   H8R22045   4.932   3.802   7.590 -0.3200 -0.8028  0.4308
  191POPC   H8S22046   4.874   3.742   7.433 -0.9504  0.7732  0.2169
  191POPC   C2922047   4.758   3.892   7.522  0.9406 -0.4440 -0.4525
  191POPC   H9122048   4.679   3.868   7.450  0.7307 -0.6886 -0.1387
  191POPC  C21022049   4.728   3.976   7.626  0.2396  0.5241  0.1997
  191POPC  H10122050   4.622   4.005   7.639 -0.1560 -1.3545  1.4746
  191POPC  C21122051   4.829   4.032   7.724 -0.2832  0.1417  0.1261
  191POPC  H11R22052   4.778   4.123   7.762 -0.7489 -0.1225  0.1383
  191POPC  H11S22053   4.918   4.065   7.666  0.0980 -2.3143 -0.7603
  191POPC  C21222054   4.859   3.946   7.845 -0.2883 -0.0797 -0.3880
  191POPC  H12R22055   4.912   3.857   7.805  4.2264  1.4793  1.8332
  191POPC  H12S22056   4.765   3.902   7.885  0.6061  1.6479  3.7815
  191POPC  C21322057   4.933   4.017   7.956  0.8128 -0.5680  0.0520
  191POPC  H13R22058   4.899   3.967   8.049 -1.7755 -0.4686 -0.8137
  191POPC  H13S22059   4.902   4.124   7.965 -1.1583 -1.0767 -0.4897
  191POPC  C21422060   5.090   4.015   7.940 -1.1467  0.4461 -0.5773
  191POPC  H14R22061   5.128   4.075   7.854  1.4869 -1.7862 -1.0470
  191POPC  H14S22062   5.127   3.911   7.930 -0.9085  0.5698 -1.0045
  191POPC  C21522063   5.153   4.075   8.071 -0.5130 -0.2006  0.5971
  191POPC  H15R22064   5.099   4.022   8.153 -0.3153 -0.7378  0.3833
  191POPC  H15S22065   5.119   4.180   8.078 -1.1389 -0.4610  1.6535
  191POPC  C21622066   5.300   4.070   8.086 -0.8416  0.9761 -0.1171
  191POPC  H16R22067   5.342   4.136   8.007  0.9928  0.0128  0.0407
  191POPC  H16S22068   5.337   3.971   8.051 -0.7529  0.6364  0.9143
  191POPC  C21722069   5.346   4.092   8.226  0.0002 -1.5434 -0.0431
  191POPC  H17R22070   5.304   4.192   8.251  1.5886 -1.3388  1.9065
  191POPC  H17S22071   5.455   4.105   8.241 -0.2897  0.1867  0.6129
  191POPC  C21822072   5.310   3.975   8.315  0.0606 -0.3899  0.1652
  191POPC  H18R22073   5.207   3.936   8.300 -0.3051  0.2103  1.0855
  191POPC  H18S22074   5.335   3.996   8.421  1.1625  0.8098 -0.3053
  191POPC  H18T22075   5.359   3.887   8.269  0.4791 -0.5693  0.9500
  191POPC   C3322076   5.319   3.095   7.224  0.1984  0.0728 -0.1445
  191POPC   H3X22077   5.345   2.987   7.224  0.8775  0.2363  0.7803
  191POPC   H3Y22078   5.212   3.110   7.197  0.2484 -2.2976 -1.8589
  191POPC   C3422079   5.357   3.148   7.365  0.2833 -0.1690  0.0482
  191POPC   H4X22080   5.354   3.259   7.364  0.9123 -0.1421  0.4659
  191POPC   H4Y22081   5.464   3.123   7.382 -0.3413 -0.9644  3.1260
  191POPC   C3522082   5.263   3.096   7.480 -0.1874 -0.3171 -0.1991
  191POPC   H5X22083   5.282   2.986   7.485  1.4675 -0.0612 -0.7655
  191POPC   H5Y22084   5.159   3.116   7.445  0.8215  2.0619 -1.9297
  191POPC   C3622085   5.295   3.169   7.605 -0.6132  0.0059  0.4785
  191POPC   H6X22086   5.274   3.277   7.588 -0.9981  0.0025  0.9052
  191POPC   H6Y22087   5.406   3.170   7.610 -0.5585  1.1949 -0.8079
  191POPC   C3722088   5.227   3.097   7.728 -0.4223  0.6182 -0.2799
  191POPC   H7X22089   5.263   2.993   7.740 -2.2268  0.2094  1.9908
  191POPC   H7Y22090   5.118   3.082   7.710 -0.3546  2.4882 -2.5396
  191POPC   C3822091   5.248   3.168   7.862 -0.5921  0.2271 -0.3950
  191POPC   H8X22092   5.209   3.272   7.855 -0.7329  0.3373  1.6580
  191POPC   H8Y22093   5.356   3.186   7.875 -0.5787 -1.0913  1.5827
  191POPC   C3922094   5.181   3.100   7.980 -0.1022  0.5965 -0.3094
  191POPC   H9X22095   5.231   3.004   8.006 -0.4308  0.6561  0.5475
  191POPC   H9Y22096   5.076   3.080   7.950 -1.0803  2.3515  1.8267
  191POPC  C31022097   5.169   3.181   8.108 -0.6127 -0.8212  0.1266
  191POPC  H10X22098   5.155   3.290   8.093 -0.7541 -0.8534  0.0256
  191POPC  H10Y22099   5.269   3.174   8.156 -0.5964 -0.9687  0.0696
  191POPC  C31122100   5.053   3.125   8.201 -0.6616 -0.0793  0.6325
  191POPC  H11X22101   5.075   3.019   8.225 -4.4963 -0.6002  2.1133
  191POPC  H11Y22102   4.966   3.106   8.134 -0.3377  0.5025  0.0322
  191POPC  C31222103   5.008   3.216   8.308 -0.4892 -0.3416 -0.1504
  191POPC  H12X22104   4.956   3.302   8.262 -0.9472 -1.3930 -1.6014
  191POPC  H12Y22105   5.099   3.247   8.366 -1.0643  0.0265  0.5647
  191POPC  C31322106   4.923   3.146   8.408  0.5081  0.2701  0.7284
  191POPC  H13X22107   4.949   3.178   8.512 -1.0846  3.2966  0.2655
  191POPC  H13Y22108   4.952   3.039   8.405  0.5104  0.3237 -1.4794
  191POPC  C31422109   4.772   3.156   8.382 -0.4090  1.6757 -0.7048
  191POPC  H14X22110   4.765   3.109   8.281  0.0011 -0.8005  0.3931
  191POPC  H14Y22111   4.746   3.263   8.367 -0.3157  1.5819 -1.5798
  191POPC  C31522112   4.682   3.083   8.484  0.0200 -1.3473 -0.1528
  191POPC  H15X22113   4.693   3.133   8.583 -1.8860 -2.6320  0.7339
  191POPC  H15Y22114   4.722   2.979   8.493  0.1252 -1.5060 -2.3564
  191POPC  C31622115   4.537   3.081   8.433  0.4368 -0.1064 -0.3427
  191POPC  H16X22116   4.494   3.184   8.440 -1.6315 -1.0230  0.6207
  191POPC  H16Y22117   4.478   3.016   8.500 -1.2367 -0.3331 -1.9699
  191POPC  H16Z22118   4.532   3.043   8.329 -0.5354 -0.3087 -0.2258
  192POPC     N22119   4.245   6.507   5.913  0.1589 -0.0904 -0.5972
  192POPC   C1222120   4.270   6.518   6.063 -0.4549  0.3727  0.8255
  192POPC  H12A22121   4.372   6.550   6.076 -0.3463 -0.7921  3.2868
  192POPC  H12B22122   4.261   6.416   6.099 -1.6577 -0.3567 -1.4443
  192POPC   C1322123   4.342   6.409   5.854 -0.5163 -0.0131  0.5694
  192POPC  H13A22124   4.334   6.312   5.900 -0.4120 -0.5163 -0.4656
  192POPC  H13B22125   4.343   6.405   5.746 -1.0456  3.0347  0.4130
  192POPC  H13C22126   4.444   6.429   5.882 -0.0948 -2.0466  0.5920
  192POPC   C1422127   4.104   6.469   5.878 -0.8940 -0.3035 -0.5355
  192POPC  H14A22128   4.081   6.371   5.919  0.2141 -0.5457 -0.4815
  192POPC  H14B22129   4.031   6.534   5.925  0.5874  2.1089 -1.5044
  192POPC  H14C22130   4.087   6.466   5.772  2.2505 -1.1745 -1.0698
  192POPC   C1522131   4.269   6.644   5.856 -0.4672  0.1412 -0.4579
  192POPC  H15A22132   4.255   6.648   5.749 -1.0143 -3.3474 -0.5757
  192POPC  H15B22133   4.371   6.673   5.875  0.1421 -1.4928 -1.1230
  192POPC  H15C22134   4.207   6.720   5.902  0.4729  0.8011 -0.2745
  192POPC   C1122135   4.171   6.601   6.155 -0.0099  0.1055 -0.2945
  192POPC  H11A22136   4.209   6.609   6.259 -0.8610 -0.3929  0.0589
  192POPC  H11B22137   4.068   6.559   6.155 -0.6423  1.6061 -0.1879
  192POPC     P22138   4.064   6.840   6.184  0.0706 -0.2509  0.1527
  192POPC   O1322139   3.983   6.909   6.081 -0.0140 -0.6036 -0.5259
  192POPC   O1422140   4.147   6.928   6.269  0.5401  0.5785 -0.2826
  192POPC   O1222141   4.158   6.735   6.113 -0.1029 -0.2251  0.4964
  192POPC   O1122142   3.971   6.751   6.279  0.2506 -0.2848 -0.3330
  192POPC    C122143   3.861   6.823   6.344  0.4216 -0.1784 -0.3535
  192POPC    HA22144   3.763   6.783   6.313 -1.3514  1.2455  3.1521
  192POPC    HB22145   3.859   6.932   6.321  1.5472  0.1167  0.8791
  192POPC    C222146   3.876   6.804   6.497 -0.3257  0.0290 -0.1228
  192POPC    HS22147   3.783   6.833   6.550 -0.0257  0.8560 -0.0409
  192POPC   O2122148   3.991   6.882   6.542  0.1960  0.4082  0.0336
  192POPC   C2122149   3.969   6.982   6.623 -0.3840  0.2548  0.3577
  192POPC   O2222150   3.864   7.039   6.634 -0.0573  0.8714  0.4323
  192POPC   C2222151   4.090   7.027   6.703  0.6366 -0.3834 -0.5716
  192POPC   H2R22152   4.109   7.136   6.689  0.7785 -0.7511 -3.4186
  192POPC   H2S22153   4.170   6.966   6.655  1.9035 -0.3136  1.4010
  192POPC    C322154   3.902   6.656   6.522 -0.0313 -0.7094 -0.6747
  192POPC    HX22155   4.008   6.643   6.491 -0.1509 -1.5876 -0.7491
  192POPC    HY22156   3.840   6.585   6.464 -0.9648  0.4935 -1.1595
  192POPC   O3122157   3.875   6.632   6.664 -0.0354 -0.2530  0.0927
  192POPC   C3122158   3.979   6.662   6.748  0.8033  0.0846 -0.0229
  192POPC   O3222159   4.083   6.694   6.708  0.3593 -1.1181 -0.3700
  192POPC   C3222160   3.944   6.600   6.881  0.2435  0.2568 -0.2994
  192POPC   H2X22161   3.912   6.494   6.867  1.6175 -0.2057  0.0253
  192POPC   H2Y22162   3.862   6.659   6.929 -0.4450 -0.7877 -0.1804
  192POPC   C2322163   4.071   7.008   6.860  0.4455  1.1402  0.0684
  192POPC   H3R22164   4.056   6.902   6.890 -1.5948  2.0150  2.2747
  192POPC   H3S22165   3.975   7.056   6.886  0.0997  0.9253 -0.7768
  192POPC   C2422166   4.175   7.090   6.942  0.0058  0.0702 -0.2916
  192POPC   H4R22167   4.163   7.198   6.920 -2.4102 -0.4304 -1.5702
  192POPC   H4S22168   4.274   7.052   6.909 -1.2367 -3.7110  0.0355
  192POPC   C2522169   4.154   7.065   7.091 -0.5711  0.2765  0.3170
  192POPC   H5R22170   4.168   6.961   7.126 -1.6768  0.0053 -0.0205
  192POPC   H5S22171   4.049   7.086   7.119 -0.3759  0.3152  1.0310
  192POPC   C2622172   4.245   7.166   7.168  0.4286  0.0988 -0.7931
  192POPC   H6R22173   4.297   7.235   7.099  2.0289  1.4808  1.7106
  192POPC   H6S22174   4.326   7.098   7.201  1.8346  0.4746 -3.3383
  192POPC   C2722175   4.181   7.233   7.288 -0.6198  0.3347 -0.7276
  192POPC   H7R22176   4.150   7.159   7.364  2.8378 -0.1613  0.2790
  192POPC   H7S22177   4.098   7.290   7.243 -0.8153 -1.3586 -2.5904
  192POPC   C2822178   4.276   7.327   7.356 -0.3674 -0.4117  0.5600
  192POPC   H8R22179   4.213   7.387   7.426 -1.3553 -1.0757  0.2651
  192POPC   H8S22180   4.306   7.411   7.290 -0.3702 -0.8965 -0.0621
  192POPC   C2922181   4.379   7.258   7.438 -0.8397  0.1970  0.2722
  192POPC   H9122182   4.456   7.211   7.375  0.0887  2.1543 -0.0939
  192POPC  C21022183   4.397   7.259   7.573  0.4912 -0.3304  0.0506
  192POPC  H10122184   4.474   7.192   7.615  0.6932 -0.4399 -0.5001
  192POPC  C21122185   4.305   7.335   7.677  0.1339  0.1835  0.3255
  192POPC  H11R22186   4.284   7.441   7.653  0.2261  0.4551  1.4210
  192POPC  H11S22187   4.360   7.336   7.774  2.2472  2.1388 -0.8346
  192POPC  C21222188   4.160   7.272   7.696 -0.5975  0.3839 -0.1282
  192POPC  H12R22189   4.175   7.175   7.748 -0.8643  0.9757  1.0852
  192POPC  H12S22190   4.102   7.259   7.602  0.7360  0.9761 -1.0435
  192POPC  C21322191   4.072   7.346   7.801  0.0317  0.0307 -0.4851
  192POPC  H13R22192   3.982   7.285   7.825  0.5064 -1.8175 -3.1264
  192POPC  H13S22193   4.045   7.445   7.761 -0.7040 -0.1199 -0.3612
  192POPC  C21422194   4.139   7.375   7.946 -0.5884 -0.2257 -0.0465
  192POPC  H14R22195   4.221   7.445   7.921  0.2926 -0.9816  0.6816
  192POPC  H14S22196   4.188   7.288   7.995  0.7521  0.5232 -0.0587
  192POPC  C21522197   4.041   7.441   8.047 -0.0943 -0.2418  0.2596
  192POPC  H15R22198   3.966   7.359   8.056 -0.2003 -0.0714  0.8987
  192POPC  H15S22199   3.991   7.534   8.012  0.5141 -0.4084 -1.1029
  192POPC  C21622200   4.111   7.461   8.185 -0.3499 -0.3314  0.7174
  192POPC  H16R22201   4.200   7.526   8.178 -1.7072  1.4263 -0.8813
  192POPC  H16S22202   4.159   7.362   8.199 -0.7496 -0.6149  0.1326
  192POPC  C21722203   4.026   7.497   8.303 -0.0817  0.3812  0.2817
  192POPC  H17R22204   3.976   7.593   8.280 -0.5853 -0.3580 -1.8315
  192POPC  H17S22205   4.098   7.506   8.388  0.5036 -0.3100 -0.1305
  192POPC  C21822206   3.919   7.400   8.357  0.0815  0.2773  0.3080
  192POPC  H18R22207   3.842   7.392   8.277  1.6312 -0.8358 -1.1026
  192POPC  H18S22208   3.871   7.431   8.453  2.6241  2.7266  0.8432
  192POPC  H18T22209   3.959   7.297   8.361 -2.1346 -0.5943  0.9761
  192POPC   C3322210   4.058   6.605   6.982 -0.8122  0.3617 -0.1023
  192POPC   H3X22211   4.145   6.661   6.944 -0.5882 -0.7582 -1.2894
  192POPC   H3Y22212   4.071   6.508   7.035  0.1881  0.1376 -0.7663
  192POPC   C3422213   4.014   6.687   7.110 -0.1968 -0.3194 -0.0405
  192POPC   H4X22214   3.912   6.654   7.138 -0.6384  1.0425  0.0251
  192POPC   H4Y22215   4.017   6.797   7.094 -0.2637 -0.2890  0.1625
  192POPC   C3522216   4.107   6.667   7.226 -0.2735  0.3237  0.3416
  192POPC   H5X22217   4.214   6.669   7.197  0.0330 -0.6427  1.3551
  192POPC   H5Y22218   4.086   6.574   7.283 -0.0097 -0.0058 -0.0997
  192POPC   C3622219   4.093   6.774   7.337  0.4716 -0.1620 -0.6780
  192POPC   H6X22220   3.987   6.799   7.359  0.1464 -2.4846  0.5573
  192POPC   H6Y22221   4.130   6.875   7.309 -0.4357  1.3487  3.2520
  192POPC   C3722222   4.155   6.730   7.470  0.3023  0.3202 -0.2017
  192POPC   H7X22223   4.265   6.729   7.455  0.1642 -0.1486 -1.1478
  192POPC   H7Y22224   4.129   6.626   7.497 -1.5094  0.8320  0.1425
  192POPC   C3822225   4.114   6.823   7.592 -0.1094 -0.6850 -0.0314
  192POPC   H8X22226   4.005   6.846   7.584  0.4103  1.2816 -1.9328
  192POPC   H8Y22227   4.169   6.918   7.575 -1.3102 -0.4493 -2.8671
  192POPC   C3922228   4.159   6.766   7.725  0.0311 -0.0046 -0.7715
  192POPC   H9X22229   4.261   6.724   7.712 -1.3002 -2.1468 -4.9683
  192POPC   H9Y22230   4.086   6.692   7.763  0.6975 -0.5894 -0.6340
  192POPC  C31022231   4.154   6.858   7.844  0.3688 -0.6865  0.2167
  192POPC  H10X22232   4.051   6.899   7.848  0.1557 -0.7327 -3.3296
  192POPC  H10Y22233   4.227   6.934   7.809  0.4876 -2.1190 -2.8572
  192POPC  C31122234   4.185   6.786   7.973  0.1345  1.2378  0.5492
  192POPC  H11X22235   4.295   6.768   7.974 -0.1613 -0.6378  1.7240
  192POPC  H11Y22236   4.127   6.693   7.990  0.7387  0.8027  0.2567
  192POPC  C31222237   4.166   6.870   8.100  0.7289  0.4181 -0.6140
  192POPC  H12X22238   4.083   6.940   8.080  1.8295  1.1306 -2.8593
  192POPC  H12Y22239   4.243   6.947   8.125 -1.5667  2.3030  0.8850
  192POPC  C31322240   4.146   6.782   8.225  0.1079  0.3693  0.6627
  192POPC  H13X22241   4.221   6.700   8.230 -0.2136  0.0858  0.8131
  192POPC  H13Y22242   4.052   6.726   8.207 -0.6783  1.6502  0.7559
  192POPC  C31422243   4.154   6.860   8.355  0.0082  0.0218 -0.2199
  192POPC  H14X22244   4.102   6.795   8.428  4.5219 -1.2248  2.0619
  192POPC  H14Y22245   4.101   6.954   8.329 -2.6009 -1.3667 -0.0307
  192POPC  C31522246   4.300   6.892   8.406 -0.2528 -0.6083  0.2139
  192POPC  H15X22247   4.342   6.962   8.331 -1.3607  1.8518  1.8281
  192POPC  H15Y22248   4.359   6.798   8.403 -1.6763 -1.4774 -3.0814
  192POPC  C31622249   4.311   6.954   8.545  0.1784 -0.5103  0.0315
  192POPC  H16X22250   4.401   6.934   8.607  0.3096 -0.8698 -0.2803
  192POPC  H16Y22251   4.223   6.923   8.606  0.4488  0.3086  0.8552
  192POPC  H16Z22252   4.299   7.065   8.541 -0.0278 -0.5003  0.7723
  193SOD    SOD22253   2.166   3.658   5.999 -0.0934 -0.6295  0.1859
  194SOD    SOD22254   6.562   2.616   1.210 -0.2191 -0.3063  0.1767
  195SOD    SOD22255   0.200   4.368  14.157  0.5324  0.2892 -0.2403
  196SOD    SOD22256   2.171   3.412   2.645  0.1590  0.3776  0.4906
  197SOD    SOD22257   6.554   4.592   1.390  0.0515  0.2211 -0.2009
  198SOD    SOD22258   6.036   5.693  10.945  0.8012  0.2457  0.0575
  199SOD    SOD22259   4.280   4.366  12.893 -0.4329 -0.0160  0.3227
  200SOD    SOD22260   2.171   5.432  11.668  0.0924 -0.0177  0.0895
  201SOD    SOD22261   0.772   6.503   3.432 -0.4485  0.1841 -0.4714
  202SOD    SOD22262   2.345   6.236  11.932 -0.0870  0.5219 -0.0689
  203SOD    SOD22263   3.137   5.732  16.879 -0.1244  0.3476 -0.2833
  204SOD    SOD22264   4.751   0.585   5.153 -0.0572  0.7785  0.1915
  205SOD    SOD22265   1.323   0.372  11.576  0.3709 -0.4588 -0.2543
  206SOD    SOD22266   2.480   1.613  12.364  0.0521 -0.1950 -0.1890
  207SOD    SOD22267   5.443   0.679  11.521 -0.0058 -0.1486  0.7282
  208SOD    SOD22268   4.126   4.100   1.951  0.6181  0.2606 -0.0143
  209SOD    SOD22269   3.280   6.548  12.030  0.1437 -0.2212  0.0663
  210SOD    SOD22270   2.219   0.426  17.034 -0.0172  0.5755 -0.0270
  211SOD    SOD22271   0.135   1.373  15.499  0.0388  0.2144  0.2310
  212SOD    SOD22272   2.115   3.089  16.130  0.0473  0.1670 -0.0177
  213SOD    SOD22273   3.243   0.315  10.515 -0.3987  0.1113 -0.0304
  214SOD    SOD22274   6.712   0.593   3.273  0.3316  0.2108 -0.2867
  215SOD    SOD22275   5.049   1.677  15.860  0.1912 -0.0248 -0.4478
  216SOD    SOD22276   0.434   1.247   6.070 -0.3451  0.1617  0.0659
  217SOD    SOD22277   2.074   5.107   0.482 -0.2366  0.0390 -0.6532
  218SOD    SOD22278   5.353   1.381   3.320  0.0043 -0.0470  0.0618
  219SOD    SOD22279   3.720   3.919   0.479  0.1529 -0.4368 -0.1591
  220SOD    SOD22280   4.401   2.246   0.080 -0.3066  0.4500 -0.0374
  221SOD    SOD22281   3.898   2.184   3.998 -0.1446 -0.4747  0.6380
  222SOD    SOD22282   3.981   2.927  14.498 -0.4043 -0.1216 -0.4022
  223SOD    SOD22283   2.665   0.268   5.566  0.0210  0.0299  0.0145
  224SOD    SOD22284   0.155   5.428   5.679  0.3241 -0.0100  0.4112
  225SOD    SOD22285   1.739   3.748  16.258 -0.5484  0.2413  0.3077
  226SOD    SOD22286   1.825   2.597   3.792 -0.1154 -0.0420  0.4453
  227SOD    SOD22287   4.367   3.366   3.360  0.7500  0.1462 -0.3106
  228SOD    SOD22288   6.069   2.569  12.513  0.2997  0.3519  0.0079
  229SOD    SOD22289   2.141   1.752   1.072 -0.2370  0.2257 -0.2222
  230SOD    SOD22290   3.115   4.882  15.286 -0.0575  0.0193  0.2542
  231SOD    SOD22291   4.839   0.653  12.059  0.3769 -0.5048 -0.1788
  232SOD    SOD22292   3.555   0.812   1.823 -0.2011 -0.0981  0.0074
  233SOD    SOD22293   6.045   1.600   1.745  0.1868  0.2434 -0.0260
  234SOD    SOD22294   4.194   1.210   4.461 -0.5426  0.2296 -0.3418
  235SOD    SOD22295   4.787   1.872  11.735  0.0068  0.1146 -0.3433
  236SOD    SOD22296   5.675   0.347   5.158  0.0407  0.0327 -0.4967
  237SOD    SOD22297   2.854   3.819   4.885 -0.2624  0.0518 -0.5158
  238SOD    SOD22298   0.943   3.374  11.659 -0.0273 -0.0167  0.2906
  239SOD    SOD22299   5.350   6.203  12.836 -0.5693  0.6461 -0.6640
  240SOD    SOD22300   0.610   3.267  15.843 -0.1456  0.0614  0.4480
  241SOD    SOD22301   4.407   1.038   5.820  0.2453  0.3091  0.7047
  242SOD    SOD22302   3.378   5.980  12.855  0.1639 -0.3246  0.1951
  243SOD    SOD22303   0.088   6.769   1.480 -0.4001  0.7086 -0.1644
  244SOD    SOD22304   1.537   1.786  13.580 -0.2358  0.3074 -0.1707
  245SOD    SOD22305   6.485   5.523   2.102 -0.1781  0.3996 -0.2056
  246SOD    SOD22306   0.195   2.661   4.769  0.1814 -0.2687  0.2307
  247SOD    SOD22307   2.095   4.208   6.439  0.1549 -0.0024 -0.4871
  248SOD    SOD22308   3.652   2.667  11.091  0.3529 -0.1022 -0.1886
  249SOD    SOD22309   2.571   5.631   5.173  0.2772  0.4190  0.1409
  250SOD    SOD22310   3.872   2.219   5.687 -0.2808  0.0083 -0.2039
  251SOD    SOD22311   1.914   5.658  16.252 -0.0381 -0.0022 -0.2248
  252SOD    SOD22312   3.257   2.929   6.141 -0.1015  0.1294 -0.2880
  253SOD    SOD22313   4.343   2.724   0.675 -0.3726  0.7700 -0.1228
  254SOD    SOD22314   6.185   4.129  15.685 -0.3102 -0.1681 -0.5186
  255SOD    SOD22315   5.514   5.272  13.868 -0.2556 -0.6759  0.2806
  256SOD    SOD22316   0.340   2.574   2.674 -0.0674  0.5242 -0.1170
  257SOD    SOD22317   2.734   0.033   4.736  0.1040  0.2429 -0.4688
  258SOD    SOD22318   1.309   5.008  13.152  0.1830  0.1462 -0.0106
  259SOD    SOD22319   1.458   3.990  12.520  0.1646  0.1664 -0.0453
  260SOD    SOD22320   4.300   1.599  11.154 -0.2720  0.9469 -0.0467
  261SOD    SOD22321   5.535   6.124  16.466  0.1961 -0.1449 -0.4997
  262SOD    SOD22322   5.854   6.067   5.353 -0.1046 -0.2927 -0.1663
  263SOD    SOD22323   2.589   4.435  11.653  0.2687  0.3129 -0.2442
  264SOD    SOD22324   0.817   0.119   5.436 -0.2585  0.1820 -0.3668
  265SOD    SOD22325   4.285   0.956   6.412 -0.3292 -0.0497 -0.1352
  266SOD    SOD22326   1.055   1.241   1.378  0.1488  0.2024  0.2384
  267SOD    SOD22327   5.058   1.860  14.717 -0.1802 -0.4308  0.3626
  268SOD    SOD22328   3.067   0.595  13.912  0.4510  0.0294  0.0098
  269SOD    SOD22329   4.170   5.356  10.421 -0.0254  0.0787  0.4945
  270CLA    CLA22330   2.374   1.089  16.131 -0.1373  0.3225  0.2447
  271CLA    CLA22331   4.801   2.401   0.231 -0.3572  0.0689 -0.2834
  272CLA    CLA22332   2.182   5.876  16.608  0.0738 -0.1142  0.3539
  273CLA    CLA22333   3.984   0.932   3.961 -0.0638 -0.2687 -0.2539
  274CLA    CLA22334   1.976   3.967  12.694  0.1943  0.0580 -0.3415
  275CLA    CLA22335   1.262   0.683   1.544 -0.1055 -0.0413 -0.4016
  276CLA    CLA22336   0.834   3.598  15.136 -0.0004 -0.0453 -0.4014
  277CLA    CLA22337   1.919   5.753  12.423 -0.0736 -0.0510  0.1679
  278CLA    CLA22338   3.109   6.284   4.945  0.3894  0.2410 -0.2287
  279CLA    CLA22339   2.920   5.056   2.402 -0.1233 -0.1315  0.2025
  280CLA    CLA22340   1.671   6.185   3.734 -0.2337 -0.2310  0.2176
  281CLA    CLA22341   3.626   3.839   3.589 -0.3431 -0.0271 -0.3611
  282CLA    CLA22342   1.012   1.733   1.657 -0.3011  0.1464 -0.0539
  283CLA    CLA22343   4.742   1.822   1.152 -0.0953 -0.0054  0.0573
  284CLA    CLA22344   1.402   5.721  17.005  0.2258  0.0691  0.3482
  285CLA    CLA22345   2.395   2.208   0.724 -0.1877 -0.2703 -0.3080
  286CLA    CLA22346   4.555   1.051   5.055  0.0142 -0.2792 -0.2571
  287CLA    CLA22347   0.790   4.829   0.974 -0.3494  0.3121 -0.2506
  288CLA    CLA22348   3.942   0.869  15.628  0.0973  0.4895 -0.1003
  289CLA    CLA22349   2.954   3.851   0.314  0.4003  0.0024 -0.2852
  290CLA    CLA22350   5.886   2.055  16.981 -0.0671  0.2916 -0.1279
  291CLA    CLA22351   3.184   3.601  16.683  0.0050 -0.3598 -0.0789
  292CLA    CLA22352   6.204   0.637  15.226  0.4182 -0.5652 -0.6116
  293CLA    CLA22353   2.520   0.473  13.108 -0.0947  0.2507  0.2660
  294CLA    CLA22354   2.408   3.415  16.259  0.2367 -0.0222  0.2221
  295CLA    CLA22355   2.580   5.269  15.010  0.0748 -0.2555 -0.3236
  296CLA    CLA22356   6.735   1.239   3.697 -0.2834 -0.2901 -0.3299
  297CLA    CLA22357   1.541   0.003   2.526  0.1525  0.2524 -0.3357
  298CLA    CLA22358   1.818   5.125   0.393  0.1981  0.2262 -0.0612
  299CLA    CLA22359   6.094   6.644   2.921  0.0126  0.2583  0.5809
  300CLA    CLA22360   6.610   4.516  11.873  0.2295 -0.2214  0.4382
  301CLA    CLA22361   5.143   4.819   4.335  0.1887  0.4276 -0.0728
  302CLA    CLA22362   5.463   0.404   4.983 -0.3579  0.1118 -0.3665
  303CLA    CLA22363   1.872   6.323  11.721  0.2635  0.4185  0.3978
  304CLA    CLA22364   6.616   2.478  15.741 -0.0604  0.2076 -0.1155
  305CLA    CLA22365   3.699   4.808  15.408  0.3101 -0.1037  0.2400
  306CLA    CLA22366   1.232   1.720  12.888 -0.2550 -0.2724 -0.1339
  307CLA    CLA22367   5.818   3.449   5.668 -0.0147 -0.0028  0.1399
  308CLA    CLA22368   2.295   3.868  15.555  0.0476 -0.2396 -0.0886
  309CLA    CLA22369   6.267   5.432   1.968 -0.0550  0.0485  0.0388
  310CLA    CLA22370   5.518   3.097  13.961  0.1518 -0.0298 -0.0593
  311CLA    CLA22371   2.838   2.472  12.785 -0.0216  0.3003 -0.4411
  312CLA    CLA22372   5.291   2.838   3.049 -0.2415  0.1893  0.2147
  313CLA    CLA22373   5.658   4.686  14.395 -0.0005 -0.0296  0.2574
  314CLA    CLA22374   4.373   0.445  11.146 -0.1500  0.0322 -0.1176
  315CLA    CLA22375   4.082   1.064  13.774 -0.3374  0.1590  0.4303
  316CLA    CLA22376   4.428   6.256   0.117 -0.6308  0.2882 -0.0734
  317CLA    CLA22377   2.226   1.261   5.201  0.3197 -0.2527 -0.2361
  318CLA    CLA22378   1.050   4.459  17.088  0.6343 -0.1359  0.2072
  319CLA    CLA22379   5.415   0.790  11.956 -0.1523  0.3691  0.1605
  320CLA    CLA22380   0.606   5.644  14.565 -0.0114 -0.4116  0.3229
  321CLA    CLA22381   4.291   1.503   0.433 -0.0634  0.1037  0.0337
  322CLA    CLA22382   5.431   5.901  16.654 -0.1911 -0.5403 -0.4349
  323TIP3   OH222383   0.403   3.686  10.307  0.0110 -0.6390 -0.2243
  323TIP3    H122384   0.468   3.718  10.370  0.3863 -0.0246 -0.9213
  323TIP3    H222385   0.324   3.736  10.329  0.3583  0.1588 -0.7406
  324TIP3   OH222386   0.284   4.738   3.002  0.2224  0.0237 -0.5434
  324TIP3    H122387   0.355   4.772   3.056  1.8419 -1.9496 -1.3758
  324TIP3    H222388   0.246   4.667   3.054  0.2325 -0.3205 -1.0029
  325TIP3   OH222389   6.509   6.379  11.358 -0.4833  0.5325  0.5576
  325TIP3    H122390   6.552   6.355  11.276  0.6387  0.1280  1.2456
  325TIP3    H222391   6.555   6.459  11.386 -1.9431  1.5877 -0.0192
  326TIP3   OH222392   3.955   6.503   2.151  0.3875  0.1203 -0.3497
  326TIP3    H122393   3.876   6.554   2.131  0.2188 -0.3455 -0.8966
  326TIP3    H222394   3.951   6.489   2.245  1.3729  2.6535  0.1093
  327TIP3   OH222395   1.516   4.336  13.767 -0.6784 -0.2708 -0.1368
  327TIP3    H122396   1.596   4.297  13.802 -0.0344 -0.4594 -1.7655
  327TIP3    H222397   1.505   4.417  13.816  0.2635 -0.4719  0.4121
  328TIP3   OH222398   6.021   6.184   5.458  0.0086  0.1595  0.2343
  328TIP3    H122399   6.113   6.190   5.484 -0.3373 -0.6610  1.6783
  328TIP3    H222400   5.972   6.217   5.533 -1.0140 -2.2344  0.6509
  329TIP3   OH222401   3.105   2.036   2.411 -0.2822  0.0517  0.2626
  329TIP3    H122402   3.075   2.060   2.499 -0.5818  0.4405  0.0529
  329TIP3    H222403   3.201   2.044   2.416 -0.3548  0.8863  0.3102
  330TIP3   OH222404   4.740   1.564   2.864  0.5621  0.2780 -0.6137
  330TIP3    H122405   4.825   1.525   2.885 -0.5668 -1.6843  0.4418
  330TIP3    H222406   4.713   1.608   2.944  0.9283  1.5686 -1.1923
  331TIP3   OH222407   4.830   1.421   1.653  0.5527  0.4465  0.0127
  331TIP3    H122408   4.812   1.399   1.744  0.1424  2.0600  0.3391
  331TIP3    H222409   4.743   1.431   1.613  0.7298  0.6044 -0.3395
  332TIP3   OH222410   2.273   2.355   1.315  0.4199 -0.2506  0.3497
  332TIP3    H122411   2.355   2.305   1.310 -0.1425 -1.4114  2.0930
  332TIP3    H222412   2.205   2.288   1.322 -0.5436  0.7228  0.4229
  333TIP3   OH222413   5.615   5.759  15.246  0.1968  0.4363  0.0386
  333TIP3    H122414   5.675   5.820  15.203  1.5894 -0.9598 -0.0270
  333TIP3    H222415   5.665   5.677  15.253 -1.3094 -0.4134  0.9914
  334TIP3   OH222416   3.503   3.915  15.854 -0.0272 -0.1669 -0.1785
  334TIP3    H122417   3.489   3.987  15.792  0.7411  1.1443  1.1458
  334TIP3    H222418   3.536   3.844  15.800  1.1251  1.1217 -1.2286
  335TIP3   OH222419   5.501   4.340  11.447  0.3531 -0.3061  0.0390
  335TIP3    H122420   5.568   4.284  11.486  1.1190 -0.9061 -2.0741
  335TIP3    H222421   5.550   4.410  11.403 -0.3928 -0.5027 -1.1473
  336TIP3   OH222422   1.996   2.359  11.611 -0.1357  0.2704  0.0365
  336TIP3    H122423   1.938   2.432  11.633 -0.0075  0.2742  0.3720
  336TIP3    H222424   2.053   2.351  11.687 -2.2684 -2.2955  1.4764
  337TIP3   OH222425   0.978   3.491  13.504 -0.1547  0.2760  0.1443
  337TIP3    H122426   0.913   3.547  13.463  0.3341  0.0748 -0.9239
  337TIP3    H222427   0.928   3.437  13.565 -0.9605  0.2601 -0.5202
  338TIP3   OH222428   5.886   4.698  14.194 -0.0016 -0.4993  0.1270
  338TIP3    H122429   5.913   4.784  14.228 -2.6873  1.4401 -2.4143
  338TIP3    H222430   5.797   4.687  14.226  0.3477 -2.4305  0.4844
  339TIP3   OH222431   2.196   5.733   4.072  0.1071  0.2083  0.2390
  339TIP3    H122432   2.141   5.811   4.081 -1.4337 -1.0955  2.3832
  339TIP3    H222433   2.141   5.669   4.028  1.7111  0.5800 -2.4758
  340TIP3   OH222434   0.647   2.030   3.534  0.2778  0.0942 -0.2174
  340TIP3    H122435   0.582   2.089   3.572  0.1281 -1.0313  1.2925
  340TIP3    H222436   0.602   1.988   3.461 -1.1768 -1.7154  1.6688
  341TIP3   OH222437   6.142   3.896   0.005  0.4449 -0.1894 -0.4924
  341TIP3    H122438   6.204   3.949   0.055  3.0077 -2.5589 -1.0108
  341TIP3    H222439   6.110   3.831   0.067 -0.9732  0.5641 -0.4228
  342TIP3   OH222440   2.288   4.299   2.770  0.2123  0.2836  0.0277
  342TIP3    H122441   2.317   4.308   2.679  1.2130 -0.3327  0.2719
  342TIP3    H222442   2.348   4.356   2.819  2.2838 -2.4413  0.7778
  343TIP3   OH222443   4.135   5.163   4.976  0.1496  0.3579  0.1614
  343TIP3    H122444   4.123   5.148   4.882 -0.5755  1.8196 -0.0054
  343TIP3    H222445   4.228   5.148   4.991  0.1876 -0.2996 -0.7146
  344TIP3   OH222446   1.586   2.030   6.084 -0.0280  0.3706  0.1542
  344TIP3    H122447   1.662   1.996   6.130  0.9010  0.9079 -0.9651
  344TIP3    H222448   1.574   2.119   6.118  0.2604  0.5282 -0.1480
  345TIP3   OH222449   2.740   4.347  11.486  0.0414  0.1684  0.0606
  345TIP3    H122450   2.813   4.402  11.514  1.2813 -1.1239 -0.5994
  345TIP3    H222451   2.704   4.392  11.409  0.8921  0.1813 -0.3331
  346TIP3   OH222452   0.352   0.295   4.132 -0.0324 -0.2823 -0.1877
  346TIP3    H122453   0.262   0.311   4.158  0.2839  1.4536 -0.1211
  346TIP3    H222454   0.382   0.225   4.191 -1.0913 -0.3336  0.2968
  347TIP3   OH222455   4.188   3.362   5.343 -0.1505  0.1210 -0.2862
  347TIP3    H122456   4.118   3.326   5.397  3.3489  1.2582  5.4453
  347TIP3    H222457   4.237   3.285   5.312 -0.0004 -0.4877  1.4148
  348TIP3   OH222458   4.795   2.612  14.889 -0.0860  0.2242 -0.3053
  348TIP3    H122459   4.827   2.675  14.954 -1.3579  0.6616 -0.0978
  348TIP3    H222460   4.730   2.560  14.936 -1.7254  1.1841 -1.4856
  349TIP3   OH222461   1.580   6.748  13.831 -0.1718 -0.0004  0.2839
  349TIP3    H122462   1.563   6.825  13.776  1.4599  0.8329  0.8991
  349TIP3    H222463   1.671   6.760  13.860 -0.0617 -1.9413  0.7563
  350TIP3   OH222464   5.802   1.513   0.053 -0.2471  0.3356 -0.0402
  350TIP3    H122465   5.740   1.501  -0.019  0.3139  0.3747 -0.5473
  350TIP3    H222466   5.768   1.588   0.102  0.3400  1.5067 -1.3566
  351TIP3   OH222467   4.878   2.329  13.774 -0.4589 -0.1849 -0.1567
  351TIP3    H122468   4.905   2.328  13.866  0.6882 -2.1572 -0.4822
  351TIP3    H222469   4.891   2.239  13.745 -1.4618  0.2745 -2.0740
  352TIP3   OH222470   1.653   1.406  17.020 -0.3916  0.1435 -0.3090
  352TIP3    H122471   1.587   1.353  16.976  1.8914 -1.3810 -2.0254
  352TIP3    H222472   1.732   1.351  17.021  1.5862  2.8271 -0.6477
  353TIP3   OH222473   0.465   6.651   2.452  0.1734  0.1917  0.2525
  353TIP3    H122474   0.463   6.746   2.444 -0.9375  0.1393 -0.1706
  353TIP3    H222475   0.425   6.633   2.537  0.4018  0.1054  0.3412
  354TIP3   OH222476   2.713   3.173  14.229 -0.0121  0.5447 -0.0359
  354TIP3    H122477   2.621   3.177  14.202  0.1313  0.3398 -0.5575
  354TIP3    H222478   2.741   3.085  14.206 -0.7473 -0.7171  3.6264
  355TIP3   OH222479   3.673   1.494  16.499 -0.0943  0.4465  0.4685
  355TIP3    H122480   3.606   1.461  16.439 -1.7087  2.0705  1.3643
  355TIP3    H222481   3.625   1.522  16.577  1.8821 -0.6874  2.1399
  356TIP3   OH222482   2.242   3.385  15.305 -0.4168  0.1091  0.0277
  356TIP3    H122483   2.293   3.455  15.265 -0.1052  0.9750  1.8625
  356TIP3    H222484   2.186   3.352  15.234  1.0758  0.6497 -1.4327
  357TIP3   OH222485   2.794   2.286  14.436  0.1293  0.2947  0.4504
  357TIP3    H122486   2.780   2.368  14.388  0.2402 -0.2166 -0.4786
  357TIP3    H222487   2.734   2.291  14.510  1.7362  2.2029  1.6591
  358TIP3   OH222488   6.457   0.242  16.699 -0.1741  0.1842 -0.4093
  358TIP3    H122489   6.506   0.226  16.619  1.0262 -0.2611  0.3945
  358TIP3    H222490   6.377   0.190  16.689  0.4791 -0.7409 -0.8361
  359TIP3   OH222491   5.798   0.244  16.936 -0.4399  0.1334 -0.3263
  359TIP3    H122492   5.743   0.193  16.995 -0.2216  1.4889  1.0904
  359TIP3    H222493   5.880   0.195  16.930 -0.7457 -0.4044 -0.1287
  360TIP3   OH222494   6.560   3.729  10.711 -0.2212  0.2540 -0.3819
  360TIP3    H122495   6.493   3.660  10.718 -0.0289  0.2761  1.8399
  360TIP3    H222496   6.642   3.682  10.702 -0.0163  0.1821  1.8321
  361TIP3   OH222497   2.569   0.612  14.758  0.0662 -0.3171  0.1450
  361TIP3    H122498   2.528   0.695  14.781  1.0330  0.1918  0.0658
  361TIP3    H222499   2.513   0.545  14.798 -0.7247  0.3681  0.1902
  362TIP3   OH222500   6.461   5.727  15.754 -0.2782  0.5944 -0.7664
  362TIP3    H122501   6.491   5.667  15.686  0.3734 -1.2980  1.0942
  362TIP3    H222502   6.542   5.768  15.787 -0.1740 -1.0171  1.0924
  363TIP3   OH222503   3.604   1.201  13.435 -0.0793 -0.3591 -0.3067
  363TIP3    H122504   3.611   1.270  13.500  0.2109  0.6938 -1.4264
  363TIP3    H222505   3.537   1.232  13.374 -4.2782 -3.6817  2.3008
  364TIP3   OH222506   2.341   1.095   0.200  0.2940 -0.1417  0.1939
  364TIP3    H122507   2.367   1.153   0.272  1.3476  0.3262 -0.5592
  364TIP3    H222508   2.246   1.107   0.194  0.4414  1.1963  0.3122
  365TIP3   OH222509   1.060   0.622   3.013 -0.3919  0.3893  0.6143
  365TIP3    H122510   0.988   0.598   2.954 -0.2537 -1.1328  1.0366
  365TIP3    H222511   1.139   0.598   2.965 -0.1366  2.4699 -0.0284
  366TIP3   OH222512   5.579   6.029   4.131  0.0349 -0.0182 -0.1524
  366TIP3    H122513   5.549   6.120   4.133  1.6739  0.5660 -1.5374
  366TIP3    H222514   5.546   5.995   4.048 -0.0796 -0.5206  0.0961
  367TIP3   OH222515   5.075   4.281  10.681  0.0110 -0.0492 -0.2286
  367TIP3    H122516   4.989   4.304  10.646 -0.1420 -1.3064 -0.7304
  367TIP3    H222517   5.056   4.221  10.753  0.5125 -1.7482 -1.4848
  368TIP3   OH222518   4.769   6.394   0.625 -0.0480 -0.3107  0.3489
  368TIP3    H122519   4.812   6.426   0.546  0.0212 -0.6741  0.2388
  368TIP3    H222520   4.807   6.307   0.639  0.8548  0.2437  1.4603
  369TIP3   OH222521   6.647   4.654   0.749 -0.1152 -0.2997  0.0323
  369TIP3    H122522   6.614   4.661   0.659 -0.5114  0.9387  0.2633
  369TIP3    H222523   6.728   4.604   0.741 -0.4748 -0.7443 -0.9326
  370TIP3   OH222524   3.208   0.528  11.723 -0.4502  0.6532  0.1588
  370TIP3    H122525   3.240   0.616  11.705  0.5203  0.7810  2.3383
  370TIP3    H222526   3.156   0.538  11.803  1.2582 -1.0578  1.5279
  371TIP3   OH222527   1.671   4.463   5.506  0.2481  0.3526  0.0746
  371TIP3    H122528   1.747   4.468   5.447 -1.3515 -1.7522 -2.2565
  371TIP3    H222529   1.598   4.497   5.453 -0.8436  0.3645  1.5610
  372TIP3   OH222530   0.951   4.338   4.104  0.5595  0.0623 -0.3691
  372TIP3    H122531   1.025   4.390   4.134 -0.9438  1.6554  0.6757
  372TIP3    H222532   0.920   4.384   4.025  0.2254 -0.1730 -0.3774
  373TIP3   OH222533   2.839   1.128  15.985  0.2943 -0.1816  0.3245
  373TIP3    H122534   2.853   1.034  15.980  0.3383 -0.1386 -0.6083
  373TIP3    H222535   2.776   1.140  16.056 -0.8491 -1.0477 -0.5276
  374TIP3   OH222536   1.200   6.281   2.552  0.8250 -0.2606 -0.1860
  374TIP3    H122537   1.184   6.374   2.564  1.0136 -0.1039 -1.0566
  374TIP3    H222538   1.253   6.255   2.627 -1.8234 -0.3683  1.7163
  375TIP3   OH222539   6.272   1.952  12.895  0.3754 -1.1490 -0.3282
  375TIP3    H122540   6.203   1.935  12.959  1.7284 -1.8897  0.9519
  375TIP3    H222541   6.336   2.004  12.942  0.0052  0.8609 -1.9514
  376TIP3   OH222542   2.963   2.817   2.485 -0.3526 -0.6723 -0.2326
  376TIP3    H122543   2.989   2.820   2.577 -0.4312  1.5144 -0.2560
  376TIP3    H222544   3.045   2.801   2.438  0.2176  1.3597  0.0252
  377TIP3   OH222545   5.624   4.327   0.574  0.0094 -0.3256  0.3099
  377TIP3    H122546   5.679   4.289   0.643  2.4834 -0.7599 -1.8115
  377TIP3    H222547   5.659   4.289   0.493 -2.3438  0.7599 -1.2494
  378TIP3   OH222548   1.321   2.071  13.573  0.5748 -0.6070 -0.1919
  378TIP3    H122549   1.261   2.090  13.500  0.4012 -1.0902 -0.1757
  378TIP3    H222550   1.374   1.997  13.541  1.1533 -0.1983 -0.2004
  379TIP3   OH222551   0.443   5.930   3.947 -0.1252 -0.5606  0.2033
  379TIP3    H122552   0.467   5.884   4.028 -0.6727 -0.1193  0.6223
  379TIP3    H222553   0.491   6.013   3.952 -1.5515  0.2390  0.9496
  380TIP3   OH222554   4.465   0.644   4.842  0.0332 -0.2023  0.1032
  380TIP3    H122555   4.428   0.571   4.793  0.0956 -0.4328  0.3953
  380TIP3    H222556   4.553   0.614   4.866  0.3187  0.2431 -0.3772
  381TIP3   OH222557   0.944   6.050   6.017  1.0985  0.1484 -0.7112
  381TIP3    H122558   1.014   6.113   6.002  0.8759  0.6911  0.4668
  381TIP3    H222559   0.864   6.102   6.012  0.9178 -0.0152  0.3208
  382TIP3   OH222560   6.160   4.716   1.700  0.4478 -0.1121 -0.1029
  382TIP3    H122561   6.076   4.683   1.670  0.5933  0.2748 -0.9339
  382TIP3    H222562   6.195   4.646   1.755 -0.0222 -0.6293 -0.4632
  383TIP3   OH222563   5.010   5.269   4.097 -0.8072  0.1215  0.4145
  383TIP3    H122564   5.054   5.243   4.178 -0.1667 -0.1469 -0.0161
  383TIP3    H222565   4.933   5.318   4.126 -0.6443 -0.0735  1.1872
  384TIP3   OH222566   1.857   1.840   3.662  0.0518 -0.3534 -0.2242
  384TIP3    H122567   1.864   1.754   3.703  1.0952 -0.8960 -1.4803
  384TIP3    H222568   1.781   1.881   3.703  0.4924 -1.2491  1.5113
  385TIP3   OH222569   4.338   6.562  11.143 -0.4532  0.2285  0.1991
  385TIP3    H122570   4.305   6.480  11.105 -4.3313  1.2120  1.1658
  385TIP3    H222571   4.419   6.537  11.186 -0.5364 -2.7148 -1.1993
  386TIP3   OH222572   3.904   1.084  12.384 -0.0424  0.6526  0.5938
  386TIP3    H122573   3.912   1.163  12.436 -1.8521  1.1972  0.1013
  386TIP3    H222574   3.819   1.092  12.341 -0.4001 -1.6821  0.7630
  387TIP3   OH222575   5.988   0.936   0.273  0.1016 -0.2760 -0.0390
  387TIP3    H122576   6.006   0.848   0.306  0.1146  0.3570  1.7312
  387TIP3    H222577   6.066   0.986   0.296 -1.3058  1.0033  2.0978
  388TIP3   OH222578   4.040   6.277  15.118 -0.4925  0.5465 -0.0442
  388TIP3    H122579   4.028   6.189  15.155  1.4829  0.4126  0.3300
  388TIP3    H222580   4.076   6.262  15.031  0.0161  0.9952  0.0885
  389TIP3   OH222581   0.267   2.575   0.167  0.3429 -0.1005  0.5647
  389TIP3    H122582   0.187   2.547   0.123  1.1993 -1.5150 -0.1182
  389TIP3    H222583   0.250   2.666   0.192 -2.0389 -0.8778  1.8205
  390TIP3   OH222584   2.844   2.355   5.443  0.0610  0.0800 -0.5825
  390TIP3    H122585   2.770   2.358   5.503  0.2210 -2.2758 -0.2238
  390TIP3    H222586   2.815   2.299   5.371  1.2305 -0.2775 -0.7873
  391TIP3   OH222587   5.298   2.493   3.956  0.1036 -0.5041 -0.0074
  391TIP3    H122588   5.376   2.512   3.904 -0.3689  0.8307 -0.2272
  391TIP3    H222589   5.289   2.569   4.014 -0.3176 -1.2300  0.8929
  392TIP3   OH222590   4.957   1.067  15.765  0.5304  0.6000  0.0664
  392TIP3    H122591   4.959   0.979  15.803  2.7203  0.9209  0.7753
  392TIP3    H222592   4.867   1.096  15.778  0.4573 -0.4613  2.3518
  393TIP3   OH222593   4.140   2.920  14.337 -0.0276 -0.1973 -0.7030
  393TIP3    H122594   4.125   2.827  14.321 -1.5046 -0.1812  0.4345
  393TIP3    H222595   4.110   2.964  14.257  0.7239 -0.6995 -1.2602
  394TIP3   OH222596   2.467   3.727  12.105  0.1926  0.1081  0.7927
  394TIP3    H122597   2.385   3.693  12.068  0.1183 -0.5514  1.5307
  394TIP3    H222598   2.492   3.661  12.169  0.6321  0.9415  1.4817
  395TIP3   OH222599   4.110   2.747  14.919 -0.5774  0.1116 -0.1028
  395TIP3    H122600   4.056   2.757  14.997 -0.3880  2.2668 -0.2148
  395TIP3    H222601   4.197   2.725  14.953 -0.0719  2.7995  0.4061
  396TIP3   OH222602   4.607   4.849  16.270  0.0235  0.5582 -0.5034
  396TIP3    H122603   4.697   4.878  16.281 -0.1514  1.6356 -1.8283
  396TIP3    H222604   4.577   4.892  16.190 -1.8603  0.6906  0.2429
  397TIP3   OH222605   4.948   1.250   2.068 -0.1323  0.4173  0.0784
  397TIP3    H122606   4.966   1.162   2.101 -0.2295 -0.1468 -1.3453
  397TIP3    H222607   4.937   1.303   2.147  1.5952 -0.4850  0.9466
  398TIP3   OH222608   3.385   1.168   4.876 -0.3302  0.0031  0.0042
  398TIP3    H122609   3.329   1.132   4.945  0.3797 -0.3409  0.3973
  398TIP3    H222610   3.324   1.187   4.804 -0.7221 -2.0059 -0.2210
  399TIP3   OH222611   5.421   5.679   5.103  0.6762 -0.0045  0.4543
  399TIP3    H122612   5.474   5.673   5.024 -0.0485 -1.4945  0.0598
  399TIP3    H222613   5.418   5.590   5.138 -0.2704  0.3430  1.3127
  400TIP3   OH222614   4.012   2.975   5.286  0.5579 -0.1854 -0.0392
  400TIP3    H122615   4.077   2.943   5.348  2.9457 -0.5138 -2.6407
  400TIP3    H222616   4.034   3.067   5.273 -1.2562  0.4572  1.1590
  401TIP3   OH222617   4.132   4.803   2.545 -0.2714 -0.0259  0.1475
  401TIP3    H122618   4.143   4.716   2.583 -0.5080  0.7038  1.9047
  401TIP3    H222619   4.056   4.795   2.487 -0.3307 -0.9659  0.3588
  402TIP3   OH222620   4.839   2.082  16.561  0.1537  0.3387 -0.2342
  402TIP3    H122621   4.933   2.098  16.567  0.2961 -0.0868 -1.2530
  402TIP3    H222622   4.801   2.167  16.541  0.5625  0.0997 -2.1253
  403TIP3   OH222623   5.295   5.989  11.196  0.2886  0.3248 -0.0399
  403TIP3    H122624   5.348   5.999  11.275 -0.0588 -0.4554  0.2924
  403TIP3    H222625   5.262   5.900  11.200 -3.0738  1.5339  1.0048
  404TIP3   OH222626   1.098   0.296   2.542  0.0265  0.2698 -0.1491
  404TIP3    H122627   1.165   0.266   2.481  0.0135  0.4825 -0.2686
  404TIP3    H222628   1.025   0.237   2.528  0.7199 -0.8698  1.0147
  405TIP3   OH222629   5.883   1.864   0.072 -0.1525 -0.1345 -0.1861
  405TIP3    H122630   5.791   1.872   0.098 -0.3961  0.4367 -1.2212
  405TIP3    H222631   5.885   1.887  -0.021  1.0362 -0.1465 -0.1811
  406TIP3   OH222632   2.118   2.230  16.840 -0.2409 -0.2212  0.4020
  406TIP3    H122633   2.058   2.276  16.782 -1.2000  0.3468  1.8041
  406TIP3    H222634   2.197   2.283  16.839  0.3469 -1.0873 -1.6194
  407TIP3   OH222635   4.954   0.790  14.743  0.7788  0.4983 -0.0328
  407TIP3    H122636   4.917   0.855  14.802 -0.3909 -1.4852  1.4980
  407TIP3    H222637   4.963   0.711  14.797  0.2298 -1.1997 -2.3563
  408TIP3   OH222638   3.196   3.973  14.727 -0.1613  0.1562 -0.0710
  408TIP3    H122639   3.167   3.912  14.659  0.1735 -0.9912  0.8055
  408TIP3    H222640   3.245   4.040  14.680 -0.7591 -0.1075 -1.0773
  409TIP3   OH222641   5.486   6.228   3.347  0.3353  0.3125  0.5318
  409TIP3    H122642   5.565   6.227   3.292 -0.0228 -0.7893  0.0242
  409TIP3    H222643   5.491   6.148   3.399 -0.1080  0.5792  0.9943
  410TIP3   OH222644   1.626   3.491  13.543 -0.0022 -0.4098  0.3383
  410TIP3    H122645   1.542   3.535  13.551 -0.0913 -0.8263  1.8550
  410TIP3    H222646   1.639   3.482  13.449 -1.8600 -0.7575  0.0951
  411TIP3   OH222647   2.112   3.254  11.976 -0.2297 -0.8128  0.1006
  411TIP3    H122648   2.193   3.301  11.955 -1.3041  0.8915 -0.3636
  411TIP3    H222649   2.108   3.184  11.912 -0.0428  0.2237 -1.0705
  412TIP3   OH222650   0.608   6.421  14.420  0.5990 -0.4447 -0.0225
  412TIP3    H122651   0.686   6.413  14.365 -0.5362 -0.1061 -1.7185
  412TIP3    H222652   0.635   6.476  14.493  1.7009  0.4450 -1.0865
  413TIP3   OH222653   1.220   4.422  11.886  0.1117 -0.5602  0.0992
  413TIP3    H122654   1.306   4.382  11.872 -0.5643 -2.0340  0.1021
  413TIP3    H222655   1.225   4.458  11.975  0.6176 -0.9213  0.2223
  414TIP3   OH222656   5.374   3.732   0.993  0.2034  0.3610  0.2344
  414TIP3    H122657   5.374   3.771   1.080 -0.4892 -1.3228  1.0066
  414TIP3    H222658   5.296   3.677   0.991  1.3318 -1.2504 -0.6834
  415TIP3   OH222659   4.147   1.221   0.492 -0.7654 -0.3647  0.0932
  415TIP3    H122660   4.107   1.288   0.548 -0.3503  0.2955 -0.3909
  415TIP3    H222661   4.221   1.266   0.452 -1.0185 -0.8629 -0.9302
  416TIP3   OH222662   3.172   0.889   5.382 -0.0738  0.4919  0.4156
  416TIP3    H122663   3.201   0.848   5.464  0.8539  1.1776  0.4392
  416TIP3    H222664   3.215   0.837   5.314  1.0409  1.3707  0.4432
  417TIP3   OH222665   3.518   1.826   5.928 -0.4488  0.4796 -0.5038
  417TIP3    H122666   3.441   1.807   5.874 -2.1718 -1.3008  2.4264
  417TIP3    H222667   3.560   1.740   5.939  0.1898  0.9276  0.5289
  418TIP3   OH222668   4.289   0.068   4.752 -0.2905 -0.6436  0.0834
  418TIP3    H122669   4.384   0.078   4.764 -0.2750  1.7986 -1.7645
  418TIP3    H222670   4.280   0.001   4.685  0.0906 -1.2942  0.6684
  419TIP3   OH222671   4.059   0.169   1.053  0.5491 -0.1518  0.3042
  419TIP3    H122672   4.080   0.148   0.962  0.7198  0.3878  0.2172
  419TIP3    H222673   3.964   0.174   1.055  0.5045 -0.8785  0.3174
  420TIP3   OH222674   3.515   2.658  16.953 -0.0330 -0.1725 -0.5505
  420TIP3    H122675   3.598   2.685  16.912  0.5381  1.2258  1.4979
  420TIP3    H222676   3.452   2.725  16.927  0.3560  0.7777  0.9106
  421TIP3   OH222677   4.589   6.542  11.244  0.0122 -0.1082 -0.6062
  421TIP3    H122678   4.591   6.449  11.267 -0.5479 -0.0279 -0.2194
  421TIP3    H222679   4.653   6.551  11.174  1.0213 -0.5472  0.2456
  422TIP3   OH222680   1.066   2.862   3.091 -0.0368  0.0403  0.2840
  422TIP3    H122681   1.128   2.925   3.127 -0.1062  0.1816  0.1597
  422TIP3    H222682   1.091   2.778   3.129 -1.0473  0.4267  1.8614
  423TIP3   OH222683   6.094   3.612   1.188 -0.0201  0.0214  0.0393
  423TIP3    H122684   6.052   3.652   1.112  2.7889  0.7427 -1.1923
  423TIP3    H222685   6.056   3.525   1.193 -2.6346  1.1004 -0.1921
  424TIP3   OH222686   5.360   3.288   3.681  0.0918 -0.7034 -0.1214
  424TIP3    H122687   5.443   3.242   3.668 -0.1698 -1.9325  2.3386
  424TIP3    H222688   5.302   3.253   3.614  0.8635 -1.5982 -0.3250
  425TIP3   OH222689   4.825   1.146   5.475 -0.6314  0.6579  0.1420
  425TIP3    H122690   4.769   1.222   5.459 -0.0955  0.9873 -0.2143
  425TIP3    H222691   4.860   1.124   5.388 -0.4575  0.2570  0.3116
  426TIP3   OH222692   6.233   4.605  13.750 -0.0865 -0.1694  0.1842
  426TIP3    H122693   6.144   4.589  13.720 -0.3631 -0.7899  1.3097
  426TIP3    H222694   6.282   4.527  13.721  0.1093  0.2047 -0.4975
  427TIP3   OH222695   4.991   0.093   2.654  0.2002  0.4018  0.1045
  427TIP3    H122696   5.012   0.006   2.687  0.1887 -0.0742 -1.1142
  427TIP3    H222697   4.943   0.076   2.573 -3.7904  1.4455  2.1268
  428TIP3   OH222698   0.115   1.037   4.565  0.0068  0.0258  0.4400
  428TIP3    H122699   0.036   1.090   4.557 -0.2350 -0.5759 -1.2772
  428TIP3    H222700   0.092   0.968   4.627  0.7300  2.5853  3.7787
  429TIP3   OH222701   2.957   2.326   6.269 -0.1166 -0.0426  0.9223
  429TIP3    H122702   3.029   2.358   6.324  0.4867  0.0237  0.0990
  429TIP3    H222703   2.884   2.384   6.290  1.1716  2.4399 -1.1036
  430TIP3   OH222704   3.872   4.590   2.672  0.6197  0.4522  0.2177
  430TIP3    H122705   3.894   4.498   2.659 -0.7428 -0.0401  1.2912
  430TIP3    H222706   3.777   4.590   2.687  0.7192  1.9488  0.9497
  431TIP3   OH222707   4.219   2.385   1.387  0.4783 -0.4246  0.1394
  431TIP3    H122708   4.281   2.314   1.406 -0.2817 -1.1503 -0.0752
  431TIP3    H222709   4.140   2.361   1.436 -0.4739 -0.7727 -1.5401
  432TIP3   OH222710   2.132   1.436  11.450 -0.1887  0.3195 -0.1465
  432TIP3    H122711   2.222   1.467  11.459  0.4958 -1.8070  0.5759
  432TIP3    H222712   2.105   1.465  11.363 -0.3472  4.7892  1.2775
  433TIP3   OH222713   1.440   5.992   4.309 -0.0216  0.5128  0.5171
  433TIP3    H122714   1.395   6.048   4.372 -0.6180 -0.8844  1.3365
  433TIP3    H222715   1.402   6.015   4.225 -0.1592  1.4454  0.8280
  434TIP3   OH222716   3.349   4.975   1.261 -0.4192 -0.6467  0.2092
  434TIP3    H122717   3.325   5.053   1.212  1.3800  0.5298  1.1363
  434TIP3    H222718   3.316   4.902   1.209 -0.4078  0.6650 -1.6462
  435TIP3   OH222719   1.703   6.000   4.325 -0.1593 -0.3553  0.1388
  435TIP3    H122720   1.712   5.964   4.236 -1.6832 -0.5991  0.0606
  435TIP3    H222721   1.610   6.023   4.331 -0.0515 -0.3181  1.6691
  436TIP3   OH222722   4.028   1.202   5.896 -0.2661  0.0060  0.4835
  436TIP3    H122723   3.941   1.198   5.937  0.0692  0.0145  1.2077
  436TIP3    H222724   4.044   1.296   5.886 -0.7553 -0.0120 -0.5636
  437TIP3   OH222725   6.548   4.733   2.600 -0.3923  0.2350  0.1178
  437TIP3    H122726   6.467   4.769   2.564 -0.4680  1.1220  1.1499
  437TIP3    H222727   6.537   4.740   2.695  1.0185  0.6454  0.2551
  438TIP3   OH222728   4.946   6.556   2.496  0.2563 -0.3354 -0.1874
  438TIP3    H122729   4.860   6.521   2.519  1.2255 -2.0417  0.9445
  438TIP3    H222730   4.927   6.634   2.444 -1.9937  0.6272  2.0028
  439TIP3   OH222731   4.809   0.801   4.160  0.0328 -0.1408  0.7618
  439TIP3    H122732   4.736   0.829   4.215  0.0687  1.6440 -0.0342
  439TIP3    H222733   4.771   0.739   4.099 -0.6326  0.0911  0.9357
  440TIP3   OH222734   0.804   0.288  15.532  0.3812  0.7898  0.0386
  440TIP3    H122735   0.813   0.199  15.564  3.1419  0.8258 -0.5864
  440TIP3    H222736   0.861   0.340  15.588  1.5851  1.5926 -1.8916
  441TIP3   OH222737   1.606   6.660   1.451  0.2035 -0.1769  0.6101
  441TIP3    H122738   1.544   6.732   1.461  2.3658  1.8188  0.1611
  441TIP3    H222739   1.616   6.650   1.357  0.6310 -0.4122  0.6796
  442TIP3   OH222740   3.725   4.562   1.572 -0.7505  0.6350 -0.4028
  442TIP3    H122741   3.744   4.557   1.666  0.1863  0.5037 -0.5980
  442TIP3    H222742   3.799   4.611   1.536 -2.0898  2.4252 -0.7829
  443TIP3   OH222743   4.070   3.642  11.932 -0.0263 -0.0722 -0.3656
  443TIP3    H122744   4.067   3.675  12.021  0.5900 -0.7817 -0.0810
  443TIP3    H222745   4.007   3.697  11.884 -2.5655 -1.5779  1.1398
  444TIP3   OH222746   0.835   6.297   4.627  0.4809  0.3100  0.2853
  444TIP3    H122747   0.929   6.314   4.637  0.2225  1.1737  1.3355
  444TIP3    H222748   0.812   6.341   4.545  0.6673  1.5404  0.8790
  445TIP3   OH222749   4.943   4.469  15.169 -0.2763 -0.8369 -0.0032
  445TIP3    H122750   5.007   4.522  15.122 -0.6299  1.2021  1.7310
  445TIP3    H222751   4.861   4.518  15.163 -1.3202 -2.6002 -0.7831
  446TIP3   OH222752   4.602   0.143  17.185 -0.4442  0.1673 -0.4320
  446TIP3    H122753   4.603   0.225  17.136 -1.3712 -0.0862 -0.8711
  446TIP3    H222754   4.561   0.166  17.268  1.0749  0.5832  0.2365
  447TIP3   OH222755   6.143   2.760   3.053  0.5361  0.2845 -0.2920
  447TIP3    H122756   6.200   2.768   3.129  1.9795  0.2191 -1.3574
  447TIP3    H222757   6.072   2.823   3.070  0.9140  0.3613  1.0404
  448TIP3   OH222758   6.241   2.297   2.648  0.2166  0.3452  0.3411
  448TIP3    H122759   6.196   2.232   2.594 -0.9705  0.0302  1.6755
  448TIP3    H222760   6.301   2.245   2.702  1.4637  0.6661 -0.6942
  449TIP3   OH222761   6.248   4.396  13.074  0.1560 -0.1307 -0.3291
  449TIP3    H122762   6.198   4.360  13.002  0.0861 -1.1656  0.2266
  449TIP3    H222763   6.184   4.413  13.143  0.6880 -2.4512  0.7713
  450TIP3   OH222764   0.071   2.987   0.446 -0.9342 -0.9148  0.1559
  450TIP3    H122765   0.071   3.062   0.386 -0.7937 -1.1258 -0.1097
  450TIP3    H222766   0.070   3.025   0.533  0.2382 -0.5947  0.0339
  451TIP3   OH222767   5.785   2.653   5.248  0.1128  0.0845  0.3328
  451TIP3    H122768   5.726   2.615   5.312  0.3513 -1.1952 -0.1851
  451TIP3    H222769   5.795   2.745   5.275 -0.9384 -0.0700  1.2564
  452TIP3   OH222770   0.164   1.204  15.306 -0.1028  0.4450  0.4155
  452TIP3    H122771   0.240   1.152  15.278 -0.1934  0.3687  0.3107
  452TIP3    H222772   0.111   1.212  15.227  0.3604  1.4884  0.2018
  453TIP3   OH222773   1.013   6.587   3.809  0.2631  0.0037  0.3606
  453TIP3    H122774   0.984   6.584   3.718  2.0327 -0.1114 -0.2285
  453TIP3    H222775   1.037   6.678   3.824 -1.7286  0.4002  1.2938
  454TIP3   OH222776   5.697   3.275  14.134  0.4074 -0.4422  0.1212
  454TIP3    H122777   5.745   3.340  14.082 -1.6711  0.9602 -0.1358
  454TIP3    H222778   5.630   3.242  14.074  0.8180 -2.1141  0.5703
  455TIP3   OH222779   3.418   5.125  12.909  0.5489  0.7204  0.1609
  455TIP3    H122780   3.388   5.197  12.965  0.2087 -0.0951  1.0253
  455TIP3    H222781   3.346   5.063  12.909  0.9227  0.2847 -0.4411
  456TIP3   OH222782   5.189   5.353  14.994 -0.6562  0.1452  0.0198
  456TIP3    H122783   5.207   5.277  15.050 -0.8496 -0.0976 -0.2479
  456TIP3    H222784   5.275   5.390  14.976 -0.4810 -0.5404 -0.5897
  457TIP3   OH222785   4.133   5.944  10.907 -0.2240  0.0470 -0.2068
  457TIP3    H122786   4.121   5.866  10.853 -0.6668  0.1363 -0.2357
  457TIP3    H222787   4.225   5.941  10.933 -0.6714 -1.4633  1.3096
  458TIP3   OH222788   4.690   2.291  10.572 -0.6375 -0.0361 -0.4083
  458TIP3    H122789   4.633   2.363  10.543 -1.9463 -0.5796  0.7336
  458TIP3    H222790   4.630   2.229  10.615  0.6960 -1.0703 -0.0025
  459TIP3   OH222791   0.504   1.545   2.077 -0.3888  0.3981  0.4237
  459TIP3    H122792   0.479   1.523   1.987 -3.0848  0.6895  1.0673
  459TIP3    H222793   0.480   1.467   2.128  1.1002  0.2476  0.9024
  460TIP3   OH222794   4.029   0.415  14.146 -0.4312 -0.2283  0.3900
  460TIP3    H122795   4.021   0.510  14.147  0.4961 -0.1467  1.3430
  460TIP3    H222796   3.942   0.383  14.124 -0.7031  0.8467 -0.0833
  461TIP3   OH222797   0.784   6.251  14.688  0.1022 -0.6082  0.3139
  461TIP3    H122798   0.719   6.310  14.649 -0.1987 -1.5112 -0.5606
  461TIP3    H222799   0.836   6.220  14.614  1.8914  0.5203  1.0696
  462TIP3   OH222800   4.828   3.457   2.133 -0.4396 -0.0913  0.2635
  462TIP3    H122801   4.752   3.487   2.182 -0.3177  2.3007 -0.9364
  462TIP3    H222802   4.903   3.499   2.175 -0.1335  0.3496 -0.7115
  463TIP3   OH222803   6.683   1.355   1.611 -0.2282  0.7804 -0.3934
  463TIP3    H122804   6.631   1.395   1.541 -0.2245  1.1345 -0.1953
  463TIP3    H222805   6.652   1.265   1.615 -1.4034  1.1968  0.2732
  464TIP3   OH222806   0.435   6.525  11.734 -0.0274 -0.1661 -0.0130
  464TIP3    H122807   0.415   6.438  11.699 -0.5786 -0.1527  0.2534
  464TIP3    H222808   0.472   6.508  11.820  1.0627 -0.1873 -0.4778
  465TIP3   OH222809   2.899   5.102   2.715  0.3678  0.1308 -0.4074
  465TIP3    H122810   2.897   5.011   2.746 -0.8454 -0.0455 -0.9482
  465TIP3    H222811   2.881   5.095   2.621 -1.9918  1.0703 -0.0554
  466TIP3   OH222812   5.197   5.335   0.051 -0.5605  0.2106  0.3077
  466TIP3    H122813   5.111   5.371   0.026  0.0796  0.8422 -1.0563
  466TIP3    H222814   5.249   5.341  -0.029  0.0985 -2.2029  0.5064
  467TIP3   OH222815   2.066   3.247   0.790 -0.5089 -0.4433 -0.4848
  467TIP3    H122816   2.042   3.178   0.852  0.8900 -2.6734 -2.3339
  467TIP3    H222817   2.087   3.323   0.845 -1.0397 -1.8180  1.6552
  468TIP3   OH222818   6.202   4.780   0.417 -0.4207  0.1263 -0.1615
  468TIP3    H122819   6.166   4.725   0.487  0.4772 -1.1075 -0.6643
  468TIP3    H222820   6.208   4.867   0.457 -1.2027 -0.2734  0.8609
  469TIP3   OH222821   3.055   6.496   5.431 -0.0304 -0.1729 -0.8618
  469TIP3    H122822   3.044   6.528   5.520  0.2032  1.0160 -1.2411
  469TIP3    H222823   3.079   6.404   5.440 -1.7797 -0.5442  0.2407
  470TIP3   OH222824   1.113   2.765  16.035 -0.0095  0.0405 -0.2715
  470TIP3    H122825   1.145   2.696  16.092  0.9882  0.5635 -0.1889
  470TIP3    H222826   1.192   2.806  15.999 -0.5639  1.3385 -0.0641
  471TIP3   OH222827   0.884   6.064  14.465  0.0669  0.5473  0.5224
  471TIP3    H122828   0.847   6.054  14.377 -1.1910  0.3604  1.0642
  471TIP3    H222829   0.823   6.018  14.522  1.3281 -0.0659  1.4021
  472TIP3   OH222830   0.753   2.029   4.544 -0.3140 -0.2045  0.0695
  472TIP3    H122831   0.711   2.035   4.458 -0.8449  2.3333  0.4535
  472TIP3    H222832   0.786   2.118   4.560  0.9556 -0.9838  1.8977
  473TIP3   OH222833   6.014   1.962  14.055 -0.7058  0.3957 -0.0572
  473TIP3    H122834   5.955   1.888  14.064 -1.9209  1.1680 -1.4824
  473TIP3    H222835   6.040   1.983  14.145 -0.0114 -1.9827  0.3304
  474TIP3   OH222836   1.271   2.076  17.135  0.1454  0.2332 -0.3507
  474TIP3    H122837   1.355   2.088  17.091 -0.5716  0.6270 -1.6139
  474TIP3    H222838   1.282   1.996  17.186  1.4760  0.5984 -0.0507
  475TIP3   OH222839   0.984   4.540   2.823  0.0215  0.6937 -0.3674
  475TIP3    H122840   0.970   4.478   2.895  1.5817  0.3257 -0.3619
  475TIP3    H222841   0.955   4.624   2.858  1.0459  0.5787  0.8281
  476TIP3   OH222842   4.422   0.737  16.372  0.6769  0.0980  0.2446
  476TIP3    H122843   4.387   0.747  16.461  0.9191 -1.8943  0.5930
  476TIP3    H222844   4.486   0.807  16.364  0.7374  0.2418  1.7057
  477TIP3   OH222845   4.978   0.567  12.663  0.4038 -0.0210  0.4854
  477TIP3    H122846   4.949   0.476  12.648 -1.9419  0.4561  1.8276
  477TIP3    H222847   5.071   0.559  12.684  1.4741 -1.6305 -4.0614
  478TIP3   OH222848   4.113   4.477   4.504  1.1878  0.0967  0.4123
  478TIP3    H122849   4.026   4.444   4.528  0.3812  0.2958 -2.0421
  478TIP3    H222850   4.111   4.569   4.530  1.5033 -0.4363  2.4067
  479TIP3   OH222851   0.906   4.664   0.716  0.1788  0.1674 -0.1453
  479TIP3    H122852   0.874   4.575   0.700  1.3024 -0.2655 -0.0718
  479TIP3    H222853   0.850   4.698   0.785 -0.3415 -0.4455 -0.2675
  480TIP3   OH222854   6.052   5.953   3.332 -0.2110  0.4205  0.0846
  480TIP3    H122855   6.030   5.949   3.239 -1.1900 -0.0496  0.3188
  480TIP3    H222856   6.094   5.868   3.350 -2.0554 -0.4238  0.5421
  481TIP3   OH222857   5.253   1.864   1.546 -0.0013 -0.0457  0.3780
  481TIP3    H122858   5.165   1.881   1.513 -0.1088 -0.1981  0.5816
  481TIP3    H222859   5.254   1.903   1.633  0.6218  1.2821 -0.2229
  482TIP3   OH222860   0.147   3.118  15.939 -0.6426  0.8056  0.0336
  482TIP3    H122861   0.214   3.119  16.006 -0.5868 -1.2067  0.0440
  482TIP3    H222862   0.192   3.089  15.860 -1.3114  0.2452 -0.1527
  483TIP3   OH222863   2.494   3.676  14.220  0.2600  0.4286  0.0081
  483TIP3    H122864   2.451   3.648  14.140 -0.4097  0.7374  0.2562
  483TIP3    H222865   2.583   3.643  14.212  0.2179  0.5216 -0.8928
  484TIP3   OH222866   1.093   3.567  14.050 -0.1185 -0.1227  0.3084
  484TIP3    H122867   1.134   3.565  13.963 -2.7485  0.7507 -1.0209
  484TIP3    H222868   1.017   3.509  14.042 -2.2191  2.4197  1.0151
  485TIP3   OH222869   2.079   2.330   2.591  0.3564 -0.2401  0.3850
  485TIP3    H122870   2.005   2.309   2.647 -3.2316  1.1768 -3.5563
  485TIP3    H222871   2.091   2.425   2.602 -0.2724  0.0207 -1.0384
  486TIP3   OH222872   2.057   5.712   3.581  0.0445 -0.8018 -0.0231
  486TIP3    H122873   2.105   5.629   3.573 -0.2969 -1.0770  0.6893
  486TIP3    H222874   2.017   5.725   3.495  0.7838 -0.9534 -0.3880
  487TIP3   OH222875   1.773   0.024  17.162  0.5507  0.1169  0.7355
  487TIP3    H122876   1.782  -0.025  17.080 -1.0347 -1.0620  1.2356
  487TIP3    H222877   1.821   0.105  17.147 -0.5944  0.3843 -1.7658
  488TIP3   OH222878   3.129   1.912  14.971  0.0897  0.2129  0.8594
  488TIP3    H122879   3.179   1.933  14.892 -0.3521 -0.7069  0.3285
  488TIP3    H222880   3.037   1.921  14.944 -0.0353  1.6850  1.7708
  489TIP3   OH222881   1.607   6.395  17.211  0.3651  0.5355 -0.2391
  489TIP3    H122882   1.572   6.430  17.293  2.2871  0.1468  0.7698
  489TIP3    H222883   1.544   6.423  17.145 -1.4376  0.5033  1.4134
  490TIP3   OH222884   5.288   6.500   6.404  0.5698 -0.2071 -0.0220
  490TIP3    H122885   5.221   6.432   6.405  1.4927 -1.1184 -0.1083
  490TIP3    H222886   5.355   6.467   6.345  0.6124  1.1796 -0.7773
  491TIP3   OH222887   4.217   4.779   3.035 -0.0178 -0.0468 -0.5654
  491TIP3    H122888   4.156   4.734   2.977 -1.1490 -0.9185  1.2634
  491TIP3    H222889   4.272   4.709   3.071  1.0298  0.5505 -0.9724
  492TIP3   OH222890   3.618   3.866  14.049  0.3212  0.0572  0.0276
  492TIP3    H122891   3.562   3.928  14.001  0.2971  0.7156  0.8932
  492TIP3    H222892   3.638   3.911  14.131 -2.2374 -2.3293  2.0489
  493TIP3   OH222893   0.190   5.970   5.880  0.9463  0.0580 -0.4776
  493TIP3    H122894   0.235   5.966   5.795 -0.9146 -0.2960 -1.4808
  493TIP3    H222895   0.135   5.892   5.881  1.4435 -0.2796  1.3588
  494TIP3   OH222896   4.150   5.967   6.240 -0.0098 -0.3818  0.3942
  494TIP3    H122897   4.148   5.921   6.324 -0.2526  1.4306  1.4247
  494TIP3    H222898   4.157   5.898   6.174  1.0366 -1.7994  1.9534
  495TIP3   OH222899   5.575   4.885  17.182  0.7839 -0.1627  0.2070
  495TIP3    H122900   5.526   4.814  17.140  2.6475 -1.0220 -0.6056
  495TIP3    H222901   5.592   4.853  17.271 -1.3214  0.7401  0.9436
  496TIP3   OH222902   4.942   2.766  16.965 -0.0961 -0.0985  0.0585
  496TIP3    H122903   4.877   2.834  16.948 -0.5094 -0.7089 -0.8450
  496TIP3    H222904   4.927   2.741  17.057 -1.6398 -0.7664 -0.3647
  497TIP3   OH222905   2.906   0.453   1.169  0.7446 -0.0442 -0.6248
  497TIP3    H122906   2.873   0.390   1.104 -0.1026  0.7399 -0.9769
  497TIP3    H222907   2.938   0.527   1.116  0.9164  0.1971 -0.1853
  498TIP3   OH222908   6.384   0.175  14.311  0.3305  0.1208  0.0580
  498TIP3    H122909   6.470   0.192  14.272  0.5859  0.2809  0.6962
  498TIP3    H222910   6.402   0.153  14.402  0.0445 -4.0113 -0.7910
  499TIP3   OH222911   1.759   0.705   2.337 -0.1942  0.0946 -0.6084
  499TIP3    H122912   1.727   0.769   2.401 -0.8314 -0.1029 -0.7289
  499TIP3    H222913   1.772   0.625   2.388  1.9014  0.6814 -0.1804
  500TIP3   OH222914   2.461   2.407  15.126  0.0220 -0.4890  0.2328
  500TIP3    H122915   2.469   2.347  15.051 -0.6264 -1.4785  0.9357
  500TIP3    H222916   2.502   2.488  15.096  0.1251 -0.9964 -1.0577
  501TIP3   OH222917   6.700   3.414  15.311  0.0581 -0.4016 -0.1321
  501TIP3    H122918   6.609   3.429  15.337 -0.2778 -0.7680 -1.1077
  501TIP3    H222919   6.746   3.401  15.394 -0.9383 -1.1079  0.3240
  502TIP3   OH222920   0.100   3.232   0.714  0.1528 -0.0987  0.5210
  502TIP3    H122921   0.132   3.267   0.631 -3.9093 -0.1130 -1.1864
  502TIP3    H222922   0.179   3.212   0.764  2.7076  0.3153 -3.1513
  503TIP3   OH222923   1.254   3.208   0.769  0.5772  0.3041 -0.0651
  503TIP3    H122924   1.273   3.115   0.769 -0.0736  0.1684  0.2104
  503TIP3    H222925   1.159   3.213   0.768  0.5947  0.9595  0.7809
  504TIP3   OH222926   6.703   1.906   1.546 -0.0072 -0.7779  0.1972
  504TIP3    H122927   6.624   1.959   1.549 -0.3296 -1.1963 -0.6389
  504TIP3    H222928   6.774   1.967   1.565 -0.5865 -0.5460  1.6787
  505TIP3   OH222929   0.877   5.020  15.180 -0.3126 -0.0378 -0.6794
  505TIP3    H122930   0.801   5.051  15.131 -0.4437  1.6881  0.5565
  505TIP3    H222931   0.895   5.090  15.243  0.6511 -1.6090  0.8473
  506TIP3   OH222932   5.366   4.484  16.010 -0.3382 -0.1498  0.1466
  506TIP3    H122933   5.402   4.396  16.012 -0.0062  0.0032  1.4707
  506TIP3    H222934   5.278   4.474  15.975  0.0813 -0.8628 -0.7114
  507TIP3   OH222935   0.357   2.701   3.737 -0.1176  0.4754  0.1011
  507TIP3    H122936   0.291   2.764   3.708  0.7756  2.1446  1.6480
  507TIP3    H222937   0.415   2.751   3.795  0.3762 -1.8545  1.6833
  508TIP3   OH222938   1.170   4.074   1.267 -0.3213  0.2653 -0.2672
  508TIP3    H122939   1.126   4.135   1.207 -1.1728 -0.0476  0.0313
  508TIP3    H222940   1.214   4.012   1.210  0.9021  1.4079 -0.5775
  509TIP3   OH222941   1.613   3.069  16.254  0.0938 -0.3575 -0.0743
  509TIP3    H122942   1.533   3.063  16.307 -1.1919  1.8237 -1.6728
  509TIP3    H222943   1.580   3.078  16.164  2.1106  2.0730 -0.5994
  510TIP3   OH222944   1.276   2.789  13.982  0.5370  0.2796  0.3456
  510TIP3    H122945   1.259   2.881  13.999 -0.6543  0.0149  0.6295
  510TIP3    H222946   1.371   2.780  13.992  0.6792  1.4894  0.2004
  511TIP3   OH222947   5.543   3.608   3.709 -0.0913  0.3778 -0.0213
  511TIP3    H122948   5.599   3.531   3.696  1.3071  1.3212  0.3427
  511TIP3    H222949   5.599   3.672   3.752 -1.4423  1.3756  0.3017
  512TIP3   OH222950   0.415   5.857   3.649 -0.5096  0.4614  0.0460
  512TIP3    H122951   0.459   5.941   3.666 -0.1151  0.3905 -0.5828
  512TIP3    H222952   0.407   5.816   3.735  0.0945  0.7632  0.2530
  513TIP3   OH222953   3.077   3.227   3.130  0.2120  0.2247 -0.4134
  513TIP3    H122954   2.985   3.238   3.106  0.1374  2.7704  0.7917
  513TIP3    H222955   3.123   3.213   3.047 -1.3338 -1.8227 -0.9454
  514TIP3   OH222956   5.832   3.097  13.929 -0.0130 -0.0819  0.8098
  514TIP3    H122957   5.819   3.170  13.868  0.1215 -1.1388 -0.5150
  514TIP3    H222958   5.745   3.078  13.964 -0.3787 -0.5167 -0.2997
  515TIP3   OH222959   1.455   6.537   5.603  0.2035 -0.2202  0.3489
  515TIP3    H122960   1.418   6.537   5.514 -1.0023  2.0144  0.8042
  515TIP3    H222961   1.395   6.482   5.654  0.0164 -0.2398  0.1088
  516TIP3   OH222962   4.001   3.862   2.410 -0.0532 -0.5948  0.2637
  516TIP3    H122963   3.965   3.928   2.470 -1.1093 -1.0381  0.1333
  516TIP3    H222964   3.943   3.865   2.334  0.4334 -1.0398 -0.1209
  517TIP3   OH222965   4.687   0.608   2.671  0.0232  0.2584 -0.3635
  517TIP3    H122966   4.672   0.693   2.711 -0.9718 -0.3445  0.5964
  517TIP3    H222967   4.677   0.546   2.743 -0.4086 -0.7509 -1.2747
  518TIP3   OH222968   3.091   0.192  16.512 -0.3320  0.3239  0.7107
  518TIP3    H122969   3.086   0.130  16.585 -0.6198  0.2164  0.5998
  518TIP3    H222970   3.142   0.148  16.446  1.6890  1.2166  1.6412
  519TIP3   OH222971   2.054   6.140   5.941 -0.1133 -0.6937 -0.6257
  519TIP3    H122972   2.019   6.218   5.898  2.0969  2.5646  3.2350
  519TIP3    H222973   1.996   6.126   6.016  0.7195 -1.5310 -0.1394
  520TIP3   OH222974   2.871   2.848   5.301 -0.2984  0.3058  0.1161
  520TIP3    H122975   2.841   2.779   5.360  1.9845 -0.8013  0.0132
  520TIP3    H222976   2.888   2.923   5.358  0.7579 -0.3834  0.7132
  521TIP3   OH222977   6.784   0.099   0.577 -0.3425  0.1898 -0.2835
  521TIP3    H122978   6.762   0.166   0.513 -1.9551 -1.9271 -2.0107
  521TIP3    H222979   6.712   0.101   0.640 -0.3768  0.1086 -0.3203
  522TIP3   OH222980   4.104   3.982  16.908 -0.0475  0.1022 -0.6709
  522TIP3    H122981   4.098   4.071  16.943 -0.1914 -0.1382 -0.0843
  522TIP3    H222982   4.193   3.954  16.928 -0.3587 -0.3090  0.1702
  523TIP3   OH222983   1.954   4.958   0.130 -0.6919 -0.3479 -0.5929
  523TIP3    H122984   1.941   5.034   0.186 -0.6158 -2.3831  2.2613
  523TIP3    H222985   2.036   4.919   0.160 -0.7017 -1.5471 -2.0459
  524TIP3   OH222986   6.065   1.792  16.029  0.2581 -0.2504  0.4295
  524TIP3    H122987   6.021   1.734  15.967  0.7186  0.0222 -0.1620
  524TIP3    H222988   6.131   1.838  15.976 -1.1203  1.9552  0.5354
  525TIP3   OH222989   1.448   6.691  17.144  0.7382  0.9864  0.5916
  525TIP3    H122990   1.416   6.705  17.055  2.1085  0.5641  0.0105
  525TIP3    H222991   1.446   6.777  17.185  0.6595  1.2945 -0.0557
  526TIP3   OH222992   2.504   3.934  13.160 -0.3130 -0.1377 -0.3200
  526TIP3    H122993   2.590   3.921  13.121 -0.2424 -0.5805 -0.0212
  526TIP3    H222994   2.510   4.019  13.204 -0.1390 -0.0111 -0.5897
  527TIP3   OH222995   3.868   3.000  11.916 -0.6504  0.3226 -0.0548
  527TIP3    H122996   3.942   3.060  11.928 -0.2031 -0.1079 -0.6917
  527TIP3    H222997   3.897   2.917  11.954 -0.1348 -0.3577 -1.8843
  528TIP3   OH222998   1.474   0.786   2.222  0.2549  0.1142  0.6762
  528TIP3    H122999   1.566   0.761   2.222  0.2789 -0.0202 -2.6144
  528TIP3    H223000   1.430   0.715   2.268  1.2235 -2.4160 -2.1220
  529TIP3   OH223001   5.397   1.232  17.091 -0.6736 -0.3961 -0.1187
  529TIP3    H123002   5.312   1.222  17.133 -0.5406 -1.4565 -0.0940
  529TIP3    H223003   5.408   1.152  17.039 -0.3103  0.3637 -1.2276
  530TIP3   OH223004   1.045   1.782  14.077  0.0509  0.3302 -0.6944
  530TIP3    H123005   1.054   1.865  14.124 -1.1363 -0.4028  0.8684
  530TIP3    H223006   0.961   1.790  14.032 -0.3833 -0.2824  0.0045
  531TIP3   OH223007   2.683   6.660   0.578  0.2869  0.1438  0.1376
  531TIP3    H123008   2.642   6.694   0.498 -0.7987  0.3511  0.7814
  531TIP3    H223009   2.773   6.639   0.551 -0.1079  0.0871 -1.1672
  532TIP3   OH223010   3.782   1.138   0.961  0.2505  0.2208  0.2806
  532TIP3    H123011   3.846   1.076   0.996  0.5515  0.0173 -0.6160
  532TIP3    H223012   3.747   1.095   0.882 -0.6381  0.5362  0.4898
  533TIP3   OH223013   3.160   5.234   3.496 -0.1682  0.3148  0.3583
  533TIP3    H123014   3.083   5.186   3.527 -1.4812  1.3184 -1.2703
  533TIP3    H223015   3.147   5.323   3.528  0.2688  0.5150 -0.0243
  534TIP3   OH223016   6.249   6.344  16.246  0.5172 -0.1877 -0.0520
  534TIP3    H123017   6.297   6.265  16.223  0.9201  0.1760 -0.4770
  534TIP3    H223018   6.187   6.356  16.175  0.7153  0.0841 -0.1834
  535TIP3   OH223019   2.554   3.013  17.203  0.2798 -0.1487  0.3301
  535TIP3    H123020   2.527   3.094  17.159  0.7103  0.0506  0.4323
  535TIP3    H223021   2.589   3.042  17.288 -3.1368 -0.7358  2.0229
  536TIP3   OH223022   0.274   1.921  13.053  0.6482 -0.3092 -0.6971
  536TIP3    H123023   0.302   2.010  13.072  0.4545 -0.2366 -0.7514
  536TIP3    H223024   0.325   1.895  12.976  1.2627 -0.5186 -0.2190
  537TIP3   OH223025   3.288   6.662   4.091 -0.0850 -0.7279 -0.0659
  537TIP3    H123026   3.195   6.685   4.092 -0.3487 -1.6360 -1.2427
  537TIP3    H223027   3.299   6.600   4.163 -0.5628 -1.1833 -0.3793
  538TIP3   OH223028   5.966   2.280  13.446 -0.6913 -0.0218 -0.1718
  538TIP3    H123029   5.992   2.201  13.494  0.1862  1.0650  1.2149
  538TIP3    H223030   5.871   2.277  13.444 -0.7053 -0.5780  0.8511
  539TIP3   OH223031   4.719   4.598  15.180  0.2283 -0.5890  1.1621
  539TIP3    H123032   4.664   4.595  15.102  0.3057 -3.2989  1.1494
  539TIP3    H223033   4.657   4.607  15.253  0.0200  0.0537  0.9054
  540TIP3   OH223034   5.106   4.541   4.110 -0.2678  0.0548 -0.2499
  540TIP3    H123035   5.122   4.586   4.193 -0.5597  0.2883 -0.3180
  540TIP3    H223036   5.190   4.502   4.087  0.4513  2.0003 -1.0353
  541TIP3   OH223037   2.812   6.375   4.861 -0.0511 -0.2400  0.5920
  541TIP3    H123038   2.742   6.338   4.915 -1.3082 -0.4397 -1.1447
  541TIP3    H223039   2.889   6.323   4.883 -0.9342 -1.4273  0.9442
  542TIP3   OH223040   3.450   2.937  11.947  0.2205  0.0966 -0.0371
  542TIP3    H123041   3.511   2.983  11.890  1.7568 -0.2554  1.2925
  542TIP3    H223042   3.386   3.004  11.973  1.6058  1.1523  0.7339
  543TIP3   OH223043   4.624   0.958   0.703 -0.0966  0.5248  0.1824
  543TIP3    H123044   4.697   0.907   0.738  0.8704  1.6043 -0.2116
  543TIP3    H223045   4.666   1.036   0.665 -1.3795  0.7336 -0.8259
  544TIP3   OH223046   3.140   3.328   6.090 -0.0754  0.0679  0.3762
  544TIP3    H123047   3.154   3.294   6.179  1.7079  1.0842  0.5012
  544TIP3    H223048   3.094   3.412   6.104 -0.3612 -0.0773  0.3068
  545TIP3   OH223049   3.219   3.207   0.243  0.3126 -0.3966  0.1678
  545TIP3    H123050   3.187   3.162   0.321  0.2699 -0.1338  0.3009
  545TIP3    H223051   3.257   3.288   0.275  0.4784 -0.3805 -0.0644
  546TIP3   OH223052   3.086   2.834   5.110  0.4865  0.7198 -0.6903
  546TIP3    H123053   3.175   2.861   5.133  0.8069 -0.1967 -0.8128
  546TIP3    H223054   3.033   2.857   5.186  1.3848 -1.5535  0.6740
  547TIP3   OH223055   1.322   1.542  12.228  0.5017 -0.0624  0.0616
  547TIP3    H123056   1.302   1.564  12.137  0.5171 -0.1607  0.0333
  547TIP3    H223057   1.277   1.609  12.280  0.0601 -0.3137  0.0021
  548TIP3   OH223058   2.232   6.525  12.746 -0.2295 -0.6436 -0.2718
  548TIP3    H123059   2.248   6.618  12.728  1.4776 -0.8371  0.1552
  548TIP3    H223060   2.173   6.497  12.676  0.4408  0.4100 -1.2811
  549TIP3   OH223061   0.684   4.219  13.608 -0.1855  0.4909 -0.2189
  549TIP3    H123062   0.594   4.215  13.642 -0.0462 -0.1561  0.0843
  549TIP3    H223063   0.712   4.127  13.605  0.1605  0.6224 -1.1460
  550TIP3   OH223064   2.388   1.779  15.761 -0.2294  0.0714  0.4989
  550TIP3    H123065   2.321   1.842  15.732 -0.3335  0.3801  1.4058
  550TIP3    H223066   2.410   1.807  15.850  1.9305  0.6483 -0.1914
  551TIP3   OH223067   1.413   4.528  15.326  0.6057 -0.2067  0.4701
  551TIP3    H123068   1.328   4.493  15.353 -0.8670  1.2513 -2.1676
  551TIP3    H223069   1.399   4.622  15.315  2.1154 -0.1904 -1.6397
  552TIP3   OH223070   1.844   1.194  13.410  0.2194 -0.2261  0.2144
  552TIP3    H123071   1.843   1.196  13.506 -2.2184  1.1983  0.1870
  552TIP3    H223072   1.864   1.103  13.388  3.9696  0.0237  2.0305
  553TIP3   OH223073   1.023   5.386  13.954  0.0038 -0.0886  0.2248
  553TIP3    H123074   1.013   5.436  13.873  0.3093 -1.1399 -0.4716
  553TIP3    H223075   1.079   5.441  14.010  0.1501  0.4380 -0.4375
  554TIP3   OH223076   3.538   5.233   1.517 -0.2829  0.5069 -0.1401
  554TIP3    H123077   3.631   5.224   1.499 -0.5035  0.7961 -1.4914
  554TIP3    H223078   3.508   5.300   1.456 -1.3360  0.5646  0.4230
  555TIP3   OH223079   1.485   0.765  16.589 -0.0979  0.5242  0.1197
  555TIP3    H123080   1.552   0.828  16.565 -1.5693  1.9773 -0.2264
  555TIP3    H223081   1.534   0.685  16.608  1.6757  1.3603 -0.7629
  556TIP3   OH223082   4.876   1.799  17.066 -0.0107  0.4419 -0.2237
  556TIP3    H123083   4.829   1.855  17.127  0.9533  1.0117 -0.0035
  556TIP3    H223084   4.939   1.857  17.023 -1.0879  0.2101 -2.2206
  557TIP3   OH223085   4.890   0.838  15.920  0.3374 -0.6421 -0.2751
  557TIP3    H123086   4.950   0.770  15.891 -0.0773 -1.1541  0.0796
  557TIP3    H223087   4.803   0.798  15.916 -0.1471  0.5137 -2.1124
  558TIP3   OH223088   4.619   3.261  11.920 -0.3562  0.3146  0.1484
  558TIP3    H123089   4.647   3.349  11.945  1.0872  0.5998 -2.3630
  558TIP3    H223090   4.629   3.258  11.825 -2.5710 -1.8174 -0.0685
  559TIP3   OH223091   1.676   6.207  11.943 -0.0335  0.3382  0.3517
  559TIP3    H123092   1.749   6.177  11.997 -0.6480 -0.3853  0.8026
  559TIP3    H223093   1.714   6.224  11.857  0.4935 -0.9645  0.3147
  560TIP3   OH223094   1.395   6.608   2.338  1.0417 -0.4972 -0.6098
  560TIP3    H123095   1.418   6.651   2.421  1.8039 -2.1789  0.0889
  560TIP3    H223096   1.418   6.671   2.271  2.4351  0.0878  0.3777
  561TIP3   OH223097   5.124   4.191   5.137 -0.3806 -0.2947  0.7461
  561TIP3    H123098   5.037   4.231   5.151 -1.0178 -1.0007 -1.1052
  561TIP3    H223099   5.182   4.266   5.123 -1.3018  0.0849 -1.2307
  562TIP3   OH223100   2.060   4.845  13.700 -0.5242 -0.1659  0.2956
  562TIP3    H123101   2.124   4.887  13.758 -0.9621 -0.0750  0.7182
  562TIP3    H223102   2.056   4.754  13.730 -1.6420  0.1669  1.2058
  563TIP3   OH223103   3.570   2.728   4.576  0.0471 -0.4080  0.0417
  563TIP3    H123104   3.607   2.748   4.662 -2.4929  0.5271  0.9665
  563TIP3    H223105   3.505   2.797   4.561 -2.6553 -2.9815 -0.6495
  564TIP3   OH223106   4.027   4.307   2.290  0.1518 -0.5030 -0.6494
  564TIP3    H123107   4.079   4.388   2.297 -0.9524  0.2207 -0.6401
  564TIP3    H223108   4.090   4.237   2.304  1.1074  0.3659 -0.5090
  565TIP3   OH223109   3.753   6.301   1.411 -0.7874  0.0093  0.2141
  565TIP3    H123110   3.757   6.364   1.483  0.7426 -1.1531  1.1806
  565TIP3    H223111   3.833   6.316   1.361 -1.1993 -0.0875 -0.4772
  566TIP3   OH223112   4.325   6.467   5.171  0.0166 -0.3238 -0.5094
  566TIP3    H123113   4.243   6.505   5.202 -0.1871 -1.2938  0.1714
  566TIP3    H223114   4.338   6.506   5.085  0.4582  2.2017  0.6774
  567TIP3   OH223115   3.459   6.004  16.203 -0.0393 -0.6309  0.7648
  567TIP3    H123116   3.486   6.095  16.215 -1.1543 -0.5518  2.9855
  567TIP3    H223117   3.540   5.953  16.206  0.3497  0.0634  2.1373
  568TIP3   OH223118   2.725   1.723   1.880 -0.0493 -0.2741  0.5217
  568TIP3    H123119   2.759   1.665   1.947  0.1624 -0.7161  0.0294
  568TIP3    H223120   2.657   1.672   1.836  0.4058 -0.2881 -0.1691
  569TIP3   OH223121   3.664   0.172  15.851  0.6223 -0.1598  0.2012
  569TIP3    H123122   3.595   0.221  15.895 -1.1083 -2.1324 -0.2124
  569TIP3    H223123   3.711   0.237  15.800 -1.4129  1.1155 -0.1083
  570TIP3   OH223124   2.205   3.625  16.323 -0.6263  0.0680  0.7305
  570TIP3    H123125   2.278   3.569  16.300 -0.0369  1.5232 -1.0687
  570TIP3    H223126   2.187   3.676  16.243 -2.6463  0.7548  1.5782
  571TIP3   OH223127   6.495   0.194   0.623 -0.0960  0.3804 -0.1584
  571TIP3    H123128   6.453   0.278   0.602  0.8342  0.2129 -2.9111
  571TIP3    H223129   6.490   0.144   0.542  3.3891 -0.4696  0.0580
  572TIP3   OH223130   6.206   2.372  14.491  0.7595 -0.2412 -0.3486
  572TIP3    H123131   6.167   2.440  14.435  0.0632  0.0196  0.4448
  572TIP3    H223132   6.204   2.409  14.579 -2.5702 -2.5242  0.6171
  573TIP3   OH223133   4.212   3.545   2.705  0.9920 -0.7717 -0.9570
  573TIP3    H123134   4.262   3.464   2.717 -0.1142 -1.1655  1.3183
  573TIP3    H223135   4.159   3.529   2.627  1.8167 -1.7025 -1.3374
  574TIP3   OH223136   0.148   1.579   3.723  0.7651  0.0894  0.1483
  574TIP3    H123137   0.181   1.667   3.741 -0.9056  0.9114 -0.6390
  574TIP3    H223138   0.085   1.562   3.793 -1.0251  0.7052 -1.2768
  575TIP3   OH223139   2.817   3.963   6.738 -0.0003 -0.6700 -0.1473
  575TIP3    H123140   2.813   3.965   6.833 -0.2022 -1.1340 -0.1458
  575TIP3    H223141   2.751   4.027   6.710  0.7658  0.2133  0.0316
  576TIP3   OH223142   1.831   4.957   4.197 -0.2849  0.5443  0.6555
  576TIP3    H123143   1.799   4.868   4.184 -1.0815  0.7640  1.0310
  576TIP3    H223144   1.916   4.946   4.240 -1.1788 -0.0273  2.3674
  577TIP3   OH223145   2.373   4.277   5.171  0.3984 -0.9449 -0.0128
  577TIP3    H123146   2.408   4.287   5.260 -1.0820 -0.2690  0.5020
  577TIP3    H223147   2.283   4.308   5.177 -0.0913 -2.0390 -1.4898
  578TIP3   OH223148   4.069   1.289   1.197  0.3070  0.3030  0.2084
  578TIP3    H123149   4.126   1.297   1.274  0.3243  3.4211 -0.0917
  578TIP3    H223150   4.117   1.333   1.127 -0.6992 -0.5815 -1.0635
  579TIP3   OH223151   4.291   6.265  11.136 -0.2901  0.4098  0.1509
  579TIP3    H123152   4.329   6.177  11.128 -1.7469 -0.1762 -0.7295
  579TIP3    H223153   4.271   6.290  11.045 -0.6313  1.3005  0.4666
  580TIP3   OH223154   1.292   6.425   6.020  0.4276  0.8168 -0.1792
  580TIP3    H123155   1.322   6.341   6.054 -1.6517  0.6008  1.2242
  580TIP3    H223156   1.366   6.484   6.033  1.0447 -0.2225  1.1348
  581TIP3   OH223157   5.328   5.643  12.849  0.1536 -0.1297  0.3127
  581TIP3    H123158   5.280   5.715  12.809 -0.5328 -1.6311 -1.6359
  581TIP3    H223159   5.268   5.606  12.914  0.2988  0.6915  0.9165
  582TIP3   OH223160   2.253   3.994   4.736 -0.3994 -0.0654  0.1641
  582TIP3    H123161   2.201   4.065   4.697  0.4372  1.0017  0.9708
  582TIP3    H223162   2.196   3.957   4.803 -1.0529 -0.5306 -0.6419
  583TIP3   OH223163   0.441   1.799  12.643 -0.0847 -0.7128  0.3852
  583TIP3    H123164   0.451   1.822  12.550  0.9980  2.3979  1.1982
  583TIP3    H223165   0.468   1.708  12.647  0.2049 -0.8127 -2.3281
  584TIP3   OH223166   1.625   3.817   3.877  0.4861 -0.3699  0.3597
  584TIP3    H123167   1.616   3.884   3.809 -0.2763  0.4054  1.2063
  584TIP3    H223168   1.694   3.850   3.934  0.8767 -0.8459  0.1650
  585TIP3   OH223169   2.541   1.825  12.428 -0.1460 -0.3541 -0.0843
  585TIP3    H123170   2.476   1.884  12.466  0.0171 -0.1975 -0.0491
  585TIP3    H223171   2.606   1.883  12.389 -0.9586 -0.4990 -1.7267
  586TIP3   OH223172   2.778   5.813   4.202  0.5939  0.2198  0.2716
  586TIP3    H123173   2.760   5.728   4.242  0.0673  0.1865 -0.0303
  586TIP3    H223174   2.720   5.816   4.126  0.8477  0.7120  0.0990
  587TIP3   OH223175   3.792   0.179  16.207 -0.1801  0.2429 -0.0261
  587TIP3    H123176   3.730   0.244  16.240 -1.0274  0.8694 -2.7756
  587TIP3    H223177   3.750   0.095  16.223 -1.3167  0.6176 -0.9770
  588TIP3   OH223178   0.108   6.007   2.960  0.2518  0.6887 -0.3657
  588TIP3    H123179   0.183   6.060   2.932  0.0773  0.3078 -1.5882
  588TIP3    H223180   0.072   5.971   2.879 -0.7519  0.1884  0.2855
  589TIP3   OH223181   6.511   2.794  13.020  0.2038  0.1586  0.3896
  589TIP3    H123182   6.586   2.782  12.962 -0.0210  1.4732 -0.2061
  589TIP3    H223183   6.547   2.840  13.097 -0.0311  1.0537 -0.0264
  590TIP3   OH223184   6.441   1.344  14.969 -0.0955 -0.7225 -0.0887
  590TIP3    H123185   6.534   1.362  14.984 -0.8201  0.8633  2.8794
  590TIP3    H223186   6.417   1.399  14.895  0.6381  1.1250  1.0283
  591TIP3   OH223187   6.281   1.587   0.215 -0.1703  0.2636  0.3284
  591TIP3    H123188   6.211   1.645   0.244  0.1580  1.2461 -0.8006
  591TIP3    H223189   6.354   1.604   0.275 -0.3722  0.3601  0.5465
  592TIP3   OH223190   3.647   5.351   4.356 -0.3950 -0.6759  0.3640
  592TIP3    H123191   3.574   5.318   4.303 -0.1400  0.0510 -0.4616
  592TIP3    H223192   3.607   5.382   4.436 -1.0068 -0.1888 -0.1263
  593TIP3   OH223193   4.397   1.180   1.903  0.2665  0.0532  0.3526
  593TIP3    H123194   4.464   1.115   1.925  0.8328  0.7588  0.7518
  593TIP3    H223195   4.421   1.257   1.955 -0.5347  0.4962  0.0689
  594TIP3   OH223196   0.098   3.102  14.141  0.4531 -0.1455 -0.0368
  594TIP3    H123197   0.149   3.149  14.206  0.3731 -0.8686  0.5578
  594TIP3    H223198   0.034   3.052  14.192  0.2130 -0.5051 -0.6813
  595TIP3   OH223199   0.400   5.565   4.975 -0.1343  0.3022 -0.4866
  595TIP3    H123200   0.478   5.515   4.952 -0.0116 -0.3311  1.1980
  595TIP3    H223201   0.329   5.501   4.969  0.3044 -0.7022  3.7359
  596TIP3   OH223202   5.746   1.428   3.686  0.0584 -0.0798 -0.0874
  596TIP3    H123203   5.711   1.517   3.680  0.3325  0.0309 -0.0982
  596TIP3    H223204   5.826   1.438   3.739 -0.8673 -0.6051  1.4245
  597TIP3   OH223205   4.671   2.299  12.230 -0.3012 -0.1062 -0.5546
  597TIP3    H123206   4.688   2.376  12.285  1.4760  0.0730 -1.3136
  597TIP3    H223207   4.754   2.252  12.231 -1.4221 -2.1056  0.0169
  598TIP3   OH223208   5.612   3.738   5.189  0.4039 -0.9740  0.2523
  598TIP3    H123209   5.605   3.813   5.248  0.9171 -1.5590  1.0546
  598TIP3    H223210   5.522   3.717   5.166  0.2317 -0.4461  0.4335
  599TIP3   OH223211   3.738   1.697   2.615 -0.1653 -0.8123  0.2454
  599TIP3    H123212   3.812   1.636   2.606 -0.8526 -1.6624  0.2419
  599TIP3    H223213   3.756   1.746   2.695  0.4524 -0.9365  0.1874
  600TIP3   OH223214   4.364   4.342   4.856  0.3786  0.4342 -0.1957
  600TIP3    H123215   4.433   4.296   4.903 -0.1339  0.4404  0.5688
  600TIP3    H223216   4.393   4.341   4.764  0.2884 -1.5653 -0.2272
  601TIP3   OH223217   5.276   5.625  10.921 -0.4199  0.6200  0.9673
  601TIP3    H123218   5.191   5.583  10.908  0.6540 -1.4111  0.2120
  601TIP3    H223219   5.327   5.601  10.842  0.9585  1.4719  1.5788
  602TIP3   OH223220   4.524   3.067  16.907  0.9732 -0.0725 -0.3359
  602TIP3    H123221   4.452   3.122  16.877 -0.5363 -2.5807 -1.5104
  602TIP3    H223222   4.511   3.060  17.001 -0.9449 -1.2796 -0.6576
  603TIP3   OH223223   4.857   6.560   4.687  0.0311 -0.3967 -0.1162
  603TIP3    H123224   4.933   6.501   4.691 -0.6891 -1.2780  0.7403
  603TIP3    H223225   4.892   6.642   4.653  1.3045 -0.9087 -0.0585
  604TIP3   OH223226   5.813   1.832  14.890 -0.0273  0.7993  0.3936
  604TIP3    H123227   5.832   1.790  14.806 -1.7682  1.7673 -0.4993
  604TIP3    H223228   5.783   1.920  14.867 -0.0662  1.2461  2.0608
  605TIP3   OH223229   6.689   3.229  14.721 -0.6367  0.0379  0.2033
  605TIP3    H123230   6.715   3.307  14.672 -1.3367  0.9420  1.2551
  605TIP3    H223231   6.769   3.201  14.765  0.0956 -1.0038 -1.7203
  606TIP3   OH223232   3.112   4.250  14.080 -0.0678  0.3922 -0.5039
  606TIP3    H123233   3.088   4.326  14.132  1.1145 -0.2930  1.0870
  606TIP3    H223234   3.178   4.204  14.133  0.2285 -1.0047 -2.0311
  607TIP3   OH223235   1.562   0.765  12.612  0.4454 -0.2879  0.1137
  607TIP3    H123236   1.650   0.800  12.628  0.2925  0.1362  0.0360
  607TIP3    H223237   1.575   0.693  12.551  0.5170  1.0418 -1.4534
  608TIP3   OH223238   1.736   1.061  12.418  0.3192 -0.1776  0.6922
  608TIP3    H123239   1.710   1.098  12.334  1.2210  1.2077  0.9945
  608TIP3    H223240   1.818   1.015  12.399  1.3250  1.4036  1.0710
  609TIP3   OH223241   4.304   6.379   1.035  0.0785  0.2482  0.2245
  609TIP3    H123242   4.276   6.315   1.100 -0.1293 -0.7686 -0.8430
  609TIP3    H223243   4.400   6.371   1.033  0.2416  1.5753  1.6939
  610TIP3   OH223244   1.693   2.216  15.225  0.5518 -0.3078  0.1961
  610TIP3    H123245   1.760   2.265  15.176  1.4082 -1.4640  0.2013
  610TIP3    H223246   1.686   2.263  15.308  0.4125  0.5839 -0.3078
  611TIP3   OH223247   6.053   5.264   6.097 -0.4515  0.3932  0.4151
  611TIP3    H123248   6.078   5.354   6.079  0.1608  0.7199  2.7309
  611TIP3    H223249   6.097   5.243   6.179 -1.3115 -1.7214  0.3705
  612TIP3   OH223250   3.113   3.976  17.166 -0.5715 -0.6824 -0.5065
  612TIP3    H123251   3.072   4.060  17.187  2.0122  1.0552 -1.9730
  612TIP3    H223252   3.187   3.970  17.227  1.1463 -0.2802 -2.4594
  613TIP3   OH223253   3.531   2.170  12.063 -0.6770  0.4373  0.0778
  613TIP3    H123254   3.522   2.091  12.010 -1.0457  0.5247  0.0071
  613TIP3    H223255   3.616   2.162  12.105 -0.4182  0.3281 -0.4651
  614TIP3   OH223256   5.739   0.272   4.504 -0.3008 -0.1413 -0.3016
  614TIP3    H123257   5.683   0.282   4.581 -0.1802 -0.0657 -0.2247
  614TIP3    H223258   5.809   0.214   4.533  0.3186  0.7226 -0.0494
  615TIP3   OH223259   1.342   1.137  14.200  0.0864  0.4755 -0.4787
  615TIP3    H123260   1.340   1.209  14.137  1.4141  1.3769  0.4748
  615TIP3    H223261   1.370   1.061  14.149 -0.0217  0.9250 -1.2163
  616TIP3   OH223262   1.702   3.481   5.323  0.1609  0.3118 -0.1822
  616TIP3    H123263   1.752   3.404   5.294 -2.7050 -2.3796  1.6491
  616TIP3    H223264   1.667   3.519   5.243  1.4487 -0.3735 -1.1025
  617TIP3   OH223265   5.165   1.090   5.676 -1.0194  0.3014  0.0568
  617TIP3    H123266   5.103   1.162   5.684 -0.2743  0.9329  0.2497
  617TIP3    H223267   5.218   1.096   5.756  0.2068  0.6508 -0.7610
  618TIP3   OH223268   5.501   1.952   2.309  0.1140  0.5936  0.5945
  618TIP3    H123269   5.520   1.973   2.401  1.5350  0.8557  0.2644
  618TIP3    H223270   5.486   1.858   2.308  0.6856  0.4914  1.0203
  619TIP3   OH223271   1.385   3.653  13.410  0.5545  0.2759 -0.0536
  619TIP3    H123272   1.349   3.736  13.378 -0.8116 -1.0772 -2.2286
  619TIP3    H223273   1.458   3.634  13.350  1.0434  0.0486  0.6115
  620TIP3   OH223274   3.317   5.823   4.308  0.1852  0.1301  0.3267
  620TIP3    H123275   3.279   5.857   4.227  0.9413  0.2610  0.0238
  620TIP3    H223276   3.390   5.881   4.326 -1.3225  1.4784  2.3269
  621TIP3   OH223277   1.838   5.322  12.327 -0.0533  0.7084 -0.0476
  621TIP3    H123278   1.835   5.227  12.343  0.3710  0.6471 -0.3179
  621TIP3    H223279   1.826   5.361  12.414  2.2402  0.3680  0.4728
  622TIP3   OH223280   4.322   5.141  16.019  0.0284  0.4706 -0.0830
  622TIP3    H123281   4.390   5.076  16.036 -0.8334 -0.2547  0.6295
  622TIP3    H223282   4.242   5.103  16.056 -0.4818  1.9327  0.3593
  623TIP3   OH223283   5.452   2.415  14.318  0.2691 -0.1133 -1.0734
  623TIP3    H123284   5.494   2.336  14.353 -1.6213 -0.3535  0.7898
  623TIP3    H223285   5.365   2.385  14.291  0.4471  0.8335 -2.7331
  624TIP3   OH223286   1.848   4.166   4.173  0.0963  0.1583 -0.0715
  624TIP3    H123287   1.846   4.131   4.084  0.5673  0.4797 -0.2052
  624TIP3    H223288   1.853   4.261   4.162 -1.4893  0.3040  0.2937
  625TIP3   OH223289   5.128   2.690  13.029  0.2976  0.2747 -0.2668
  625TIP3    H123290   5.109   2.643  13.111 -0.4313 -1.2939 -1.3108
  625TIP3    H223291   5.221   2.712  13.035  0.2036  0.3598  1.0772
  626TIP3   OH223292   1.591   0.422   5.741  0.1169 -0.5838  0.1190
  626TIP3    H123293   1.555   0.415   5.830  0.6907 -2.0084  0.2470
  626TIP3    H223294   1.551   0.502   5.705  0.3674  0.3682  1.8805
  627TIP3   OH223295   0.696   6.554  15.676  0.6944 -0.3647 -0.4750
  627TIP3    H123296   0.686   6.622  15.742 -0.7366  0.1909 -1.2554
  627TIP3    H223297   0.625   6.569  15.614  0.4506 -2.4718 -0.7484
  628TIP3   OH223298   4.755   3.249  12.926 -0.4638 -0.0043 -0.0695
  628TIP3    H123299   4.667   3.213  12.934 -0.7191  0.9313  1.3070
  628TIP3    H223300   4.752   3.332  12.973  1.3383 -0.2866  0.5661
  629TIP3   OH223301   0.235   5.585  17.190 -0.0235 -0.2938  0.6531
  629TIP3    H123302   0.244   5.677  17.214  2.2184 -0.7621  1.6897
  629TIP3    H223303   0.263   5.580  17.099  0.4375 -0.0606  0.7862
  630TIP3   OH223304   5.342   3.751  13.343  0.6555 -0.2635 -0.1570
  630TIP3    H123305   5.276   3.715  13.402  2.3498 -2.0518  0.7307
  630TIP3    H223306   5.400   3.802  13.400 -0.8917  2.7489 -1.1954
  631TIP3   OH223307   5.440   3.065   4.601 -0.2852  0.1067 -0.0533
  631TIP3    H123308   5.485   3.037   4.521  0.6962 -0.3604  0.6456
  631TIP3    H223309   5.505   3.051   4.670 -1.1034  0.5762  0.8105
  632TIP3   OH223310   4.953   2.915   4.570 -0.1129  0.0681  0.1067
  632TIP3    H123311   5.044   2.944   4.581  0.1455  0.1657 -1.9596
  632TIP3    H223312   4.947   2.893   4.477 -1.3368 -3.0498  0.8789
  633TIP3   OH223313   1.269   4.291   2.932 -0.6412  0.0548  0.3011
  633TIP3    H123314   1.226   4.267   2.850 -0.6207  2.8244 -0.5939
  633TIP3    H223315   1.311   4.375   2.913  0.9607 -0.1700  2.6205
  634TIP3   OH223316   2.987   2.994  11.763 -0.0779  0.7233  0.1211
  634TIP3    H123317   2.973   3.033  11.850  2.0448 -0.9521  1.2367
  634TIP3    H223318   3.044   3.056  11.718 -0.5589  1.2194  0.1889
  635TIP3   OH223319   2.561   1.937   3.262  0.2347  0.1948  0.0868
  635TIP3    H123320   2.539   1.915   3.172  0.5464 -3.0571  0.7228
  635TIP3    H223321   2.478   1.935   3.309  0.3760 -0.5205  0.3128
  636TIP3   OH223322   5.724   2.301  14.057 -0.4614 -0.3448 -0.2347
  636TIP3    H123323   5.784   2.361  14.013 -1.4827 -0.5936 -2.0065
  636TIP3    H223324   5.649   2.355  14.082 -0.4339 -0.4522  0.0849
  637TIP3   OH223325   5.769   2.121   5.549 -1.2466 -0.2078  0.0944
  637TIP3    H123326   5.674   2.111   5.547 -1.3365  0.5233  0.4964
  637TIP3    H223327   5.788   2.183   5.479 -0.8057 -2.2779 -1.6667
  638TIP3   OH223328   3.745   1.285   2.600  0.2994  0.2857 -0.4082
  638TIP3    H123329   3.691   1.247   2.530 -1.9405  1.3957  0.6627
  638TIP3    H223330   3.704   1.254   2.681  1.4029  1.0063  0.4365
  639TIP3   OH223331   3.903   1.648   3.746 -0.0034 -0.0156 -0.3132
  639TIP3    H123332   3.897   1.569   3.693  0.7044 -0.1493 -0.1929
  639TIP3    H223333   3.974   1.698   3.707  0.6063 -0.1705  0.5754
  640TIP3   OH223334   5.564   5.095   5.378 -0.7063 -0.3399  0.3503
  640TIP3    H123335   5.547   5.044   5.299  0.6824 -1.3878  0.7021
  640TIP3    H223336   5.598   5.179   5.347 -1.0176 -0.4164 -0.1852
  641TIP3   OH223337   2.207   4.959   3.012 -0.1334  0.4426 -0.3288
  641TIP3    H123338   2.265   4.889   2.981 -1.3034 -0.2137 -1.0919
  641TIP3    H223339   2.123   4.941   2.970 -1.2315  0.6938  1.6602
  642TIP3   OH223340   5.535   4.021  15.841 -0.0039 -0.4333  0.5161
  642TIP3    H123341   5.555   3.933  15.810  1.8311 -0.1157  0.7493
  642TIP3    H223342   5.439   4.024  15.844 -0.2893 -0.8654 -4.0031
  643TIP3   OH223343   1.745   6.458   3.827 -0.0021 -0.0714  0.2289
  643TIP3    H123344   1.734   6.380   3.772  1.8873 -1.5156  1.7943
  643TIP3    H223345   1.803   6.515   3.777  1.6166 -1.3277  0.6200
  644TIP3   OH223346   4.493   4.424  10.382  0.3437 -0.0020 -0.2445
  644TIP3    H123347   4.499   4.506  10.431 -0.2382 -0.9186  1.3674
  644TIP3    H223348   4.411   4.384  10.412  2.5537 -3.0637  1.9408
  645TIP3   OH223349   6.212   5.217   5.001 -0.2042 -0.2834  0.0519
  645TIP3    H123350   6.256   5.252   4.923 -0.2300 -0.8293 -0.2123
  645TIP3    H223351   6.176   5.294   5.045 -0.8693 -0.0404 -0.8918
  646TIP3   OH223352   2.430   6.510   3.920 -0.1319  0.7375 -0.1720
  646TIP3    H123353   2.335   6.520   3.932 -0.3434  0.2999 -1.3727
  646TIP3    H223354   2.461   6.472   4.002 -1.3570 -1.2889 -0.6283
  647TIP3   OH223355   4.993   5.714   4.039  0.2138  0.8767  0.1944
  647TIP3    H123356   4.931   5.702   3.967  0.0761  0.7474  0.3343
  647TIP3    H223357   5.063   5.767   4.001  0.3299  0.4899 -0.1476
  648TIP3   OH223358   5.984   5.093  12.994  0.2866  0.1772 -0.2143
  648TIP3    H123359   6.043   5.025  13.025  0.4327  1.4913  2.5374
  648TIP3    H223360   5.896   5.055  13.001  0.2717  0.5863  2.3567
  649TIP3   OH223361   1.686   5.155   5.579  0.0492  0.4276  0.3045
  649TIP3    H123362   1.646   5.080   5.534 -0.1675 -0.6536  2.2663
  649TIP3    H223363   1.663   5.230   5.524 -1.3026 -0.6969 -0.7104
  650TIP3   OH223364   2.111   5.989   4.113  0.9049 -0.1454 -0.2479
  650TIP3    H123365   2.119   6.037   4.031 -1.1430 -2.5576 -1.9347
  650TIP3    H223366   2.019   5.997   4.137  1.2936 -0.2438  1.3028
  651TIP3   OH223367   3.700   4.539   4.992  0.1025  0.0278 -0.6676
  651TIP3    H123368   3.620   4.517   5.039 -0.0362 -0.4977 -1.1517
  651TIP3    H223369   3.716   4.465   4.934  1.5831 -0.4018  0.2565
  652TIP3   OH223370   0.998   1.352   5.239 -0.1526  0.1781 -0.2160
  652TIP3    H123371   0.996   1.258   5.256 -2.0436  0.0408 -1.0455
  652TIP3    H223372   0.947   1.363   5.159  0.6011  1.8506 -0.5034
  653TIP3   OH223373   1.167   2.154  13.315  0.2891  0.2668  0.7031
  653TIP3    H123374   1.099   2.086  13.310  1.5396 -0.9126 -1.0399
  653TIP3    H223375   1.152   2.209  13.238  1.2032  0.0968  0.4021
  654TIP3   OH223376   0.065   0.078   2.887  0.0105  0.4615  0.3075
  654TIP3    H123377   0.022   0.095   2.803  0.0380 -1.6931 -0.1619
  654TIP3    H223378   0.052  -0.015   2.902  1.6994  0.4471  1.7659
  655TIP3   OH223379   3.478   1.420  16.318 -0.3378  0.6135 -0.0866
  655TIP3    H123380   3.386   1.391  16.315 -0.5243  0.8549  2.2472
  655TIP3    H223381   3.527   1.346  16.283 -1.2183 -0.5816  1.1471
  656TIP3   OH223382   3.399   3.831  13.546 -0.1930 -0.3929 -0.5009
  656TIP3    H123383   3.465   3.763  13.565 -1.4052 -2.0516 -2.0791
  656TIP3    H223384   3.321   3.782  13.520 -1.0065  1.6463 -1.9865
  657TIP3   OH223385   6.531   5.287  14.631 -0.3872  0.2043  0.3109
  657TIP3    H123386   6.606   5.228  14.620  0.1908  0.9484  0.2414
  657TIP3    H223387   6.570   5.372  14.649 -1.2029  0.7522 -0.4899
  658TIP3   OH223388   1.605   2.380  16.872  0.0117 -0.1956  0.1740
  658TIP3    H123389   1.624   2.330  16.952  0.7614 -1.8549 -1.0044
  658TIP3    H223390   1.625   2.471  16.894 -0.7418 -0.4932  2.1689
  659TIP3   OH223391   5.024   0.611   4.002  0.2044 -0.5413  0.1688
  659TIP3    H123392   4.991   0.552   4.069  1.8817 -0.0996  1.4374
  659TIP3    H223393   5.117   0.621   4.023 -0.0822  2.7354  0.1497
  660TIP3   OH223394   3.778   2.316   2.223 -0.6795 -0.1973  0.9135
  660TIP3    H123395   3.811   2.227   2.211 -0.0109  0.0720  0.7494
  660TIP3    H223396   3.693   2.316   2.180  1.3781  0.5671 -3.4115
  661TIP3   OH223397   6.173   1.481  12.695 -0.0897  0.6937 -0.8565
  661TIP3    H123398   6.112   1.490  12.768  0.3896 -1.0824 -0.1985
  661TIP3    H223399   6.258   1.506  12.732  0.4774 -1.9836 -0.2396
  662TIP3   OH223400   0.579   6.171   2.445 -0.1835  0.3526  0.1395
  662TIP3    H123401   0.576   6.247   2.388  0.7055  1.0428  0.9891
  662TIP3    H223402   0.654   6.120   2.416  1.0570  1.3733  1.5013
  663TIP3   OH223403   0.033   6.020   5.174 -0.7759 -0.0206 -0.3915
  663TIP3    H123404  -0.036   6.056   5.118 -2.5849 -1.0757  1.0900
  663TIP3    H223405   0.034   5.927   5.154  0.9918  0.1424 -1.1705
  664TIP3   OH223406   1.992   0.714   4.666  0.0524  0.5001 -0.3940
  664TIP3    H123407   1.919   0.766   4.699 -0.0778  0.7894 -1.1428
  664TIP3    H223408   1.964   0.685   4.579  0.3532 -0.3467 -0.2142
  665TIP3   OH223409   6.078   2.656  17.032 -0.2100 -0.0578  0.0714
  665TIP3    H123410   6.057   2.653  17.125 -0.8160 -0.3869 -0.0725
  665TIP3    H223411   6.129   2.577  17.016  1.5513  0.9742  0.5050
  666TIP3   OH223412   0.911   5.733   0.793  0.3755  0.0228  0.3126
  666TIP3    H123413   0.950   5.787   0.862 -0.3290 -1.1047  1.6002
  666TIP3    H223414   0.846   5.790   0.751  1.6974  1.1340 -0.2965
  667TIP3   OH223415   0.581   4.052   3.582 -0.5536 -0.3740 -0.3540
  667TIP3    H123416   0.580   3.979   3.644  0.2661  0.1215  0.2584
  667TIP3    H223417   0.659   4.036   3.529  0.3064  0.6689  0.5550
  668TIP3   OH223418   3.278   0.364   1.783 -0.1068  0.6049 -0.2226
  668TIP3    H123419   3.372   0.355   1.763 -0.6991 -3.3359 -1.7642
  668TIP3    H223420   3.238   0.383   1.698 -0.9534 -0.2488 -0.0163
  669TIP3   OH223421   3.364   4.502   4.274 -0.5695  0.4152 -0.5384
  669TIP3    H123422   3.306   4.555   4.220 -1.1780 -1.6480 -1.9962
  669TIP3    H223423   3.305   4.450   4.329 -0.1047 -1.1257 -1.4707
  670TIP3   OH223424   4.387   6.115  16.679  0.3253  0.0807  0.3239
  670TIP3    H123425   4.448   6.076  16.617 -0.9019 -0.4742 -0.5707
  670TIP3    H223426   4.436   6.121  16.761  1.3723 -0.9106 -0.2115
  671TIP3   OH223427   5.475   1.050  11.786  0.4323 -0.3347 -0.7579
  671TIP3    H123428   5.474   0.977  11.849 -1.7235 -0.5908 -1.0755
  671TIP3    H223429   5.460   1.128  11.840 -0.9618 -0.5088 -0.8793
  672TIP3   OH223430   4.852   2.832  15.058 -0.5831  0.2366 -0.4593
  672TIP3    H123431   4.900   2.875  14.987 -1.9869  1.1496 -0.8630
  672TIP3    H223432   4.812   2.904  15.107 -1.8871 -0.5431 -0.3697
  673TIP3   OH223433   3.406   6.392  13.055  0.0691 -0.6411  0.0418
  673TIP3    H123434   3.381   6.312  13.101 -2.4424 -1.1309 -2.0285
  673TIP3    H223435   3.499   6.404  13.076 -0.4674 -1.9014  3.5368
  674TIP3   OH223436   1.349   6.517  15.669 -0.1629 -0.4512  0.2189
  674TIP3    H123437   1.418   6.454  15.644 -0.3501  0.4256 -2.6832
  674TIP3    H223438   1.276   6.496  15.611 -0.4175  2.0919 -0.4119
  675TIP3   OH223439   5.621   6.648  12.595  0.2126  0.3801 -0.0544
  675TIP3    H123440   5.663   6.682  12.674 -1.0955  0.1880  0.7410
  675TIP3    H223441   5.637   6.554  12.599 -0.2770  0.3095  0.2386
  676TIP3   OH223442   6.431   6.316  11.915  0.0272  0.2303  0.4019
  676TIP3    H123443   6.512   6.348  11.874  0.1972 -0.7296 -0.0388
  676TIP3    H223444   6.387   6.267  11.845 -0.3993 -0.1830  0.9567
  677TIP3   OH223445   1.967   0.128   1.190 -0.2273  0.4668 -0.3102
  677TIP3    H123446   2.016   0.052   1.160 -0.9220  0.4950 -1.5478
  677TIP3    H223447   2.034   0.190   1.220  0.4992  0.4793 -1.9198
  678TIP3   OH223448   0.124   2.467   0.690 -0.3292  0.3797  0.2131
  678TIP3    H123449   0.087   2.379   0.701 -0.1814  0.4792  1.5901
  678TIP3    H223450   0.097   2.494   0.602  2.0516 -2.2248 -1.4087
  679TIP3   OH223451   6.180   6.183  16.808 -0.1871  0.1676  0.2098
  679TIP3    H123452   6.139   6.113  16.757  1.0466  0.3967 -1.1312
  679TIP3    H223453   6.106   6.238  16.836 -0.9544 -0.3111 -0.8154
  680TIP3   OH223454   4.965   1.661  12.998 -0.0526  0.4317  0.2365
  680TIP3    H123455   4.925   1.737  12.956 -1.1117 -0.4277 -0.3615
  680TIP3    H223456   4.899   1.632  13.062  1.0723  1.0545  1.7071
  681TIP3   OH223457   3.061   2.556   3.183  0.0674 -0.1137  0.5099
  681TIP3    H123458   3.141   2.505   3.177 -1.1285 -2.0240  0.4111
  681TIP3    H223459   3.034   2.570   3.092 -0.1470 -0.1833  0.5611
  682TIP3   OH223460   4.793   0.471  14.663  0.0779 -0.0447  0.4444
  682TIP3    H123461   4.797   0.476  14.567  3.0719  0.8690  0.5791
  682TIP3    H223462   4.801   0.377  14.682 -2.3101 -0.4138 -0.2326
  683TIP3   OH223463   5.965   1.446   4.831 -0.0118  0.1115 -0.1161
  683TIP3    H123464   6.059   1.429   4.826 -0.2754 -2.1307  1.9688
  683TIP3    H223465   5.930   1.408   4.750  0.7914  0.5431 -0.6833
  684TIP3   OH223466   6.007   3.927   3.743 -0.2753  0.1141 -0.0900
  684TIP3    H123467   6.095   3.925   3.779 -0.1827  2.0110 -0.1530
  684TIP3    H223468   5.980   4.019   3.749 -2.1734 -0.4018 -0.2344
  685TIP3   OH223469   2.122   2.153  14.444  0.5690  0.1873 -0.0759
  685TIP3    H123470   2.035   2.194  14.436 -0.1013 -0.9646  1.1659
  685TIP3    H223471   2.129   2.097  14.368 -0.4169 -0.8707  0.6006
  686TIP3   OH223472   6.718   3.665  15.483 -0.3786 -0.3455 -0.3624
  686TIP3    H123473   6.784   3.704  15.541  0.5078 -1.7418 -0.4031
  686TIP3    H223474   6.667   3.608  15.541  0.5318 -1.7756 -0.9311
  687TIP3   OH223475   1.079   3.077  13.661 -0.0575  0.1913 -0.6570
  687TIP3    H123476   1.117   3.140  13.600  1.1542 -0.9298 -1.0970
  687TIP3    H223477   1.154   3.042  13.709 -0.9129  0.4577  0.9083
  688TIP3   OH223478   2.656   3.957  11.814 -0.0337  0.1322  0.0910
  688TIP3    H123479   2.706   3.891  11.766 -0.4163  0.9552 -1.4977
  688TIP3    H223480   2.565   3.926  11.809  0.0502 -0.3018  1.1811
  689TIP3   OH223481   4.531   4.634   2.017  0.1732 -0.2623  0.0265
  689TIP3    H123482   4.556   4.724   2.041  0.5967  0.0047 -1.3531
  689TIP3    H223483   4.591   4.611   1.946 -0.2268 -1.4771  0.0754
  690TIP3   OH223484   6.769   1.329   4.655 -0.2307  0.2664 -0.1985
  690TIP3    H123485   6.777   1.409   4.706  0.4726 -0.1969  0.4251
  690TIP3    H223486   6.675   1.309   4.656 -0.0616 -0.5469  2.1748
  691TIP3   OH223487   0.579   0.633  14.223 -0.1649 -0.0997  0.2225
  691TIP3    H123488   0.501   0.630  14.279 -0.4526  1.3613 -0.0920
  691TIP3    H223489   0.649   0.661  14.282  0.0422 -0.9508  0.3955
  692TIP3   OH223490   2.984   2.694  16.354  0.1049  0.7535 -0.6920
  692TIP3    H123491   3.080   2.698  16.351  0.0773  1.3923 -0.6396
  692TIP3    H223492   2.955   2.765  16.297 -0.3380  0.2880 -1.0500
  693TIP3   OH223493   4.954   2.845  12.487  0.6029  0.3542  0.1482
  693TIP3    H123494   4.962   2.903  12.411  0.7606  0.6623  0.3982
  693TIP3    H223495   4.929   2.903  12.558 -0.1278 -0.0216  0.2039
  694TIP3   OH223496   1.445   3.638   3.762  0.1608 -0.2635  0.7582
  694TIP3    H123497   1.499   3.704   3.805  1.2437  0.8124 -2.1212
  694TIP3    H223498   1.387   3.688   3.705 -0.9375 -1.6603  0.6142
  695TIP3   OH223499   5.617   3.053   1.873  0.3418  0.2142 -0.2592
  695TIP3    H123500   5.700   3.061   1.922  1.4113 -0.8074 -1.8585
  695TIP3    H223501   5.561   3.122   1.910  1.6512  0.4740  1.3299
  696TIP3   OH223502   3.200   6.410  16.073 -0.9635  0.1140 -0.1816
  696TIP3    H123503   3.247   6.399  15.991  1.6123  0.7000  1.1522
  696TIP3    H223504   3.202   6.504  16.090 -1.8381  0.0457  0.3703
  697TIP3   OH223505   5.388   2.320   4.816  0.4283 -0.0511  0.6214
  697TIP3    H123506   5.309   2.266   4.818  1.6488 -2.0862 -2.0153
  697TIP3    H223507   5.416   2.324   4.907 -2.0888 -0.1995  1.4558
  698TIP3   OH223508   3.588   0.677   1.049  0.0603 -0.2035  0.2677
  698TIP3    H123509   3.547   0.606   0.999 -0.7215 -1.4546  2.6101
  698TIP3    H223510   3.521   0.704   1.111 -0.0828  3.4544 -1.3501
  699TIP3   OH223511   6.654   4.067   0.388 -0.2255  0.0102  0.0148
  699TIP3    H123512   6.584   4.003   0.394  0.2865 -0.5441  0.1359
  699TIP3    H223513   6.727   4.019   0.350 -0.2926  0.9047 -1.2442
  700TIP3   OH223514   5.722   2.007  14.496 -0.0786 -0.0390 -0.1226
  700TIP3    H123515   5.798   1.972  14.543  1.5504  1.0093 -1.8842
  700TIP3    H223516   5.738   1.983  14.404  0.0816  3.4623 -1.0818
  701TIP3   OH223517   4.355   4.796  11.376 -0.5469 -0.3910 -0.2691
  701TIP3    H123518   4.332   4.867  11.437  0.2149 -0.7209  0.4094
  701TIP3    H223519   4.339   4.716  11.426  2.5502 -0.6344  0.4358
  702TIP3   OH223520   4.173   4.688   3.683 -0.0338  0.2686 -0.0107
  702TIP3    H123521   4.084   4.657   3.700 -0.1182  0.4136 -0.1842
  702TIP3    H223522   4.180   4.688   3.588  0.5710 -0.9331  0.0272
  703TIP3   OH223523   6.212   2.546   2.468 -0.5413  0.0382  0.0829
  703TIP3    H123524   6.293   2.498   2.453 -0.3988  0.2435  0.1917
  703TIP3    H223525   6.179   2.513   2.551 -2.3628 -2.5376 -1.5792
  704TIP3   OH223526   6.135   0.517   2.205  0.3703  0.4178 -0.5557
  704TIP3    H123527   6.142   0.435   2.156 -0.8982 -0.1559  0.1901
  704TIP3    H223528   6.127   0.490   2.297 -2.1178  1.2548 -0.4761
  705TIP3   OH223529   5.854   1.270  16.251  0.1226 -0.4087  0.0865
  705TIP3    H123530   5.767   1.260  16.290  0.9018 -2.3211  1.4499
  705TIP3    H223531   5.859   1.200  16.186  0.1638  0.5296 -0.9249
  706TIP3   OH223532   6.517   1.093   2.943 -0.0732 -0.0595  0.3891
  706TIP3    H123533   6.467   1.053   2.871 -0.1209 -2.0461  1.4848
  706TIP3    H223534   6.542   1.019   2.999  0.8909  1.3335  1.8482
  707TIP3   OH223535   5.938   5.753   2.042 -0.0504 -0.2897  0.4205
  707TIP3    H123536   5.955   5.663   2.070 -1.2914 -0.3326  1.0755
  707TIP3    H223537   5.980   5.760   1.957  0.8390 -1.2120  0.7770
  708TIP3   OH223538   1.596   2.398   0.730 -0.2909 -0.1127  0.0806
  708TIP3    H123539   1.515   2.351   0.712  0.5113 -1.3626 -0.3667
  708TIP3    H223540   1.660   2.360   0.669  0.6343  0.8346  0.4363
  709TIP3   OH223541   5.528   2.719   4.743  0.4103 -0.3362  0.1062
  709TIP3    H123542   5.493   2.654   4.681  1.0536  0.7660 -1.4306
  709TIP3    H223543   5.451   2.763   4.778  0.0538 -0.7637 -0.1406
  710TIP3   OH223544   0.573   1.691  12.221 -0.1570  0.2539 -0.7332
  710TIP3    H123545   0.633   1.694  12.146 -1.0701 -0.9425 -1.5304
  710TIP3    H223546   0.495   1.647  12.188 -0.2798 -0.9938  1.1353
  711TIP3   OH223547   1.823   5.863   4.117 -0.0307 -0.2939  0.2263
  711TIP3    H123548   1.769   5.851   4.039  0.7595  0.2660 -0.4164
  711TIP3    H223549   1.833   5.775   4.153  1.2878 -0.8714 -1.4632
  712TIP3   OH223550   1.298   5.768  14.305 -0.2803  0.3677 -0.3763
  712TIP3    H123551   1.299   5.721  14.388  0.8415 -0.4976 -0.8637
  712TIP3    H223552   1.234   5.839  14.318 -2.4126 -1.5867  0.1964
  713TIP3   OH223553   2.741   0.747   0.868 -0.3764 -0.0223  0.2854
  713TIP3    H123554   2.768   0.831   0.907  0.2646 -0.6782  1.2847
  713TIP3    H223555   2.767   0.754   0.776  0.1075  0.6917  0.4660
  714TIP3   OH223556   3.754   4.080  10.716 -0.3010  0.0048  0.1528
  714TIP3    H123557   3.775   3.988  10.701  1.2216  0.4303 -0.3262
  714TIP3    H223558   3.661   4.087  10.693 -0.3954 -1.3736  0.0626
  715TIP3   OH223559   3.341   1.509  12.525  0.1457 -0.5441 -0.2126
  715TIP3    H123560   3.316   1.570  12.456 -0.4912 -0.1413  0.3658
  715TIP3    H223561   3.271   1.445  12.529  0.0099 -0.3727  0.2810
  716TIP3   OH223562   3.007   0.007   0.274 -0.2633  0.6468  0.4958
  716TIP3    H123563   2.977   0.095   0.254 -1.6623 -0.0352 -0.4716
  716TIP3    H223564   3.098   0.005   0.243 -1.0498  0.9370 -1.9617
  717TIP3   OH223565   6.495   2.428  12.993 -0.3423 -0.0544  0.5325
  717TIP3    H123566   6.441   2.506  12.979 -0.0283  0.0528 -0.0688
  717TIP3    H223567   6.576   2.462  13.032  0.5416  0.1327 -1.4249
  718TIP3   OH223568   5.698   5.453   5.648 -0.4247 -0.6157 -0.2030
  718TIP3    H123569   5.742   5.368   5.648  0.4119 -0.2139 -1.9849
  718TIP3    H223570   5.679   5.470   5.740 -1.4650 -3.1673  0.0939
  719TIP3   OH223571   4.594   5.143   0.225  0.0036 -0.5359 -0.4162
  719TIP3    H123572   4.566   5.233   0.212  0.3698 -0.6463 -2.0161
  719TIP3    H223573   4.679   5.150   0.268 -0.9210 -0.1672  1.4213
  720TIP3   OH223574   4.045   0.323   5.908 -0.3036 -0.4259 -0.0375
  720TIP3    H123575   3.979   0.359   5.848  1.4222  0.0799 -1.6599
  720TIP3    H223576   3.993   0.277   5.975 -2.3380  0.7639 -0.7434
  721TIP3   OH223577   3.266   3.959   0.917  0.0349  0.0206 -0.5584
  721TIP3    H123578   3.307   3.886   0.870  0.0181 -0.2075 -0.2157
  721TIP3    H223579   3.172   3.946   0.904 -0.0068 -0.5163  0.2438
  722TIP3   OH223580   1.935   4.100  11.354  0.0258  0.5970  0.2681
  722TIP3    H123581   1.983   4.148  11.286  2.4418 -0.4460  1.1731
  722TIP3    H223582   1.990   4.024  11.372 -1.6086 -0.2107  1.9287
  723TIP3   OH223583   1.756   3.043   4.937 -0.9560 -0.7344 -0.0757
  723TIP3    H123584   1.700   3.001   5.002 -2.6481  2.1474  0.3898
  723TIP3    H223585   1.842   3.048   4.979 -1.6548 -0.2961  1.3367
  724TIP3   OH223586   3.531   2.776   6.518  0.0937  0.0627  0.4176
  724TIP3    H123587   3.471   2.787   6.592 -1.9697  2.6842 -1.5460
  724TIP3    H223588   3.609   2.825   6.543 -0.6590  1.0851  0.7862
  725TIP3   OH223589   2.413   0.292  13.337  0.6339  0.4663 -0.2320
  725TIP3    H123590   2.391   0.212  13.290  0.3219 -0.5120  1.5111
  725TIP3    H223591   2.423   0.359  13.269 -1.2725 -0.5505 -1.5494
  726TIP3   OH223592   5.430   0.965  10.763  0.0771  0.3974 -0.1741
  726TIP3    H123593   5.499   1.012  10.809  0.4126 -0.8555  0.6352
  726TIP3    H223594   5.349   0.993  10.805  0.2228  0.7314 -0.1165
  727TIP3   OH223595   4.542   3.763   1.153 -0.1543 -0.1947  0.6621
  727TIP3    H123596   4.619   3.786   1.102  0.4485 -3.7017 -0.1528
  727TIP3    H223597   4.482   3.724   1.090 -1.6708  0.4226  1.6940
  728TIP3   OH223598   2.862   4.925  16.456 -0.2790 -0.4451 -0.0436
  728TIP3    H123599   2.884   4.980  16.532  0.3603 -0.5324 -0.1579
  728TIP3    H223600   2.848   4.838  16.493  0.8430 -0.6647 -0.1152
  729TIP3   OH223601   2.151   3.017   2.739  0.2136 -0.3033 -0.6503
  729TIP3    H123602   2.071   2.992   2.786  0.4114  1.8598  0.9222
  729TIP3    H223603   2.123   3.030   2.649 -1.1794  0.1077 -0.1762
  730TIP3   OH223604   2.296   4.087  15.876 -0.3403 -0.2093  0.2195
  730TIP3    H123605   2.327   4.145  15.806 -0.9555 -1.4273 -1.0840
  730TIP3    H223606   2.321   3.999  15.848 -4.3261 -1.2098 -0.6378
  731TIP3   OH223607   3.183   0.619  11.197 -0.7667  0.6848 -0.2623
  731TIP3    H123608   3.192   0.714  11.204 -3.5259  0.9247  0.7124
  731TIP3    H223609   3.112   0.607  11.134 -0.4152 -0.7365 -0.3901
  732TIP3   OH223610   5.036   2.485   2.340 -0.3306  0.1156 -0.3710
  732TIP3    H123611   5.059   2.497   2.432  1.0530  0.2810 -0.7258
  732TIP3    H223612   4.946   2.518   2.333  0.4383  2.4717  0.4032
  733TIP3   OH223613   5.260   3.861   0.293  0.0917  0.0809 -0.1239
  733TIP3    H123614   5.178   3.849   0.246 -0.6711 -1.2423  1.5230
  733TIP3    H223615   5.274   3.956   0.292 -1.0896  0.2543 -1.0113
  734TIP3   OH223616   5.437   1.173  13.909 -0.3606  0.1781  0.8349
  734TIP3    H123617   5.389   1.254  13.893 -1.5277 -0.7401 -0.4428
  734TIP3    H223618   5.499   1.195  13.978  1.3256  2.9480 -1.4591
  735TIP3   OH223619   6.675   1.465   2.332 -0.0981 -0.1733  0.2648
  735TIP3    H123620   6.627   1.525   2.275 -0.8864  0.2637  1.3663
  735TIP3    H223621   6.651   1.492   2.421 -0.2450 -1.9365  0.7830
  736TIP3   OH223622   6.346   3.931  12.219  0.4612  0.0202  0.0179
  736TIP3    H123623   6.425   3.914  12.270 -1.1859  0.5745  2.8614
  736TIP3    H223624   6.356   4.020  12.187  0.5012  0.5021  1.3383
  737TIP3   OH223625   3.759   5.583  15.356  0.0414 -0.4874  0.0846
  737TIP3    H123626   3.713   5.555  15.435 -1.3746  1.4973 -0.0001
  737TIP3    H223627   3.846   5.543  15.363 -0.1185 -0.4535  2.5584
  738TIP3   OH223628   0.636   2.034   1.947  0.0213 -0.2684  0.1894
  738TIP3    H123629   0.605   1.978   2.018  0.3171  1.0254  1.3444
  738TIP3    H223630   0.574   2.106   1.944  0.4141  0.0474 -0.4028
  739TIP3   OH223631   2.214   6.258   1.731 -0.8994  0.0449  0.6830
  739TIP3    H123632   2.182   6.342   1.763 -1.0728  0.4593 -0.5312
  739TIP3    H223633   2.309   6.261   1.745 -1.0216  0.0597  1.4987
  740TIP3   OH223634   2.343   0.980   5.143 -0.1744  0.4165 -0.4537
  740TIP3    H123635   2.332   0.929   5.224  2.0489 -1.3026 -1.1944
  740TIP3    H223636   2.298   1.063   5.161 -1.0384 -0.5196  1.9789
  741TIP3   OH223637   6.376   4.955   4.404  0.3417  0.4896  0.1848
  741TIP3    H123638   6.342   4.922   4.321 -1.0551  1.5803  0.2990
  741TIP3    H223639   6.457   4.906   4.419  0.0171 -0.4995 -1.2625
  742TIP3   OH223640   6.562   2.146   2.222  0.9551 -0.7194  0.3192
  742TIP3    H123641   6.611   2.225   2.202 -0.9651  0.0809 -1.3125
  742TIP3    H223642   6.630   2.080   2.240  2.5880  0.6440 -0.7171
  743TIP3   OH223643   3.475   3.839   4.417  0.4162  0.0675 -0.2115
  743TIP3    H123644   3.384   3.817   4.437 -0.0183  0.9917 -1.1231
  743TIP3    H223645   3.510   3.875   4.498 -0.3156  0.5799 -0.1157
  744TIP3   OH223646   5.855   6.599  16.104  0.2197  0.0942 -0.7479
  744TIP3    H123647   5.767   6.637  16.105  0.6577  1.1014  1.2104
  744TIP3    H223648   5.913   6.672  16.126  1.2049 -1.3641  1.7642
  745TIP3   OH223649   0.761   6.722  12.740  0.4385 -0.5266  0.5469
  745TIP3    H123650   0.822   6.690  12.673 -0.8086 -1.3844 -0.2089
  745TIP3    H223651   0.723   6.801  12.702  1.0163 -0.0453  0.9768
  746TIP3   OH223652   6.457   3.342  15.430 -0.1483 -0.0428 -0.2876
  746TIP3    H123653   6.470   3.392  15.510 -0.1281  0.7998 -0.8160
  746TIP3    H223654   6.431   3.255  15.461 -1.5530  0.6783  0.6170
  747TIP3   OH223655   3.652   5.579   4.159  0.0655  0.3432 -0.0094
  747TIP3    H123656   3.727   5.545   4.208 -0.8818 -1.4960  0.2168
  747TIP3    H223657   3.594   5.503   4.148 -2.3136  1.9665  0.8508
  748TIP3   OH223658   0.521   1.183  12.520 -0.2473 -1.1549 -0.0894
  748TIP3    H123659   0.465   1.251  12.481 -0.1192  0.4154  2.3631
  748TIP3    H223660   0.459   1.121  12.559 -0.3441 -1.4970 -0.7950
  749TIP3   OH223661   0.881   5.550   1.462  0.7203  0.9275  0.0609
  749TIP3    H123662   0.941   5.613   1.502 -0.1630  2.4986 -0.9950
  749TIP3    H223663   0.806   5.604   1.436 -0.3509 -0.7034 -0.2562
  750TIP3   OH223664   5.120   2.405   1.541 -0.4463  0.8496  0.3355
  750TIP3    H123665   5.091   2.496   1.541 -2.8653  0.1001  1.1132
  750TIP3    H223666   5.121   2.381   1.634 -1.4101 -0.4006  0.0269
  751TIP3   OH223667   3.042   1.626   2.572  0.3521  0.0408  0.6306
  751TIP3    H123668   2.962   1.664   2.536  0.6774  0.4414  0.3119
  751TIP3    H223669   3.013   1.568   2.642 -0.3857 -1.6011 -1.0069
  752TIP3   OH223670   6.186   6.603   4.750 -0.1810 -0.3987 -0.5077
  752TIP3    H123671   6.268   6.557   4.735 -0.5505 -1.0680 -0.4748
  752TIP3    H223672   6.135   6.589   4.671 -0.0635  0.4468 -0.7337
  753TIP3   OH223673   3.431   2.854  12.837  0.3698 -0.6773 -0.0884
  753TIP3    H123674   3.380   2.850  12.917 -0.4595  0.8312 -0.5293
  753TIP3    H223675   3.372   2.820  12.769 -0.4834  2.0710 -0.7870
  754TIP3   OH223676   5.248   4.008   6.701  0.0731  0.6641  0.3896
  754TIP3    H123677   5.219   3.926   6.661 -0.4450  1.1390 -0.2228
  754TIP3    H223678   5.170   4.041   6.746 -0.6212  2.3423 -1.9247
  755TIP3   OH223679   2.700   6.141   3.564 -0.2799 -0.1143  0.0307
  755TIP3    H123680   2.674   6.088   3.639  0.4475 -1.1308 -0.4236
  755TIP3    H223681   2.659   6.097   3.489  0.6390 -0.2539 -0.3893
  756TIP3   OH223682   3.720   0.876  12.510  0.1428 -0.2628  0.0419
  756TIP3    H123683   3.657   0.904  12.444  1.6117 -1.1892 -1.7943
  756TIP3    H223684   3.794   0.936  12.500 -0.3887  0.8285  2.1968
  757TIP3   OH223685   5.501   4.806  12.274 -0.2272  0.2953  0.2611
  757TIP3    H123686   5.532   4.724  12.312 -1.1341  0.7614  2.0728
  757TIP3    H223687   5.418   4.783  12.233 -1.0495  0.4978  1.7551
  758TIP3   OH223688   4.705   0.676   3.929 -0.0048  0.1130 -0.1921
  758TIP3    H123689   4.737   0.585   3.930 -2.0005 -0.6009  0.1142
  758TIP3    H223690   4.714   0.702   3.838  2.7323  0.4261  0.1053
  759TIP3   OH223691   0.187   5.877  16.080  0.4921 -0.6562 -0.0607
  759TIP3    H123692   0.167   5.945  16.145 -0.7902  0.1982 -1.3261
  759TIP3    H223693   0.275   5.899  16.050  1.2183 -1.2259  1.5724
  760TIP3   OH223694   0.180   4.866  14.585 -0.0894  0.1786 -0.3372
  760TIP3    H123695   0.169   4.877  14.679  1.9026 -0.3742  0.0005
  760TIP3    H223696   0.209   4.952  14.554 -1.0692  0.4516 -0.5141
  761TIP3   OH223697   3.538   6.030  11.941 -0.1313  0.1514 -0.0879
  761TIP3    H123698   3.587   5.983  12.009  0.7396  3.1025  1.4260
  761TIP3    H223699   3.490   6.098  11.988 -2.7223 -0.2752 -2.0158
  762TIP3   OH223700   0.442   1.492  12.931 -0.3977 -0.1582 -0.2215
  762TIP3    H123701   0.536   1.475  12.926 -0.3474 -0.6652  2.1273
  762TIP3    H223702   0.435   1.587  12.924  0.4225  0.0183  1.0555
  763TIP3   OH223703   0.935   4.971  16.383 -0.0223 -0.0698 -0.4338
  763TIP3    H123704   0.905   5.062  16.390  1.3477  0.3945 -0.4870
  763TIP3    H223705   0.976   4.966  16.297 -2.3254 -1.4296 -1.5053
  764TIP3   OH223706   2.454   3.795  11.388  0.7555  0.5081 -0.8928
  764TIP3    H123707   2.386   3.732  11.410 -1.2001  2.6687 -0.5929
  764TIP3    H223708   2.511   3.797  11.465 -0.5754  0.9222  0.0924
  765TIP3   OH223709   3.617   6.761  16.249  0.2123 -0.2794  0.5827
  765TIP3    H123710   3.646   6.775  16.339 -0.0821  3.8698  0.1455
  765TIP3    H223711   3.524   6.741  16.256 -0.0452  1.0891  1.1610
  766TIP3   OH223712   0.307   0.125   4.566 -0.1214 -0.0097 -0.2453
  766TIP3    H123713   0.348   0.040   4.581  0.9926  0.3233 -1.2865
  766TIP3    H223714   0.242   0.109   4.498 -0.9454 -0.3260  0.6241
  767TIP3   OH223715   5.433   5.105   3.410 -0.3372 -0.6132  0.1568
  767TIP3    H123716   5.386   5.181   3.443 -0.3357 -0.6681  0.2858
  767TIP3    H223717   5.367   5.036   3.404 -0.7565 -0.0752 -1.7759
  768TIP3   OH223718   6.227   1.162   1.222 -0.3801  0.2833  0.0294
  768TIP3    H123719   6.221   1.221   1.146 -2.7526 -0.4921 -0.4102
  768TIP3    H223720   6.277   1.087   1.189  1.0299  1.1700  0.0677
  769TIP3   OH223721   3.329   2.551  11.456 -0.9510 -0.2320  0.0860
  769TIP3    H123722   3.403   2.588  11.505  0.5073 -2.6108 -0.2066
  769TIP3    H223723   3.339   2.586  11.367 -0.8000  0.3027  0.3136
  770TIP3   OH223724   2.798   6.602   3.911  0.3172 -0.2963  0.1337
  770TIP3    H123725   2.804   6.583   3.818  0.7359  1.1246 -0.1449
  770TIP3    H223726   2.818   6.519   3.954  2.0467 -0.4957 -1.0260
  771TIP3   OH223727   5.328   5.495  13.235 -0.0850  0.2109  0.1610
  771TIP3    H123728   5.264   5.548  13.282 -0.2663  1.1374 -1.1056
  771TIP3    H223729   5.413   5.534  13.258 -0.1254  0.2800  0.1936
  772TIP3   OH223730   5.374   3.656   6.076  0.2583  0.1760  0.0278
  772TIP3    H123731   5.392   3.599   6.151  0.5050  1.7065  1.1375
  772TIP3    H223732   5.278   3.660   6.072  0.2443  0.0616  0.2412
  773TIP3   OH223733   3.922   0.419   1.613  0.6335  0.4233 -0.0962
  773TIP3    H123734   3.886   0.346   1.662  2.7697 -0.2104  0.5707
  773TIP3    H223735   3.941   0.486   1.678  0.7166  0.7280 -0.4274
  774TIP3   OH223736   3.404   3.318   4.968 -0.3827  0.2138 -0.1357
  774TIP3    H123737   3.469   3.362   4.913  2.0940 -1.1140  1.6578
  774TIP3    H223738   3.451   3.246   5.008 -3.1014 -1.0484  0.9055
  775TIP3   OH223739   4.991   0.167   3.739  0.4223 -0.2670  0.3749
  775TIP3    H123740   5.055   0.097   3.752  0.7039  0.1744  1.3852
  775TIP3    H223741   5.044   0.245   3.723  0.1116 -0.4904 -2.0631
  776TIP3   OH223742   1.527   5.961  11.892 -0.6935 -0.2142 -0.1673
  776TIP3    H123743   1.611   5.968  11.846 -1.6860  2.0156 -1.7287
  776TIP3    H223744   1.528   6.031  11.956 -0.3745 -1.7372  1.5250
  777TIP3   OH223745   3.319   4.767  12.132 -0.1199  0.0277 -0.3488
  777TIP3    H123746   3.359   4.725  12.208 -0.2522 -2.4291 -1.5888
  777TIP3    H223747   3.225   4.758  12.147 -0.1451 -0.4740 -0.8294
  778TIP3   OH223748   6.297   0.751  13.063 -0.2618 -0.3680  0.4960
  778TIP3    H123749   6.356   0.684  13.096 -0.2669  0.1513  1.5693
  778TIP3    H223750   6.355   0.818  13.026 -0.2906 -1.8219 -2.3398
  779TIP3   OH223751   2.015   4.675   0.444  0.0407 -0.3684  0.6255
  779TIP3    H123752   2.081   4.615   0.480 -0.7468 -0.6362  1.6546
  779TIP3    H223753   1.946   4.619   0.411  0.2816 -0.0812 -0.3929
  780TIP3   OH223754   3.264   0.293  15.714 -0.1982  0.0088 -0.1158
  780TIP3    H123755   3.254   0.204  15.747 -0.9925  0.1101 -0.0895
  780TIP3    H223756   3.319   0.337  15.779 -2.4928  0.4618  1.5391
  781TIP3   OH223757   6.534   3.046   2.054  0.1791 -0.6497  0.0924
  781TIP3    H123758   6.577   3.067   1.971  1.8533 -0.9880  0.8758
  781TIP3    H223759   6.445   3.081   2.044  0.8133  0.5853 -1.2881
  782TIP3   OH223760   1.303   0.653  17.155  0.4235  0.5037  0.5642
  782TIP3    H123761   1.329   0.561  17.142  4.0029  1.5172 -0.0550
  782TIP3    H223762   1.246   0.651  17.232  0.4086 -2.2475  0.5423
  783TIP3   OH223763   4.568   5.053  15.795 -0.3618 -0.5726  0.1054
  783TIP3    H123764   4.629   5.124  15.816  0.5255 -1.7801  1.7391
  783TIP3    H223765   4.544   5.069  15.704  0.2652  1.4890  0.2645
  784TIP3   OH223766   1.225   4.242  13.244  0.1153  0.5145  0.3461
  784TIP3    H123767   1.138   4.274  13.268 -0.8993 -1.7562 -0.1507
  784TIP3    H223768   1.213   4.148  13.232  3.3718 -0.4214  3.6018
  785TIP3   OH223769   5.958   5.483  14.812 -0.1166 -0.0780 -0.1512
  785TIP3    H123770   5.895   5.442  14.871  0.9233 -1.5830 -0.0436
  785TIP3    H223771   5.909   5.499  14.732 -1.0252  0.1465  0.4442
  786TIP3   OH223772   6.162   3.947  11.534  0.3018 -0.1894  0.1572
  786TIP3    H123773   6.159   3.959  11.629 -0.5824  0.5830  0.0370
  786TIP3    H223774   6.071   3.954  11.505  0.6287  0.2193 -0.8221
  787TIP3   OH223775   1.882   3.248   0.493  0.0346 -0.7198 -0.4328
  787TIP3    H123776   1.812   3.313   0.488 -1.4871 -2.2803  0.0560
  787TIP3    H223777   1.886   3.225   0.586  1.2017 -0.6361 -0.4623
  788TIP3   OH223778   5.947   6.187   4.070  0.1692 -0.0551  0.2687
  788TIP3    H123779   6.020   6.232   4.027  0.3235 -0.4549  0.1136
  788TIP3    H223780   5.974   6.095   4.074  0.4684  0.0934  1.8635
  789TIP3   OH223781   6.708   1.107   3.405  0.1830  0.2267 -0.1589
  789TIP3    H123782   6.618   1.107   3.370  0.3511 -2.0902 -0.7192
  789TIP3    H223783   6.707   1.173   3.474 -2.0329  0.0580  0.0280
  790TIP3   OH223784   2.359   3.208  15.789 -0.0742 -0.2395 -0.8091
  790TIP3    H123785   2.316   3.265  15.853 -0.9028 -2.1277  0.3577
  790TIP3    H223786   2.291   3.149  15.758  1.4977 -3.0170  0.7782
  791TIP3   OH223787   5.754   0.432  14.060  0.6505  0.8155  0.2570
  791TIP3    H123788   5.810   0.356  14.071  1.1631  1.3044  1.0366
  791TIP3    H223789   5.665   0.398  14.071  0.6950 -0.1821 -2.1734
  792TIP3   OH223790   1.031   0.961  13.286 -0.2975  0.0983 -0.1656
  792TIP3    H123791   0.997   1.009  13.362 -1.4567 -0.4634 -0.3175
  792TIP3    H223792   0.957   0.960  13.224  0.3180 -0.3117 -0.8944
  793TIP3   OH223793   0.214   2.812  14.810  0.1468  0.0029 -0.1543
  793TIP3    H123794   0.303   2.785  14.832  0.2997  0.6877  0.1026
  793TIP3    H223795   0.167   2.731  14.792  0.3591 -0.4917  1.4541
  794TIP3   OH223796   2.595   4.540  14.502  0.3286  0.0626 -0.0930
  794TIP3    H123797   2.665   4.558  14.566 -0.3081 -0.5063  0.7813
  794TIP3    H223798   2.525   4.599  14.527  0.3082  0.2806 -0.6623
  795TIP3   OH223799   2.598   3.363  13.317 -0.3149 -0.7355 -0.5149
  795TIP3    H123800   2.690   3.386  13.304 -0.4665  1.5030  1.8058
  795TIP3    H223801   2.599   3.273  13.349  1.2386 -0.1574  1.1641
  796TIP3   OH223802   1.487   0.602  15.291  0.1497  1.0053  0.0354
  796TIP3    H123803   1.479   0.549  15.370 -0.8574 -1.6366 -1.7684
  796TIP3    H223804   1.581   0.618  15.283  0.4552 -0.2987  0.7818
  797TIP3   OH223805   1.452   5.082  14.019 -0.6522 -0.3922 -0.0301
  797TIP3    H123806   1.404   5.095  13.938 -1.8202 -0.1513  0.6829
  797TIP3    H223807   1.424   4.996  14.050 -2.1443  0.5761  1.3828
  798TIP3   OH223808   0.923   6.114   5.685 -0.0443 -0.2720  0.1392
  798TIP3    H123809   0.881   6.195   5.715  0.3508  0.0811 -0.2686
  798TIP3    H223810   1.010   6.116   5.724 -0.6404 -1.3710  1.6131
  799TIP3   OH223811   5.416   2.647  17.215  0.6298 -0.0646  0.4787
  799TIP3    H123812   5.385   2.717  17.273 -1.1849  0.0424 -0.5644
  799TIP3    H223813   5.440   2.575  17.274 -1.7514 -0.1815  1.3525
  800TIP3   OH223814   4.590   4.122   1.526 -0.8231 -0.2680  0.4123
  800TIP3    H123815   4.609   4.074   1.445 -1.8349 -1.9856  1.1809
  800TIP3    H223816   4.560   4.208   1.496  1.4129  0.0871 -0.9655
  801TIP3   OH223817   0.679   4.527  11.811 -0.5757 -0.1273  0.1153
  801TIP3    H123818   0.757   4.477  11.834 -0.2480  0.6234  0.6453
  801TIP3    H223819   0.608   4.462  11.812 -0.2170 -0.5158  1.1682
  802TIP3   OH223820   2.556   5.972   5.790  0.0008 -0.2930  0.1230
  802TIP3    H123821   2.466   5.942   5.779  0.0919 -0.5534  0.0815
  802TIP3    H223822   2.559   6.057   5.746 -0.4509  0.1213  0.8764
  803TIP3   OH223823   1.535   2.536  16.326 -0.4561  0.2335 -0.0934
  803TIP3    H123824   1.553   2.442  16.323 -0.9491  0.1657 -1.3812
  803TIP3    H223825   1.493   2.550  16.411 -1.4321 -0.9150 -0.3720
  804TIP3   OH223826   0.331   4.206  12.329 -0.0299 -0.0488 -0.4580
  804TIP3    H123827   0.367   4.293  12.346  0.6665  0.1179 -2.5798
  804TIP3    H223828   0.388   4.169  12.262 -0.8119 -1.8244 -0.1810
  805TIP3   OH223829   5.741   4.974  12.781 -0.3234  0.3267  0.1728
  805TIP3    H123830   5.759   4.948  12.871 -0.6733 -1.3355 -0.2241
  805TIP3    H223831   5.662   4.926  12.757  0.3336 -0.0420 -1.3446
  806TIP3   OH223832   5.508   6.445  13.992 -0.0714  0.2240  0.2056
  806TIP3    H123833   5.454   6.524  14.001 -0.6271 -0.2845  1.4904
  806TIP3    H223834   5.595   6.472  14.019 -0.5189  0.1260  1.8163
  807TIP3   OH223835   1.945   4.257  15.697 -0.3245 -0.1893  0.9212
  807TIP3    H123836   1.922   4.263  15.790 -1.5802 -0.6209  0.6473
  807TIP3    H223837   1.863   4.275  15.650  0.3729  0.3693 -0.1132
  808TIP3   OH223838   0.346   4.166  15.012  0.4591 -0.0587 -0.7010
  808TIP3    H123839   0.338   4.148  15.105  1.5611 -1.2140 -0.7973
  808TIP3    H223840   0.258   4.153  14.976  0.2415 -0.5813  0.0236
  809TIP3   OH223841   6.131   4.234   2.353 -0.0096  0.3364 -0.0797
  809TIP3    H123842   6.219   4.271   2.350  1.0771 -2.2025 -0.3995
  809TIP3    H223843   6.100   4.254   2.442  1.3098  0.3074  0.3998
  810TIP3   OH223844   2.851   4.987  14.207  0.2252 -0.4104  0.3389
  810TIP3    H123845   2.777   5.025  14.161  2.4650  1.9677 -1.4554
  810TIP3    H223846   2.812   4.937  14.278 -3.1313 -0.4648 -1.4486
  811TIP3   OH223847   1.950   2.448   1.289  0.1573  0.2029  0.2445
  811TIP3    H123848   1.859   2.450   1.260  0.6991 -0.2027 -1.5445
  811TIP3    H223849   1.967   2.356   1.308 -0.2355  0.4888  2.0014
  812TIP3   OH223850   2.873   0.647  15.671  0.3806 -0.4256 -0.3637
  812TIP3    H123851   2.909   0.730  15.704 -0.7896 -0.5637  1.3165
  812TIP3    H223852   2.900   0.582  15.736 -1.6611 -0.7577  0.1846
  813TIP3   OH223853   0.669   4.810  15.855 -0.2051 -0.1576 -0.3244
  813TIP3    H123854   0.594   4.820  15.914 -0.4345 -2.2460 -0.2412
  813TIP3    H223855   0.641   4.745  15.791  1.1569 -0.1347 -0.9637
  814TIP3   OH223856   0.463   6.324   5.317 -0.4888 -0.5189 -0.5306
  814TIP3    H123857   0.510   6.293   5.240  0.9600  0.5126 -0.0913
  814TIP3    H223858   0.460   6.249   5.376  0.2371 -0.7207 -0.7476
  815TIP3   OH223859   4.820   4.961  13.108  0.6861 -0.1003 -0.3458
  815TIP3    H123860   4.734   4.971  13.149  0.3671 -1.2445 -0.7101
  815TIP3    H223861   4.878   5.014  13.162 -0.2023  0.4716  0.0622
  816TIP3   OH223862   6.752   5.344   5.213  0.0269  0.2470 -0.4455
  816TIP3    H123863   6.797   5.279   5.160  1.9746  2.1574 -1.2163
  816TIP3    H223864   6.747   5.304   5.300  1.3103 -0.8884 -0.8656
  817TIP3   OH223865   1.798   1.497   2.434  0.1130  0.3601  0.4595
  817TIP3    H123866   1.838   1.423   2.389  0.0385  1.0236 -0.7307
  817TIP3    H223867   1.786   1.467   2.524  0.1320 -1.0487  0.0070
  818TIP3   OH223868   5.713   5.752   0.264 -0.4020 -0.0029  0.3906
  818TIP3    H123869   5.714   5.791   0.352 -2.7716  1.1804 -0.0674
  818TIP3    H223870   5.794   5.700   0.261 -0.3186 -0.1771  3.3039
  819TIP3   OH223871   1.973   3.018   0.907  0.3631 -0.2100  0.1249
  819TIP3    H123872   2.019   2.941   0.941  0.0297 -0.7034 -0.5218
  819TIP3    H223873   1.974   3.006   0.812  0.3330  0.6025  0.0162
  820TIP3   OH223874   1.342   4.564   5.752 -0.1052  0.1135  0.1849
  820TIP3    H123875   1.305   4.477   5.754  2.6655 -1.1911 -1.6821
  820TIP3    H223876   1.326   4.596   5.663  0.1023  0.9242  0.4290
  821TIP3   OH223877   2.580   6.654   3.007 -0.2104  0.1539  0.0504
  821TIP3    H123878   2.527   6.594   3.060  1.9340 -0.9890  0.9693
  821TIP3    H223879   2.669   6.644   3.042  0.5139  2.4999 -1.0284
  822TIP3   OH223880   1.871   0.914   3.882 -0.4954  0.0044  0.0624
  822TIP3    H123881   1.784   0.876   3.870 -0.1990 -0.5612 -0.2737
  822TIP3    H223882   1.907   0.869   3.958  0.4565 -1.4910 -1.2377
  823TIP3   OH223883   0.985   2.794  13.229  0.5762 -0.6195  0.0414
  823TIP3    H123884   0.976   2.817  13.322 -2.9074 -0.0789 -0.3605
  823TIP3    H223885   1.011   2.702  13.229 -2.3766 -1.5163  1.5905
  824TIP3   OH223886   4.164   1.931   4.487  0.3551  0.0791  0.3294
  824TIP3    H123887   4.118   1.853   4.519 -0.2664 -0.5906 -2.0744
  824TIP3    H223888   4.224   1.954   4.558 -1.1268 -1.1677  2.0561
  825TIP3   OH223889   2.211   1.945   5.971  0.0571  0.2680  0.0876
  825TIP3    H123890   2.243   1.919   6.057 -0.5169  0.9577  0.5092
  825TIP3    H223891   2.201   2.040   5.976  1.4324  0.5097 -1.2144
  826TIP3   OH223892   4.326   3.663   1.004  0.2992  0.2693 -0.5451
  826TIP3    H123893   4.351   3.748   0.966  1.6747 -0.0185 -0.3397
  826TIP3    H223894   4.307   3.608   0.928  0.2473  0.5208 -0.7164
  827TIP3   OH223895   1.816   0.235   4.382 -0.1640 -0.2263  0.5265
  827TIP3    H123896   1.795   0.302   4.316  0.3701 -0.5204  0.0492
  827TIP3    H223897   1.778   0.155   4.347  3.3942 -1.2230 -1.3818
  828TIP3   OH223898   5.437   0.982  12.357 -0.8024 -0.3698 -0.1559
  828TIP3    H123899   5.468   1.072  12.360  1.1836 -1.0147 -0.4531
  828TIP3    H223900   5.482   0.939  12.429 -0.9489 -1.3617 -0.6462
  829TIP3   OH223901   5.302   1.539  11.315 -0.3663 -0.2564  0.5708
  829TIP3    H123902   5.297   1.633  11.333  2.1916  0.0256 -0.0521
  829TIP3    H223903   5.259   1.529  11.229 -2.5860 -0.0138  1.6079
  830TIP3   OH223904   1.912   4.566   5.401  0.4392  0.2214 -0.6016
  830TIP3    H123905   1.989   4.513   5.423 -0.1602 -1.7218 -2.9724
  830TIP3    H223906   1.903   4.627   5.474  2.2824 -1.7105  1.3050
  831TIP3   OH223907   3.073   6.135  13.856  0.3721  0.2937 -0.0935
  831TIP3    H123908   3.041   6.222  13.833  0.8759  0.5521  0.1664
  831TIP3    H223909   3.057   6.082  13.778  1.4737  0.9971 -0.8099
  832TIP3   OH223910   1.366   1.770   5.419 -0.2663  0.5558  0.0098
  832TIP3    H123911   1.358   1.685   5.377  0.1515  1.0417 -1.0824
  832TIP3    H223912   1.413   1.752   5.500  1.5105  0.0021 -1.1096
  833TIP3   OH223913   5.889   0.311   3.933  0.0635  0.3779 -0.0541
  833TIP3    H123914   5.802   0.351   3.937  0.4783  1.3612 -0.6140
  833TIP3    H223915   5.949   0.380   3.963  0.6044 -0.4629  0.8444
  834TIP3   OH223916   6.148   0.247  16.662 -0.0778 -0.1497  0.6089
  834TIP3    H123917   6.180   0.298  16.588 -0.9543 -0.5267 -0.0340
  834TIP3    H223918   6.170   0.157  16.640 -0.6882 -0.3037  0.6183
  835TIP3   OH223919   3.582   3.771   2.277 -0.0511  0.3442  0.5012
  835TIP3    H123920   3.516   3.779   2.209 -0.1430 -0.5735  0.4782
  835TIP3    H223921   3.548   3.704   2.336  1.2944 -0.8456 -0.0354
  836TIP3   OH223922   6.146   5.040   5.550  0.0715 -0.4434 -0.4172
  836TIP3    H123923   6.173   4.954   5.518  2.5622  0.0198  0.3814
  836TIP3    H223924   6.086   5.020   5.622  1.0731 -1.5410  0.1421
  837TIP3   OH223925   2.092   2.404  16.422 -0.1838  0.2192 -0.2947
  837TIP3    H123926   2.153   2.342  16.463 -0.0049  1.7363  1.8005
  837TIP3    H223927   2.035   2.348  16.369 -0.1336 -1.7904  1.6788
  838TIP3   OH223928   0.205   1.339  14.073 -0.1655  0.2685 -0.1246
  838TIP3    H123929   0.229   1.264  14.128 -1.3722 -0.5856 -0.7428
  838TIP3    H223930   0.256   1.326  13.993  1.0231  1.1116  0.4774
  839TIP3   OH223931   6.171   5.214  10.026 -0.4572 -0.4542  0.3917
  839TIP3    H123932   6.196   5.122  10.017 -3.0816 -1.2470  0.7566
  839TIP3    H223933   6.129   5.218  10.112 -0.2067  1.1147  0.4430
  840TIP3   OH223934   3.015   4.212  12.154 -0.5433  0.1034  0.5716
  840TIP3    H123935   2.929   4.227  12.114 -0.2678 -1.2111 -0.5734
  840TIP3    H223936   3.014   4.119  12.178  0.3731  0.2095  1.0271
  841TIP3   OH223937   1.418   5.908  13.229 -0.2270  0.2432  0.3411
  841TIP3    H123938   1.366   5.986  13.249 -1.2435 -0.3755  0.1467
  841TIP3    H223939   1.457   5.926  13.144 -2.7549 -0.6246 -1.0352
  842TIP3   OH223940   0.934   2.659  12.813 -0.9592 -0.3240 -0.5299
  842TIP3    H123941   0.964   2.720  12.880 -0.6694 -0.3164 -0.6671
  842TIP3    H223942   1.012   2.640  12.761 -1.1315 -0.5151 -0.7195
  843TIP3   OH223943   1.738   0.827  14.708  0.0252 -0.0455  0.5570
  843TIP3    H123944   1.807   0.762  14.692  2.1740  2.2324  0.3372
  843TIP3    H223945   1.679   0.784  14.771  0.3849 -2.8694 -0.9479
  844TIP3   OH223946   1.084   2.673   0.728  0.7829  0.1215 -0.0392
  844TIP3    H123947   1.050   2.631   0.807  3.3500 -2.3199 -0.1378
  844TIP3    H223948   1.103   2.600   0.669 -1.9565  1.9446 -3.3446
  845TIP3   OH223949   6.502   5.629  15.042  0.0475  0.3110  0.3434
  845TIP3    H123950   6.406   5.631  15.044  0.0336  1.6141 -1.3569
  845TIP3    H223951   6.525   5.557  15.102 -1.9627  0.1912  1.0151
  846TIP3   OH223952   3.656   0.723   0.402 -0.0626 -0.2736 -0.1094
  846TIP3    H123953   3.596   0.655   0.370  1.0866 -1.5199  0.3212
  846TIP3    H223954   3.646   0.720   0.497  1.9418 -1.7213  0.0868
  847TIP3   OH223955   4.608   2.684   3.666 -0.0253  0.5037  0.1453
  847TIP3    H123956   4.519   2.715   3.677  0.6704  1.7904  2.4270
  847TIP3    H223957   4.630   2.643   3.750  0.6370 -2.1971 -1.2676
  848TIP3   OH223958   2.331   6.061   3.382  0.4340 -0.4324 -0.1860
  848TIP3    H123959   2.257   6.118   3.360 -0.6532 -2.0322 -0.7231
  848TIP3    H223960   2.372   6.103   3.457 -0.3617  1.0552 -0.5642
  849TIP3   OH223961   5.734   0.768   5.999 -1.1113 -0.0501  0.2632
  849TIP3    H123962   5.711   0.854   6.033  0.0929  0.2468  0.3485
  849TIP3    H223963   5.707   0.706   6.067  1.6870  0.5675  1.9951
  850TIP3   OH223964   6.720   2.454   2.051 -0.0778 -0.0921  0.1283
  850TIP3    H123965   6.769   2.474   1.971 -0.7427 -0.8738 -0.4849
  850TIP3    H223966   6.782   2.409   2.107  0.1794 -0.2265 -0.2601
  851TIP3   OH223967   2.112   1.619   1.648  0.3277  0.3450  0.8833
  851TIP3    H123968   2.166   1.669   1.588 -0.1808 -0.4636 -0.2573
  851TIP3    H223969   2.172   1.554   1.686  0.1685 -0.5906 -0.4243
  852TIP3   OH223970   6.198   6.507  15.230  0.2875  0.3744 -0.1020
  852TIP3    H123971   6.189   6.451  15.306 -1.8131 -1.0494 -1.3555
  852TIP3    H223972   6.268   6.466  15.178 -0.6276 -0.5981 -0.5818
  853TIP3   OH223973   5.216   1.882   5.239 -0.2492 -0.5359 -0.2758
  853TIP3    H123974   5.276   1.807   5.243  0.7823  0.2950 -0.1115
  853TIP3    H223975   5.131   1.845   5.264  0.9651 -0.8965  3.5820
  854TIP3   OH223976   3.171   0.439  13.762 -0.5345 -0.0905  0.4253
  854TIP3    H123977   3.260   0.405  13.750 -0.6773 -0.6167  0.8241
  854TIP3    H223978   3.114   0.367  13.735 -0.8450 -0.3779  1.8045
  855TIP3   OH223979   2.057   0.306   4.486  0.4450  0.1316  0.1278
  855TIP3    H123980   1.961   0.306   4.477  0.2372  0.9587  2.0982
  855TIP3    H223981   2.089   0.332   4.400 -1.1667  1.5542 -0.0685
  856TIP3   OH223982   1.895   1.532  14.857 -0.0189  0.3669 -0.3529
  856TIP3    H123983   1.821   1.578  14.817 -2.1374 -1.6269  1.1111
  856TIP3    H223984   1.886   1.550  14.950  2.7107  1.9449 -0.3579
  857TIP3   OH223985   5.230   4.694   2.944 -0.4618  0.5165 -0.3019
  857TIP3    H123986   5.227   4.736   2.858  2.1747 -1.1883 -1.2836
  857TIP3    H223987   5.162   4.627   2.941 -0.3044  0.3909 -1.1266
  858TIP3   OH223988   5.248   2.559   3.369 -0.1262  0.1586  0.1000
  858TIP3    H123989   5.319   2.495   3.356 -0.2429 -0.0442  0.4611
  858TIP3    H223990   5.290   2.644   3.354  0.0356  0.0043 -0.3568
  859TIP3   OH223991   4.250   6.152  15.591 -0.8623  0.1105  0.4183
  859TIP3    H123992   4.228   6.202  15.670 -1.4311  0.3908  0.0841
  859TIP3    H223993   4.310   6.085  15.622  0.3981  1.3638  0.7719
  860TIP3   OH223994   1.401   0.365  16.164 -0.0441  0.3284  0.7646
  860TIP3    H123995   1.379   0.272  16.155 -0.9564  0.5460  0.6887
  860TIP3    H223996   1.432   0.374  16.254 -0.7307  0.0999  1.0259
  861TIP3   OH223997   3.687   6.224   6.065 -0.1196 -0.5034 -0.0993
  861TIP3    H123998   3.612   6.247   6.120  0.6231  0.4122  0.5362
  861TIP3    H223999   3.720   6.143   6.103  0.5872  0.3015  1.0033
  862TIP3   OH224000   0.318   5.831   1.079 -0.0740 -0.3831 -0.2659
  862TIP3    H124001   0.231   5.791   1.075 -0.3889  0.2360  0.2153
  862TIP3    H224002   0.376   5.769   1.035 -0.7647 -0.7913 -0.6028
  863TIP3   OH224003   2.449   0.255  15.491 -0.9386  0.1726  0.7490
  863TIP3    H124004   2.457   0.214  15.578  1.2563  1.5014  1.2305
  863TIP3    H224005   2.539   0.254  15.457 -1.6476  0.4324 -1.1616
  864TIP3   OH224006   5.154   2.143   2.385  0.1953  0.4947 -0.2053
  864TIP3    H124007   5.089   2.145   2.455 -0.1108  0.6596 -0.4949
  864TIP3    H224008   5.238   2.151   2.430  0.0855 -0.7954  0.2586
  865TIP3   OH224009   2.932   0.334   5.014 -0.3523  0.1343 -0.2927
  865TIP3    H124010   2.878   0.397   4.966 -1.5050  0.2355  1.0862
  865TIP3    H224011   3.009   0.322   4.959 -1.2169  0.9214 -1.7295
  866TIP3   OH224012   1.748   3.597  16.053 -0.2124  0.2399  0.2327
  866TIP3    H124013   1.827   3.552  16.025 -0.1091  0.4669  0.1617
  866TIP3    H224014   1.697   3.530  16.098  0.1234  0.1524  0.4823
  867TIP3   OH224015   3.826   2.046   0.062 -0.0416  0.1802 -0.6936
  867TIP3    H124016   3.874   1.994   0.126  0.0260 -0.0264 -0.9159
  867TIP3    H224017   3.889   2.112   0.033 -0.0603  0.2492 -0.5806
  868TIP3   OH224018   2.778   1.370   0.891 -0.0527 -0.1610  0.2738
  868TIP3    H124019   2.856   1.319   0.871 -0.0008  0.5081 -1.3089
  868TIP3    H224020   2.812   1.449   0.933  0.0686 -0.1758  0.2036
  869TIP3   OH224021   4.367   5.634   1.543  0.3945  0.1978 -0.1885
  869TIP3    H124022   4.377   5.578   1.621  1.4709  1.1766  0.3842
  869TIP3    H224023   4.435   5.604   1.483  0.4384  0.3464 -0.2138
  870TIP3   OH224024   1.356   5.753   5.202  0.7345  0.1091  0.1864
  870TIP3    H124025   1.392   5.668   5.178 -1.4189 -1.0304  0.8602
  870TIP3    H224026   1.313   5.783   5.122 -0.0326 -0.2686  0.4505
  871TIP3   OH224027   2.019   3.707  13.505 -0.0181  0.4506  0.5168
  871TIP3    H124028   1.995   3.659  13.585  2.6336  0.1596  1.2091
  871TIP3    H224029   2.014   3.799  13.530  2.3840  0.3400  1.5775
  872TIP3   OH224030   2.790   3.386  11.223  0.8144 -0.1864 -0.0736
  872TIP3    H124031   2.846   3.392  11.145 -0.0299  1.3115 -0.5850
  872TIP3    H224032   2.701   3.381  11.188  0.4688 -0.0326  0.7756
  873TIP3   OH224033   3.106   5.726   1.669 -0.1547 -0.2932  0.1293
  873TIP3    H124034   3.133   5.638   1.698  1.6872 -0.1774 -1.1600
  873TIP3    H224035   3.091   5.716   1.575  1.5996  1.1171 -0.3195
  874TIP3   OH224036   2.538   4.754   3.585  0.4051  0.6059 -0.3412
  874TIP3    H124037   2.487   4.810   3.642 -0.1177 -0.7844  0.5818
  874TIP3    H224038   2.506   4.774   3.497 -2.2992 -0.7619  0.2637
  875TIP3   OH224039   4.433   1.793   4.537 -0.0717 -0.0538  0.0884
  875TIP3    H124040   4.345   1.756   4.538 -0.0714 -0.0551  0.0774
  875TIP3    H224041   4.432   1.855   4.464 -0.2158  0.3165  0.4043
  876TIP3   OH224042   3.141   6.192  15.497 -0.1502  0.1039  0.2883
  876TIP3    H124043   3.196   6.201  15.420 -0.4136  0.3145  0.1250
  876TIP3    H224044   3.051   6.191  15.463 -0.3230  1.2642  0.6744
  877TIP3   OH224045   5.406   2.797  14.977 -0.4491 -0.1251 -0.3433
  877TIP3    H124046   5.409   2.890  14.954 -1.8396 -0.0249 -0.2058
  877TIP3    H224047   5.328   2.789  15.032 -0.0987 -1.3001 -0.0084
  878TIP3   OH224048   3.980   4.398   1.493 -0.3827  0.2978  0.2146
  878TIP3    H124049   3.956   4.428   1.405  0.4135  2.2562  0.6252
  878TIP3    H224050   4.032   4.470   1.529  0.5318 -1.1012  1.7562
  879TIP3   OH224051   2.294   6.475   2.679 -0.8942 -0.2922  0.4776
  879TIP3    H124052   2.339   6.451   2.760 -2.5539  0.3379  1.6125
  879TIP3    H224053   2.227   6.408   2.667  0.6205 -1.5014 -1.4648
  880TIP3   OH224054   0.257   1.591   1.777  0.9128 -0.1055 -0.5538
  880TIP3    H124055   0.214   1.594   1.691  0.1085  0.3480 -0.1463
  880TIP3    H224056   0.345   1.558   1.759 -0.5122 -3.9432 -1.0502
  881TIP3   OH224057   5.415   2.149   1.376 -0.1498 -0.3034 -0.0450
  881TIP3    H124058   5.477   2.088   1.338 -0.6333 -0.4464 -0.6088
  881TIP3    H224059   5.468   2.227   1.397 -0.0581  0.1616 -1.9295
  882TIP3   OH224060   1.587   4.821   3.575 -0.0325 -0.2843 -0.0101
  882TIP3    H124061   1.500   4.861   3.565 -0.2977 -1.0696 -0.9117
  882TIP3    H224062   1.575   4.730   3.547  0.8048 -0.7304  1.0348
  883TIP3   OH224063   2.374   0.515  15.078  0.0513 -0.1076 -0.0584
  883TIP3    H124064   2.464   0.518  15.112  0.5399 -1.2507 -1.1984
  883TIP3    H224065   2.325   0.575  15.134  1.9361  2.0352 -0.5804
  884TIP3   OH224066   2.989   1.527  11.157 -0.1963  0.0016 -0.4462
  884TIP3    H124067   2.977   1.589  11.086 -0.4211  0.3337 -0.1233
  884TIP3    H224068   3.079   1.497  11.149 -0.0337  0.5007 -0.5009
  885TIP3   OH224069   5.893   2.828   3.206 -0.3593  0.1049 -0.4041
  885TIP3    H124070   5.923   2.773   3.278  4.0114 -0.6216 -2.6406
  885TIP3    H224071   5.895   2.917   3.242  0.5408 -0.3721  0.7756
  886TIP3   OH224072   0.660   5.856  17.002 -0.7131 -0.2390 -0.3053
  886TIP3    H124073   0.655   5.807  16.919  0.2068  1.8444 -1.6414
  886TIP3    H224074   0.625   5.796  17.067  0.0412 -2.5566 -1.9468
  887TIP3   OH224075   5.617   5.162  15.688 -0.1650 -1.0271 -0.7878
  887TIP3    H124076   5.705   5.126  15.682  0.2320  0.2802 -3.6298
  887TIP3    H224077   5.623   5.230  15.755  0.9387 -1.1023 -0.7982
  888TIP3   OH224078   1.444   6.254  10.604  0.2799 -0.6653 -0.4657
  888TIP3    H124079   1.536   6.228  10.597  0.0572 -0.6586 -5.2540
  888TIP3    H224080   1.395   6.179  10.571 -1.4349 -0.4964  1.5975
  889TIP3   OH224081   4.638   6.311   4.953 -0.0295 -0.4077 -0.1403
  889TIP3    H124082   4.639   6.218   4.974  1.4384  0.2106  2.8421
  889TIP3    H224083   4.723   6.343   4.984 -0.0674  1.7178 -2.1314
  890TIP3   OH224084   0.292   4.606   2.762  0.4355  0.1716  0.1545
  890TIP3    H124085   0.382   4.574   2.771  0.6214  0.7907  0.4780
  890TIP3    H224086   0.275   4.654   2.843  0.3056  1.2611 -0.5169
  891TIP3   OH224087   1.802   1.589   0.813 -0.6156  0.0277  0.1993
  891TIP3    H124088   1.808   1.512   0.871  0.2503 -0.7181 -0.8585
  891TIP3    H224089   1.875   1.578   0.751 -1.0692  1.2123 -0.5589
  892TIP3   OH224090   2.737   5.178  12.274  0.0597  0.1641  0.3203
  892TIP3    H124091   2.820   5.137  12.299  0.8377  1.3369 -0.3006
  892TIP3    H224092   2.756   5.272  12.275 -1.6461  0.5044  1.5463
  893TIP3   OH224093   0.022   0.879  14.088 -0.0276 -0.8486  0.3880
  893TIP3    H124094   0.094   0.831  14.048 -0.1515  0.4342 -1.4531
  893TIP3    H224095   0.037   0.971  14.065 -2.3124 -0.5691 -0.1788
  894TIP3   OH224096   0.513   4.910  16.460 -0.0683 -0.2921  0.2609
  894TIP3    H124097   0.497   5.003  16.442  0.6779 -0.3519 -0.8098
  894TIP3    H224098   0.463   4.891  16.539 -1.4316  0.6484 -0.3671
  895TIP3   OH224099   3.777   1.423  15.623 -0.4839  0.1059 -0.3719
  895TIP3    H124100   3.763   1.501  15.677  0.3482 -0.2314  0.3509
  895TIP3    H224101   3.872   1.416  15.616 -0.5591 -0.7579 -0.5452
  896TIP3   OH224102   4.832   6.478  15.249 -0.2170  0.3169  0.0354
  896TIP3    H124103   4.920   6.510  15.233 -0.1600 -0.2378 -0.7790
  896TIP3    H224104   4.833   6.449  15.341  0.4257  0.3498  0.0399
  897TIP3   OH224105   6.412   6.356   1.396  0.2418  0.3696  0.3112
  897TIP3    H124106   6.458   6.424   1.348  0.0633  0.7381  0.6506
  897TIP3    H224107   6.385   6.399   1.477  1.2404 -0.4689  1.0991
  898TIP3   OH224108   3.372   3.908   2.994  0.4307  0.7501 -0.1337
  898TIP3    H124109   3.297   3.957   2.961  0.0817  0.2351 -0.0886
  898TIP3    H224110   3.435   3.976   3.018  0.2333  1.1647 -0.7613
  899TIP3   OH224111   0.780   6.760  16.318 -0.0764 -0.1354 -0.4997
  899TIP3    H124112   0.694   6.786  16.351  0.4066  2.6164 -1.2421
  899TIP3    H224113   0.770   6.758  16.223  0.9975  1.5646 -0.6727
  900TIP3   OH224114   1.437   5.738  12.027 -0.0937 -0.2697 -0.0085
  900TIP3    H124115   1.399   5.761  11.942 -0.5473  0.6410  0.4348
  900TIP3    H224116   1.460   5.822  12.067  0.6599 -0.7199  0.5275
  901TIP3   OH224117   2.255   2.979  14.113 -0.4979  0.3162  0.1594
  901TIP3    H124118   2.180   2.922  14.131 -0.4095 -0.1708 -0.9803
  901TIP3    H224119   2.221   3.045  14.052 -0.4032  1.0419  0.8820
  902TIP3   OH224120   1.816   2.838  14.932 -0.1454  0.2488  0.0872
  902TIP3    H124121   1.802   2.800  15.018 -0.3002  1.5196  0.6338
  902TIP3    H224122   1.738   2.814  14.882 -0.1112 -0.3849  0.3293
  903TIP3   OH224123   5.043   3.767  12.536 -0.4721 -0.1584  0.0886
  903TIP3    H124124   5.034   3.811  12.451  0.7851  3.0891  1.5734
  903TIP3    H224125   4.969   3.800  12.587 -0.5933 -1.2572  0.6250
  904TIP3   OH224126   0.767   3.167   2.963  0.0877  0.4801  0.1322
  904TIP3    H124127   0.712   3.175   2.886  2.2458 -1.2870 -1.6420
  904TIP3    H224128   0.713   3.122   3.028 -1.3302  0.9495 -0.7150
  905TIP3   OH224129   5.043   0.984   5.067  0.2024 -0.6200  0.2662
  905TIP3    H124130   5.043   0.979   4.972  0.0892 -2.8172  0.3637
  905TIP3    H224131   5.122   0.937   5.094  0.6346  0.6315  1.2443
  906TIP3   OH224132   2.292   1.256  12.020 -0.3916 -0.3476  0.0314
  906TIP3    H124133   2.382   1.224  12.025 -0.2383  0.0353 -0.3014
  906TIP3    H224134   2.300   1.351  12.019 -0.8480 -0.2990  0.8595
  907TIP3   OH224135   6.527   3.458   3.735  0.1936  0.0649  0.2499
  907TIP3    H124136   6.517   3.478   3.828 -1.4605 -1.9867  0.5402
  907TIP3    H224137   6.468   3.519   3.691  0.7662  0.8477  0.5416
  908TIP3   OH224138   6.400   0.699  11.302  0.4109 -0.2784 -0.3453
  908TIP3    H124139   6.383   0.605  11.297 -0.4320 -0.2079  0.9215
  908TIP3    H224140   6.427   0.723  11.213  1.6202 -1.8973 -0.4361
  909TIP3   OH224141   0.789   5.026  13.708  0.6569 -0.4437  0.1073
  909TIP3    H124142   0.710   5.081  13.703  1.1349  0.3346  1.0812
  909TIP3    H224143   0.839   5.062  13.781  2.8423  0.2984 -1.6834
  910TIP3   OH224144   2.826   0.504  13.153 -0.2932  0.1918 -0.3078
  910TIP3    H124145   2.837   0.410  13.137 -3.2326 -0.1576 -0.4978
  910TIP3    H224146   2.732   0.520  13.143  0.4570  3.6481 -2.8117
  911TIP3   OH224147   3.683   4.634   5.744 -0.0831 -0.0950  0.0672
  911TIP3    H124148   3.619   4.697   5.710 -0.3845 -0.0432  0.7367
  911TIP3    H224149   3.696   4.573   5.671  0.9159  1.2735 -0.9222
  912TIP3   OH224150   2.280   4.763  13.429 -0.5892  0.5591  0.6684
  912TIP3    H124151   2.279   4.682  13.378  0.0940  0.6721  0.4733
  912TIP3    H224152   2.208   4.815  13.392 -0.4924  0.3868  0.2342
  913TIP3   OH224153   2.638   5.943   3.775  0.9469  0.1803  0.8986
  913TIP3    H124154   2.701   5.941   3.847 -0.0739  1.1902  1.8577
  913TIP3    H224155   2.558   5.977   3.815  0.0123 -0.3867 -0.4561
  914TIP3   OH224156   1.096   3.493  13.108 -0.4102 -0.5602  0.3500
  914TIP3    H124157   1.132   3.423  13.053  3.0664  0.7717  0.7643
  914TIP3    H224158   1.091   3.455  13.196  1.5984 -0.3191  0.5991
  915TIP3   OH224159   4.573   4.584   5.521  0.2606  0.5620  0.0649
  915TIP3    H124160   4.540   4.575   5.611 -0.6603  0.4171 -0.2875
  915TIP3    H224161   4.667   4.600   5.532  0.2462  0.0231  1.0387
  916TIP3   OH224162   4.519   1.286   0.390 -0.0340 -0.2502  0.3588
  916TIP3    H124163   4.472   1.367   0.410 -0.3257 -0.4704  0.5693
  916TIP3    H224164   4.568   1.267   0.470 -0.6600 -0.7596  0.6248
  917TIP3   OH224165   1.408   5.314   0.188  0.2967  0.6664  0.2351
  917TIP3    H124166   1.325   5.287   0.227  1.4179 -1.5013  1.2451
  917TIP3    H224167   1.387   5.392   0.136 -2.4218 -0.0805  0.1579
  918TIP3   OH224168   4.369   6.029  11.817  0.0709 -0.2879  0.2620
  918TIP3    H124169   4.390   6.114  11.856  0.3954 -0.3746  0.2722
  918TIP3    H224170   4.379   6.042  11.723 -0.3058 -0.1949  0.2324
  919TIP3   OH224171   3.437   5.398   0.281 -0.2508 -0.2534  0.3320
  919TIP3    H124172   3.521   5.444   0.279 -0.7959  0.8514  1.7405
  919TIP3    H224173   3.375   5.460   0.243 -0.4834 -0.9257 -0.3752
  920TIP3   OH224174   2.257   0.806  12.607  0.4935 -0.1309 -0.2970
  920TIP3    H124175   2.266   0.717  12.643 -1.7703 -0.3737 -0.2217
  920TIP3    H224176   2.183   0.843  12.655  0.8137  1.4544 -1.0117
  921TIP3   OH224177   4.456   4.310  12.754  0.0046 -1.0515  0.0293
  921TIP3    H124178   4.525   4.268  12.805  0.5335  0.4522  0.5551
  921TIP3    H224179   4.499   4.340  12.674  0.0318  0.2168  0.5229
  922TIP3   OH224180   0.415   2.172  12.971  0.3141 -0.7868  0.2645
  922TIP3    H124181   0.338   2.146  12.920 -0.2155 -1.7226  1.5176
  922TIP3    H224182   0.489   2.139  12.920 -0.1140 -0.0269 -0.8629
  923TIP3   OH224183   5.537   6.604   1.898  0.4479  0.4983 -0.1476
  923TIP3    H124184   5.528   6.673   1.832 -0.6273  0.4575 -0.0526
  923TIP3    H224185   5.605   6.546   1.863 -0.4032  0.2572 -1.4137
  924TIP3   OH224186   2.345   1.012   4.758  0.1582 -0.6778 -0.4552
  924TIP3    H124187   2.395   1.070   4.815  1.4925 -0.8376 -1.4460
  924TIP3    H224188   2.270   1.065   4.730  0.3283 -0.0881  0.1951
  925TIP3   OH224189   2.224   3.642  12.395  0.0442  0.0021 -0.2997
  925TIP3    H124190   2.216   3.735  12.415  0.2034  0.0039 -0.2456
  925TIP3    H224191   2.219   3.598  12.480  1.5255  0.0604 -0.1775
  926TIP3   OH224192   3.840   5.967   0.108 -0.3003 -0.0867  0.4084
  926TIP3    H124193   3.763   5.922   0.145 -2.1616  1.4942 -1.4044
  926TIP3    H224194   3.841   6.052   0.152 -0.2896  0.3545 -0.4451
  927TIP3   OH224195   0.082   6.502  13.090  0.0000  0.4393  0.2536
  927TIP3    H124196   0.174   6.495  13.066 -0.0191 -2.4559  0.8454
  927TIP3    H224197   0.077   6.468  13.179 -1.2718  3.0426  1.2369
  928TIP3   OH224198   3.887   2.164  14.555  0.4059  0.2017  0.0635
  928TIP3    H124199   3.940   2.170  14.634  0.5223 -0.0378  0.0061
  928TIP3    H224200   3.808   2.214  14.574  0.9175  1.0721 -0.0618
  929TIP3   OH224201   2.570   6.366   3.737  0.0283  0.2028 -0.1026
  929TIP3    H124202   2.525   6.403   3.814 -1.1700 -0.0604 -0.6610
  929TIP3    H224203   2.658   6.345   3.768 -0.8388 -1.0872  1.5401
  930TIP3   OH224204   2.838   4.273  13.111  0.0692  0.0766  0.3407
  930TIP3    H124205   2.919   4.239  13.148  0.1978  2.2918  2.2301
  930TIP3    H224206   2.771   4.255  13.177 -0.8179 -0.9381 -0.8120
  931TIP3   OH224207   3.969   6.226  15.529  0.0604  0.2364  0.0817
  931TIP3    H124208   3.961   6.319  15.550  0.0162  0.1997  0.2268
  931TIP3    H224209   4.056   6.202  15.560  0.6109  0.5451 -1.1591
  932TIP3   OH224210   4.310   3.845   2.515 -0.5381 -0.3264  0.4303
  932TIP3    H124211   4.330   3.904   2.587 -2.2502 -0.1232  0.7672
  932TIP3    H224212   4.216   3.854   2.501 -0.8952 -3.1138  0.6328
  933TIP3   OH224213   2.971   1.347   3.779 -0.3946 -0.4329  0.1640
  933TIP3    H124214   3.060   1.322   3.806  0.2344  0.6135 -0.8929
  933TIP3    H224215   2.927   1.264   3.761  1.1554 -0.8895 -1.7292
  934TIP3   OH224216   4.846   5.627   0.949 -0.3684  0.1272 -0.8755
  934TIP3    H124217   4.915   5.666   1.002 -0.4767  2.3273 -2.2825
  934TIP3    H224218   4.837   5.686   0.874 -0.5595 -2.5893 -3.1069
  935TIP3   OH224219   3.469   2.270   3.036 -0.0797 -0.0278  0.1530
  935TIP3    H124220   3.543   2.321   3.069  0.0597 -0.5809  0.7120
  935TIP3    H224221   3.506   2.184   3.015 -0.3495  0.0391 -0.6043
  936TIP3   OH224222   3.469   0.608  17.159  0.6021 -0.0838  0.4950
  936TIP3    H124223   3.487   0.670  17.088  0.1327  0.3370  0.7474
  936TIP3    H224224   3.420   0.658  17.224  0.2145 -0.7186  0.6988
  937TIP3   OH224225   3.605   3.423   2.719 -0.7263 -0.2270 -0.4772
  937TIP3    H124226   3.683   3.405   2.667 -1.3871  0.0162 -1.5925
  937TIP3    H224227   3.601   3.519   2.724 -1.0103 -0.2356 -0.5261
  938TIP3   OH224228   2.757   0.648  16.539  0.0340  0.6551  0.2203
  938TIP3    H124229   2.790   0.570  16.495  1.7783 -0.0416  2.6213
  938TIP3    H224230   2.677   0.671  16.492 -0.0336 -2.0565 -1.0616
  939TIP3   OH224231   2.538   3.628   2.598  0.0206 -0.9038  0.5925
  939TIP3    H124232   2.600   3.685   2.643 -1.3589  1.1824 -0.0389
  939TIP3    H224233   2.569   3.624   2.508  0.3690 -1.5411  0.7372
  940TIP3   OH224234   2.300   5.067   3.880 -0.0896  0.0388  0.1570
  940TIP3    H124235   2.218   5.116   3.871 -1.1182 -1.6665  0.0653
  940TIP3    H224236   2.306   5.046   3.973 -0.2958 -0.7142  0.0092
  941TIP3   OH224237   1.144   6.720  14.383 -0.0474 -0.0187 -0.6381
  941TIP3    H124238   1.193   6.678  14.312  0.8188  0.5216 -0.3598
  941TIP3    H224239   1.176   6.810  14.385  1.4561 -0.5576  1.7938
  942TIP3   OH224240   2.375   2.047  12.839 -0.2196  0.1859 -0.0522
  942TIP3    H124241   2.461   2.016  12.813 -0.0457 -0.2514  1.0425
  942TIP3    H224242   2.314   1.978  12.812  0.1233 -0.9626  2.0271
  943TIP3   OH224243   2.526   4.393  15.132  0.1393 -0.2917 -0.1132
  943TIP3    H124244   2.541   4.444  15.052  0.4638  0.4103  0.3916
  943TIP3    H224245   2.608   4.345  15.145  0.0187 -0.5510 -0.3019
  944TIP3   OH224246   2.776   3.684  14.663  0.3470  0.2886 -0.1091
  944TIP3    H124247   2.689   3.723  14.673 -0.0340 -0.5173 -0.1815
  944TIP3    H224248   2.762   3.611  14.603  0.9724 -0.1704  0.2978
  945TIP3   OH224249   2.835   5.632  10.649 -0.1816 -0.3861 -0.3571
  945TIP3    H124250   2.900   5.582  10.599  0.6417  1.4098 -1.1498
  945TIP3    H224251   2.887   5.679  10.715 -0.9763 -0.8250  0.5875
  946TIP3   OH224252   5.850   0.006  17.122 -0.2766  0.6568 -0.2253
  946TIP3    H124253   5.915   0.072  17.097 -1.3424  1.4912 -0.8681
  946TIP3    H224254   5.839   0.018  17.216  1.4655 -0.3919  0.1216
  947TIP3   OH224255   4.798   5.670   1.690  0.5570 -0.4190  0.3628
  947TIP3    H124256   4.836   5.596   1.737  2.9187 -2.4933 -4.4407
  947TIP3    H224257   4.726   5.632   1.640  0.5921  0.8770 -0.7014
  948TIP3   OH224258   5.238   1.713   4.404 -0.3273 -0.2422  0.4671
  948TIP3    H124259   5.263   1.805   4.392  0.8195 -0.5647  0.3861
  948TIP3    H224260   5.281   1.687   4.485  1.0644 -1.3080 -0.5998
  949TIP3   OH224261   2.411   6.432   4.944  0.4193  0.2478  0.1882
  949TIP3    H124262   2.365   6.381   4.876  1.1115  1.7002 -1.4063
  949TIP3    H224263   2.354   6.506   4.962  1.5461  1.4039 -0.9150
  950TIP3   OH224264   5.586   3.515  16.747 -0.3110 -0.2113  0.1237
  950TIP3    H124265   5.645   3.474  16.811 -0.7489 -1.4052 -0.2326
  950TIP3    H224266   5.644   3.567  16.691  0.2197 -0.1427  0.7357
  951TIP3   OH224267   1.922   6.571   3.637  0.5033 -0.2328  0.1007
  951TIP3    H124268   1.979   6.516   3.584 -0.7548 -0.1130 -1.4464
  951TIP3    H224269   1.945   6.661   3.612  1.4072 -0.1033  1.3827
  952TIP3   OH224270   5.029   4.653  14.549  0.5297 -0.1053  0.0905
  952TIP3    H124271   4.941   4.663  14.513  1.2940 -0.4403 -1.9349
  952TIP3    H224272   5.016   4.610  14.634 -1.1578 -1.5657 -0.8913
  953TIP3   OH224273   4.969   1.385   3.843 -0.3387  0.4529 -0.3386
  953TIP3    H124274   4.904   1.358   3.779 -0.1108 -1.6858  0.2964
  953TIP3    H224275   5.053   1.382   3.796 -0.4174  0.9977 -0.5220
  954TIP3   OH224276   4.457   4.694   3.668 -0.4971 -0.3600 -0.0706
  954TIP3    H124277   4.367   4.663   3.664 -0.2669 -1.1517  0.5316
  954TIP3    H224278   4.464   4.761   3.600 -1.5171 -0.3438 -0.1568
  955TIP3   OH224279   1.423   6.670   4.613 -0.5951 -0.0220  0.2610
  955TIP3    H124280   1.492   6.613   4.577 -0.5968  0.3100 -0.2749
  955TIP3    H224281   1.354   6.668   4.546 -1.5873 -1.2435  1.2890
  956TIP3   OH224282   4.188   6.273   0.812 -0.6678  0.8942  0.1859
  956TIP3    H124283   4.217   6.311   0.895 -0.5996  1.0339  0.0987
  956TIP3    H224284   4.200   6.343   0.748  1.8414 -0.0551 -0.4463
  957TIP3   OH224285   6.034   1.874  13.029 -0.5287 -0.3476 -0.2255
  957TIP3    H124286   5.957   1.924  12.999 -0.3446 -1.3191 -2.4407
  957TIP3    H224287   6.018   1.859  13.122 -1.2173  2.6903  0.2026
  958TIP3   OH224288   6.454   3.489  14.222 -0.0822 -0.4512  0.2739
  958TIP3    H124289   6.521   3.552  14.195  0.3200 -1.3091 -0.7708
  958TIP3    H224290   6.372   3.535  14.208  0.1679 -0.5072 -1.4781
  959TIP3   OH224291   6.574   3.639   2.714 -0.0968 -0.3341 -0.1988
  959TIP3    H124292   6.530   3.701   2.772 -0.1772  0.1013 -0.7158
  959TIP3    H224293   6.661   3.675   2.701  0.1726 -0.8212  0.2502
  960TIP3   OH224294   2.703   3.769   0.665  0.0283 -0.1101  0.0747
  960TIP3    H124295   2.684   3.747   0.573  2.9079 -0.0214 -0.6010
  960TIP3    H224296   2.794   3.741   0.677  0.4718  2.1415  2.1962
  961TIP3   OH224297   1.031   6.270   4.224 -0.3505  0.5802  0.1722
  961TIP3    H124298   0.986   6.354   4.217  0.5838  1.0762  0.1332
  961TIP3    H224299   1.116   6.291   4.264  0.1430 -0.2537 -0.4307
  962TIP3   OH224300   5.888   1.711   4.945  0.2367  0.4111  0.5700
  962TIP3    H124301   5.945   1.637   4.921 -0.9361 -0.1402 -0.5776
  962TIP3    H224302   5.802   1.672   4.959 -0.3964  1.5513 -0.0261
  963TIP3   OH224303   0.514   0.013  16.466 -0.3553  0.2001 -0.3243
  963TIP3    H124304   0.572   0.032  16.539 -2.3637 -0.0129  1.3789
  963TIP3    H224305   0.436   0.066  16.483 -2.1103 -2.2241 -0.6225
  964TIP3   OH224306   0.785   3.067  15.268  0.2082  0.1486 -1.1297
  964TIP3    H124307   0.783   3.034  15.178  0.1590  0.8518 -1.3891
  964TIP3    H224308   0.743   2.998  15.320 -1.1577  0.4132 -1.8607
  965TIP3   OH224309   0.545   1.932  13.609  0.2187  0.1076  0.8415
  965TIP3    H124310   0.471   1.986  13.580 -0.2129 -0.3030  1.1806
  965TIP3    H224311   0.599   1.922  13.531 -0.7201 -0.6360  0.2830
  966TIP3   OH224312   2.965   2.164  15.310  0.1650 -0.3124  0.4677
  966TIP3    H124313   3.025   2.092  15.290 -0.2873 -0.4761 -0.3370
  966TIP3    H224314   3.004   2.240  15.267  0.1664 -0.2707  0.5432
  967TIP3   OH224315   1.794   6.309   1.545  0.0394 -0.0487  0.1856
  967TIP3    H124316   1.712   6.356   1.556  1.5439  2.5801  0.6995
  967TIP3    H224317   1.805   6.261   1.627 -1.8383 -1.8958 -0.6026
  968TIP3   OH224318   0.425   3.966   5.094  0.0511 -0.1415 -0.1030
  968TIP3    H124319   0.425   3.941   5.186  1.5237  1.5794  0.3895
  968TIP3    H224320   0.395   4.057   5.093  0.1277 -0.1125 -1.3231
  969TIP3   OH224321   6.154   0.821  15.478 -0.0870 -0.4625  0.2024
  969TIP3    H124322   6.064   0.852  15.483  0.0099  0.1402 -1.4415
  969TIP3    H224323   6.158   0.770  15.397  1.5506  1.2415 -0.8320
  970TIP3   OH224324   0.997   4.975   1.673  0.1445  0.3967 -0.6684
  970TIP3    H124325   1.058   4.959   1.601 -0.2185  2.0855 -1.3927
  970TIP3    H224326   1.030   5.055   1.715  0.3594 -0.5696  1.0704
  971TIP3   OH224327   6.126   4.868  13.072  0.5101 -0.2457 -0.4672
  971TIP3    H124328   6.130   4.851  12.978  0.2588 -1.4396 -0.2643
  971TIP3    H224329   6.202   4.823  13.109  0.8828  0.6244 -0.1530
  972TIP3   OH224330   2.603   2.507   2.274 -0.2676 -0.1186 -0.3064
  972TIP3    H124331   2.533   2.572   2.274 -1.0454 -0.9234  1.0494
  972TIP3    H224332   2.643   2.515   2.360 -0.0134 -1.0615 -0.3329
  973TIP3   OH224333   0.406   2.335   0.233 -0.8898 -0.1214 -0.4427
  973TIP3    H124334   0.385   2.413   0.181 -1.1687  0.0059 -0.1395
  973TIP3    H224335   0.360   2.348   0.316 -1.2754 -0.8036 -0.5428
  974TIP3   OH224336   5.073   2.544  15.551  0.3108 -0.3998  0.2101
  974TIP3    H124337   5.087   2.638  15.540  1.5931 -0.6013  0.0643
  974TIP3    H224338   5.066   2.510  15.461  2.2030 -0.7832  0.1937
  975TIP3   OH224339   2.949   5.663   0.229  0.0939  0.1755 -0.9943
  975TIP3    H124340   2.986   5.750   0.210  0.0131  0.8972  1.8914
  975TIP3    H224341   2.870   5.682   0.279  1.2702 -1.5645  1.6315
  976TIP3   OH224342   4.331   6.192   5.246  0.5161 -0.4734  0.6093
  976TIP3    H124343   4.422   6.176   5.268  0.8610 -0.7198 -0.9717
  976TIP3    H224344   4.329   6.283   5.217  0.0779 -0.1768  1.5422
  977TIP3   OH224345   1.979   6.371  16.072 -0.1183  0.2532 -0.7070
  977TIP3    H124346   1.962   6.458  16.036 -0.1269  1.3795  1.8750
  977TIP3    H224347   1.996   6.387  16.165 -1.4896 -2.6471  0.1126
  978TIP3   OH224348   5.698   3.507   5.078  0.6430  0.1412  0.3094
  978TIP3    H124349   5.675   3.598   5.096 -0.1028  0.3883 -1.7384
  978TIP3    H224350   5.724   3.471   5.163  2.3704  2.6501  0.8848
  979TIP3   OH224351   1.208   5.209   0.328 -0.7805 -0.1998 -0.6096
  979TIP3    H124352   1.128   5.201   0.276 -2.1443 -1.1986  1.5467
  979TIP3    H224353   1.179   5.249   0.410  1.3011  1.2656 -0.5455
  980TIP3   OH224354   6.535   0.401   4.199 -0.7557  0.1583  0.6836
  980TIP3    H124355   6.468   0.334   4.213 -0.1305 -0.7297 -0.4377
  980TIP3    H224356   6.601   0.382   4.265 -0.1648 -0.9051 -0.1930
  981TIP3   OH224357   3.174   6.619   1.938 -0.0443 -0.2264  0.0404
  981TIP3    H124358   3.117   6.629   2.014  0.6816  0.4484  0.5069
  981TIP3    H224359   3.215   6.705   1.928 -0.6151 -0.1243 -1.5019
  982TIP3   OH224360   4.707   3.141  14.165  0.0865 -0.4089  0.2041
  982TIP3    H124361   4.643   3.183  14.108 -0.7024 -0.5734  0.9671
  982TIP3    H224362   4.770   3.101  14.105  1.1839  2.3131 -0.5617
  983TIP3   OH224363   6.608   4.072   4.663  0.4930  0.3188 -0.1351
  983TIP3    H124364   6.594   4.136   4.733  2.5164  0.0315  0.5592
  983TIP3    H224365   6.521   4.033   4.649 -0.1733  1.1950  1.4121
  984TIP3   OH224366   1.139   2.879  11.425  0.5178 -0.1977 -0.3989
  984TIP3    H124367   1.048   2.851  11.422  0.1151  1.1127 -0.4291
  984TIP3    H224368   1.167   2.862  11.515 -0.2356  0.9276  0.0445
  985TIP3   OH224369   2.796   3.808   3.995 -0.6746  0.3418  0.2842
  985TIP3    H124370   2.878   3.761   4.006 -0.7250  0.4937  1.3051
  985TIP3    H224371   2.817   3.882   3.938 -0.4025 -0.3998 -0.5832
  986TIP3   OH224372   6.059   6.562  15.819 -0.0097  0.2006 -0.1898
  986TIP3    H124373   6.084   6.653  15.801 -0.1909  0.2843 -0.0254
  986TIP3    H224374   6.012   6.534  15.741  2.7711 -0.7809 -1.5539
  987TIP3   OH224375   5.598   0.920  11.574 -0.3077 -1.3130  0.2846
  987TIP3    H124376   5.559   0.974  11.643  1.1870  0.5194 -0.2499
  987TIP3    H224377   5.599   0.977  11.497  1.8799 -1.8915 -0.1338
  988TIP3   OH224378   6.168   3.376  16.542 -1.4404 -0.2066  0.2715
  988TIP3    H124379   6.222   3.427  16.602 -1.7110  1.5635 -0.9502
  988TIP3    H224380   6.112   3.323  16.599 -0.5740  0.2221  1.5514
  989TIP3   OH224381   1.800   1.267  11.566 -0.0976  0.2628 -0.0057
  989TIP3    H124382   1.788   1.176  11.590  0.5488  0.1613 -0.0740
  989TIP3    H224383   1.733   1.314  11.615 -0.7499 -0.3073 -0.3504
  990TIP3   OH224384   2.768   5.079  14.741 -0.0095 -0.6807 -0.1041
  990TIP3    H124385   2.720   5.121  14.813  1.1362  0.6641 -0.0938
  990TIP3    H224386   2.810   5.003  14.781 -0.6565 -0.8331  0.2914
  991TIP3   OH224387   1.337   5.228  13.048 -0.3605  0.9434  0.4769
  991TIP3    H124388   1.379   5.280  12.980  0.2511  1.2007  1.0539
  991TIP3    H224389   1.336   5.284  13.125 -0.7553  0.5332  0.7786
  992TIP3   OH224390   4.590   5.754  16.491  0.3512 -0.4407  0.3301
  992TIP3    H124391   4.651   5.744  16.564 -0.2265 -0.1279  0.8654
  992TIP3    H224392   4.506   5.722  16.526 -0.1580  0.6511  0.1479
  993TIP3   OH224393   0.702   3.656   0.285  0.8992 -0.1477  0.2845
  993TIP3    H124394   0.655   3.737   0.305  1.3985  0.2751 -0.2528
  993TIP3    H224395   0.723   3.662   0.192  0.9182 -0.9088  0.2329
  994TIP3   OH224396   5.691   0.499  14.324 -0.2023  0.1832  0.3342
  994TIP3    H124397   5.740   0.490  14.242 -1.0442  2.5021 -0.4683
  994TIP3    H224398   5.605   0.460  14.306 -0.1929  0.1685  0.3189
  995TIP3   OH224399   1.136   1.367   3.315 -0.9131 -0.0782 -0.1871
  995TIP3    H124400   1.197   1.317   3.369  1.6806  0.4165 -2.5578
  995TIP3    H224401   1.071   1.401   3.377 -0.4991 -3.0836  1.9930
  996TIP3   OH224402   0.851   6.691  10.966  0.1581 -0.1612  0.5185
  996TIP3    H124403   0.797   6.769  10.976 -0.5827 -0.4699 -0.9205
  996TIP3    H224404   0.789   6.618  10.974  0.3833 -0.5218 -1.0046
  997TIP3   OH224405   4.459   1.489   4.297  0.1512  0.3443  0.8031
  997TIP3    H124406   4.456   1.476   4.392  1.3702 -1.8576  0.5641
  997TIP3    H224407   4.544   1.530   4.282  1.2121 -2.0047  0.3647
  998TIP3   OH224408   5.158   2.367  14.024 -0.0517 -0.2614 -0.3603
  998TIP3    H124409   5.062   2.362  14.016 -0.1040 -2.3616  1.1285
  998TIP3    H224410   5.173   2.403  14.111  0.4910 -1.2695 -0.0263
  999TIP3   OH224411   5.503   1.126   5.589  1.2654 -0.4012 -0.1574
  999TIP3    H124412   5.598   1.120   5.581  1.4223  1.6146  0.0494
  999TIP3    H224413   5.487   1.144   5.682  0.8951  2.4263 -0.7121
 1000TIP3   OH224414   2.640   4.866   4.874  0.1955  0.3283  0.1783
 1000TIP3    H124415   2.710   4.808   4.903  0.2612 -0.6097 -1.7567
 1000TIP3    H224416   2.684   4.950   4.858  0.8715 -0.2147 -0.8899
 1001TIP3   OH224417   1.178   2.811   1.154 -0.9934  0.1658  0.1064
 1001TIP3    H124418   1.193   2.783   1.245 -3.3413 -0.2109  0.3966
 1001TIP3    H224419   1.219   2.898   1.149  2.6566 -1.4664  0.3654
 1002TIP3   OH224420   3.281   1.358   1.213 -0.0021 -0.1855  0.5466
 1002TIP3    H124421   3.234   1.442   1.215  1.5492  0.6920  0.6169
 1002TIP3    H224422   3.311   1.344   1.303 -4.1385 -3.1090  1.6333
 1003TIP3   OH224423   6.604   5.357  14.222 -0.0179 -0.2737  0.1532
 1003TIP3    H124424   6.679   5.311  14.259  0.8243  1.2644  0.4317
 1003TIP3    H224425   6.528   5.304  14.246  1.0813 -2.4016 -1.0455
 1004TIP3   OH224426   1.423   2.941   0.499 -1.0812  0.1082 -0.2190
 1004TIP3    H124427   1.466   3.013   0.544  0.7688  0.6338 -2.7169
 1004TIP3    H224428   1.330   2.960   0.506 -0.6740  1.9892  0.3528
 1005TIP3   OH224429   4.324   5.528   3.527 -0.4585  0.8281 -0.4786
 1005TIP3    H124430   4.308   5.434   3.522 -2.0564  1.1451 -1.8652
 1005TIP3    H224431   4.356   5.551   3.439  0.7350  1.4464  0.1102
 1006TIP3   OH224432   5.376   0.996   5.993 -0.4516  0.5083 -0.3103
 1006TIP3    H124433   5.315   0.967   6.060  1.3963  0.8156  1.5537
 1006TIP3    H224434   5.441   0.925   5.987  0.2147  1.1408 -0.7132
 1007TIP3   OH224435   1.625   4.645   0.980 -0.5236  0.4165  0.2254
 1007TIP3    H124436   1.574   4.602   1.048  0.2180 -0.8967 -0.0224
 1007TIP3    H224437   1.620   4.739   1.000 -1.0632  0.1053  1.5430
 1008TIP3   OH224438   1.794   3.718  11.492 -0.0966 -0.3302  0.0765
 1008TIP3    H124439   1.730   3.789  11.479 -0.1371 -0.3333  0.2475
 1008TIP3    H224440   1.828   3.700  11.405 -0.9143 -0.8753 -0.1351
 1009TIP3   OH224441   1.428   6.294  10.870 -0.4611  0.2173  0.1986
 1009TIP3    H124442   1.407   6.305  10.777 -0.4070  0.8261  0.2571
 1009TIP3    H224443   1.479   6.213  10.873 -0.0432  0.4514 -0.3703
 1010TIP3   OH224444   1.010   2.376  12.842  0.6851  0.0970  0.4056
 1010TIP3    H124445   0.999   2.363  12.748  2.6054 -0.4328  0.2178
 1010TIP3    H224446   0.977   2.465  12.858 -1.7205 -0.6364 -0.3502
 1011TIP3   OH224447   1.855   2.326  11.343  0.4680 -0.0810  0.0956
 1011TIP3    H124448   1.838   2.343  11.435  3.3036 -0.4977  0.7365
 1011TIP3    H224449   1.885   2.410  11.308 -0.7708  0.1233 -0.5165
 1012TIP3   OH224450   5.934   3.273   5.260 -0.1127  0.6065  0.4035
 1012TIP3    H124451   5.882   3.242   5.334 -1.5831  0.5360 -0.6498
 1012TIP3    H224452   5.915   3.366   5.254  0.5718  0.7589  0.5654
 1013TIP3   OH224453   2.404   3.201  16.484 -0.2056 -0.4024  0.0984
 1013TIP3    H124454   2.483   3.149  16.470  0.0396 -0.3279  1.1779
 1013TIP3    H224455   2.411   3.272  16.421  1.3083  0.4215  1.1709
 1014TIP3   OH224456   0.529   6.741  11.570 -0.5149  0.2250  0.2161
 1014TIP3    H124457   0.587   6.756  11.496 -0.8854 -0.6559 -0.2612
 1014TIP3    H224458   0.533   6.647  11.585 -2.0427  0.1049 -0.0217
 1015TIP3   OH224459   2.939   0.505  16.160 -0.1064  0.0546 -0.1972
 1015TIP3    H124460   2.847   0.529  16.160 -0.5015 -1.1632 -3.8805
 1015TIP3    H224461   2.942   0.418  16.200 -0.6611 -0.1833 -0.6709
 1016TIP3   OH224462   0.506   5.671   0.997 -0.0767  0.3484 -0.5024
 1016TIP3    H124463   0.521   5.584   1.033 -0.8436  0.3255 -0.2305
 1016TIP3    H224464   0.545   5.668   0.910  0.0370 -0.2215 -0.4331
 1017TIP3   OH224465   4.608   2.766   5.065  0.0844 -0.3306 -0.1642
 1017TIP3    H124466   4.560   2.782   5.146  0.2940 -0.6816  0.0334
 1017TIP3    H224467   4.645   2.679   5.076 -1.1184 -1.0052 -1.2582
 1018TIP3   OH224468   2.524   2.191   1.313 -0.2099  0.4223  0.0724
 1018TIP3    H124469   2.601   2.162   1.265  0.5785  0.1115  1.4808
 1018TIP3    H224470   2.557   2.254   1.377 -1.1954  0.7025  0.3178
 1019TIP3   OH224471   2.172   1.427  15.838 -0.5066  0.3558 -0.2604
 1019TIP3    H124472   2.250   1.373  15.855  2.0344  3.0342 -2.8041
 1019TIP3    H224473   2.159   1.421  15.743 -0.7468  3.3781 -0.4706
 1020TIP3   OH224474   2.188   6.466   4.289  0.3063  0.1083  0.5983
 1020TIP3    H124475   2.170   6.397   4.354 -0.3258 -1.3894 -1.1122
 1020TIP3    H224476   2.217   6.541   4.341  0.6877 -1.3375  2.5401
 1021TIP3   OH224477   2.803   3.894  14.855 -0.5068  0.1497 -0.3371
 1021TIP3    H124478   2.897   3.875  14.858 -0.1766  1.7960 -0.0661
 1021TIP3    H224479   2.764   3.814  14.820  1.1140 -0.1335 -1.5473
 1022TIP3   OH224480   6.552   0.293  13.616  0.1608  0.2101  0.5733
 1022TIP3    H124481   6.554   0.383  13.650 -1.4179  0.1137  0.9596
 1022TIP3    H224482   6.643   0.274  13.595  0.8532  1.1176  2.5857
 1023TIP3   OH224483   3.349   3.956   3.998  0.0079  0.0434  0.1555
 1023TIP3    H124484   3.376   3.866   3.980 -2.1664 -0.5511 -0.3617
 1023TIP3    H224485   3.362   4.002   3.915  2.1926  0.5220  0.7273
 1024TIP3   OH224486   5.719   3.768  13.304 -0.0901  0.3760  0.0880
 1024TIP3    H124487   5.725   3.858  13.338 -1.8586  0.2835  0.6973
 1024TIP3    H224488   5.810   3.743  13.287  0.3248  2.8625 -1.6519
 1025TIP3   OH224489   4.704   5.952   5.261  0.3210 -0.7471  0.2986
 1025TIP3    H124490   4.666   6.006   5.331  1.7345  0.7940 -0.0939
 1025TIP3    H224491   4.767   5.896   5.306 -0.8643 -1.8315  0.6500
 1026TIP3   OH224492   3.899   1.352   5.020  0.1818  0.6615  0.0125
 1026TIP3    H124493   3.841   1.300   5.076  0.8936  0.0838  0.2227
 1026TIP3    H224494   3.841   1.413   4.974 -0.5740  0.1378  0.2752
 1027TIP3   OH224495   6.381   0.174   0.348  0.4705 -0.2793  0.1426
 1027TIP3    H124496   6.391   0.114   0.275  0.4361  1.8755 -1.6747
 1027TIP3    H224497   6.295   0.215   0.334  1.1873  1.3805  0.4101
 1028TIP3   OH224498   0.170   3.064  14.552 -0.4898 -0.0551 -0.2465
 1028TIP3    H124499   0.139   2.974  14.547  0.4682 -0.3823 -0.3572
 1028TIP3    H224500   0.158   3.089  14.643 -0.1612 -0.5146 -0.0767
 1029TIP3   OH224501   5.511   2.433   1.768 -0.3393 -0.3964  0.2836
 1029TIP3    H124502   5.461   2.371   1.821 -1.6776  0.6906  0.3127
 1029TIP3    H224503   5.469   2.518   1.783  1.7510  0.6069  0.5864
 1030TIP3   OH224504   3.204   1.712   2.346  0.4327  0.0054  0.3207
 1030TIP3    H124505   3.296   1.696   2.368  0.3819  1.4451  1.7110
 1030TIP3    H224506   3.157   1.699   2.429 -0.8312 -2.2509 -0.7175
 1031TIP3   OH224507   3.255   2.628  14.851  0.2273 -0.0447  0.1391
 1031TIP3    H124508   3.255   2.548  14.904 -0.8290 -0.2502 -0.1666
 1031TIP3    H224509   3.258   2.597  14.761 -0.6124  0.2485  0.0078
 1032TIP3   OH224510   0.919   5.629   0.497 -0.2290 -0.1541 -0.3531
 1032TIP3    H124511   0.916   5.685   0.574  0.1556 -1.4606  0.6378
 1032TIP3    H224512   0.969   5.679   0.432 -1.1447  1.2255 -0.0005
 1033TIP3   OH224513   1.067   3.688  16.065 -0.0108 -0.1319  0.1897
 1033TIP3    H124514   0.997   3.684  16.131 -2.4274 -0.8986 -2.3360
 1033TIP3    H224515   1.044   3.764  16.011  0.3126 -1.2275 -1.5077
 1034TIP3   OH224516   0.786   5.387   0.582 -0.0273 -0.2238 -0.7459
 1034TIP3    H124517   0.831   5.470   0.564  0.0734 -0.1009  0.0762
 1034TIP3    H224518   0.849   5.320   0.555  1.1349 -0.0691  1.5243
 1035TIP3   OH224519   5.494   5.583  13.476 -0.7403 -0.6036 -0.2301
 1035TIP3    H124520   5.540   5.504  13.505 -1.1433 -1.0204 -0.7073
 1035TIP3    H224521   5.419   5.590  13.534 -1.8431 -1.7412 -1.4938
 1036TIP3   OH224522   3.456   4.570   0.202  0.1716 -0.0295 -0.4828
 1036TIP3    H124523   3.428   4.650   0.158 -2.3033 -0.5523  0.0874
 1036TIP3    H224524   3.400   4.502   0.166  1.1016 -1.2240  0.2976
 1037TIP3   OH224525   4.964   4.370   5.016 -0.3882 -0.1563  0.4424
 1037TIP3    H124526   4.898   4.321   5.065 -1.5441  0.4422 -0.4827
 1037TIP3    H224527   4.919   4.450   4.988  1.0410  0.7772  0.7032
 1038TIP3   OH224528   4.275   1.849  16.011  0.1310 -0.0356  0.1266
 1038TIP3    H124529   4.206   1.898  16.056 -0.0789  0.5331 -0.8194
 1038TIP3    H224530   4.356   1.895  16.032  0.1514 -0.3336  0.7148
 1039TIP3   OH224531   4.963   4.361   4.720 -0.2060  0.3530 -0.6394
 1039TIP3    H124532   4.944   4.380   4.812  0.7409 -0.8628 -0.1843
 1039TIP3    H224533   4.929   4.273   4.705 -0.5913  0.6416 -1.5330
 1040TIP3   OH224534   0.317   6.614  17.151 -0.1967  0.0276  0.1174
 1040TIP3    H124535   0.234   6.573  17.172 -0.4602 -0.2011 -1.2683
 1040TIP3    H224536   0.377   6.540  17.139  0.3790  0.2114  1.7447
 1041TIP3   OH224537   6.183   1.631  13.079 -0.6992  0.1443  0.2275
 1041TIP3    H124538   6.253   1.590  13.028 -1.2005  0.1253 -0.4547
 1041TIP3    H224539   6.160   1.710  13.030 -0.2199  0.8814  1.1715
 1042TIP3   OH224540   1.341   0.790   4.505 -0.6834  0.1043 -0.0357
 1042TIP3    H124541   1.310   0.777   4.415 -1.2920  0.4765  0.1150
 1042TIP3    H224542   1.260   0.804   4.556 -0.3767 -0.4882  0.6325
 1043TIP3   OH224543   4.344   0.705  12.093 -0.0498  0.4258  0.0046
 1043TIP3    H124544   4.384   0.627  12.130  0.2484  0.4790 -0.2005
 1043TIP3    H224545   4.254   0.679  12.072  0.0838  0.1052 -0.1695
 1044TIP3   OH224546   0.024   4.937   6.413  0.1667 -0.1742  0.2141
 1044TIP3    H124547   0.051   4.968   6.327 -1.1256 -0.9841 -0.4908
 1044TIP3    H224548  -0.055   4.886   6.397 -0.8580  0.7816  2.0376
 1045TIP3   OH224549   3.548   2.047  15.238 -0.7227 -0.0192 -0.2569
 1045TIP3    H124550   3.530   1.953  15.246 -0.9555  0.0142 -0.4014
 1045TIP3    H224551   3.462   2.088  15.235 -0.6162  0.2763  0.7213
 1046TIP3   OH224552   5.762   2.524  12.882 -0.0293  0.7942  0.2542
 1046TIP3    H124553   5.828   2.583  12.919  0.1439  1.0336 -0.4242
 1046TIP3    H224554   5.734   2.567  12.801 -0.7973  0.5424  0.3793
 1047TIP3   OH224555   0.851   3.853  12.803  0.0515 -0.2698 -0.4055
 1047TIP3    H124556   0.910   3.788  12.843  1.5579 -0.9439 -3.5405
 1047TIP3    H224557   0.909   3.926  12.781 -0.6804 -0.0333 -1.5527
 1048TIP3   OH224558   1.081   6.462  13.202  0.6247 -0.3344 -0.5688
 1048TIP3    H124559   0.995   6.467  13.162 -0.9594 -0.2112  2.7168
 1048TIP3    H224560   1.141   6.491  13.133 -2.2960  3.4567 -1.7071
 1049TIP3   OH224561   5.197   6.316  16.633 -0.3589 -0.0713  0.4290
 1049TIP3    H124562   5.161   6.391  16.681 -0.0658 -0.1754  0.8130
 1049TIP3    H224563   5.258   6.276  16.695  0.7054  0.3250 -0.3500
 1050TIP3   OH224564   2.850   4.030   3.848 -0.1413  0.2772  0.5814
 1050TIP3    H124565   2.806   4.115   3.846 -1.7657 -0.4750  2.7099
 1050TIP3    H224566   2.921   4.038   3.785 -1.4742  2.5582 -0.6624
 1051TIP3   OH224567   0.875   2.424   2.118  0.3102 -0.1614 -0.8195
 1051TIP3    H124568   0.905   2.515   2.111 -0.8572  0.1781 -1.6240
 1051TIP3    H224569   0.860   2.412   2.212 -0.5234  0.8129 -0.8160
 1052TIP3   OH224570   4.645   2.464   1.915  0.3804 -0.2988 -0.3267
 1052TIP3    H124571   4.691   2.436   1.993  0.1707 -3.1691 -1.1476
 1052TIP3    H224572   4.708   2.517   1.867  0.7012  0.9890  1.4825
 1053TIP3   OH224573   2.018   1.293   4.958  0.1488  0.3517  0.8711
 1053TIP3    H124574   2.084   1.267   5.023 -0.4002 -2.2114  0.4501
 1053TIP3    H224575   1.935   1.282   5.004 -0.1865 -0.5613  0.0630
 1054TIP3   OH224576   6.538   1.176  13.834  0.0695 -0.3768  0.4831
 1054TIP3    H124577   6.489   1.179  13.917  3.2352  1.9726  2.3738
 1054TIP3    H224578   6.504   1.250  13.784 -1.7289 -1.6960 -0.2960
 1055TIP3   OH224579   3.846   2.341   3.377 -0.0191  0.3659 -0.0215
 1055TIP3    H124580   3.841   2.286   3.456 -0.0650 -1.1403 -1.0470
 1055TIP3    H224581   3.894   2.419   3.405 -1.2942  0.5169  1.8718
 1056TIP3   OH224582   3.210   0.511  16.272 -0.3636  0.8713  0.4121
 1056TIP3    H124583   3.239   0.601  16.284 -1.2560  1.3759 -1.0365
 1056TIP3    H224584   3.116   0.518  16.253 -0.4196 -0.3565  0.1463
 1057TIP3   OH224585   2.131   6.516   6.354 -0.0802  0.1732 -0.8778
 1057TIP3    H124586   2.087   6.457   6.416  0.4209  0.9868  0.2613
 1057TIP3    H224587   2.107   6.604   6.384  1.0372  0.5944 -1.1924
 1058TIP3   OH224588   1.459   0.214  15.474 -0.4777 -0.4429 -0.1009
 1058TIP3    H124589   1.413   0.201  15.391 -0.8453  1.7016 -0.2719
 1058TIP3    H224590   1.432   0.301  15.503  1.1348 -0.3856  1.3210
 1059TIP3   OH224591   4.105   5.711   6.130  0.5622  0.1283 -0.3082
 1059TIP3    H124592   4.184   5.704   6.184  1.7037  0.8593 -1.8398
 1059TIP3    H224593   4.093   5.623   6.093  0.1822 -0.1894  0.5474
 1060TIP3   OH224594   4.666   6.537  13.287  0.3035 -0.8103 -0.4143
 1060TIP3    H124595   4.696   6.598  13.355 -0.7327 -1.8644  1.0219
 1060TIP3    H224596   4.745   6.489  13.261  0.1383 -2.8356  2.5727
 1061TIP3   OH224597   6.752   1.475  12.544 -0.1903 -0.6720  0.6476
 1061TIP3    H124598   6.789   1.471  12.632 -0.3579  0.2723  0.7569
 1061TIP3    H224599   6.815   1.527  12.494 -2.1930  2.3826  1.2317
 1062TIP3   OH224600   2.815   2.135   5.775  0.1683  0.1400  0.0341
 1062TIP3    H124601   2.745   2.196   5.752  0.0993  0.3562  0.8028
 1062TIP3    H224602   2.857   2.175   5.851  1.2162  0.0780 -0.4912
 1063TIP3   OH224603   3.134   0.703  12.749  0.2860 -0.4867 -0.6455
 1063TIP3    H124604   3.125   0.789  12.709  1.7693 -0.2808 -0.5629
 1063TIP3    H224605   3.107   0.717  12.840  1.9168  0.2592 -0.2441
 1064TIP3   OH224606   6.615   6.323  15.233  0.4098  0.0045 -0.2183
 1064TIP3    H124607   6.610   6.294  15.324 -0.0174 -1.9861 -0.8614
 1064TIP3    H224608   6.693   6.379  15.230 -0.0691  0.8272  1.5445
 1065TIP3   OH224609   3.877   0.005  14.352 -0.9425 -0.3508 -0.3318
 1065TIP3    H124610   3.901   0.098  14.353 -1.1640 -0.2701 -1.7195
 1065TIP3    H224611   3.819  -0.004  14.277 -0.7440 -1.6599 -0.3387
 1066TIP3   OH224612   5.484   2.601   5.779  0.3607  0.0065 -0.5229
 1066TIP3    H124613   5.401   2.556   5.788  0.7403 -0.5080  0.4932
 1066TIP3    H224614   5.536   2.570   5.853  0.2191  3.0054  0.8820
 1067TIP3   OH224615   3.505   0.116  15.589 -0.0662 -0.2168 -0.0596
 1067TIP3    H124616   3.519   0.188  15.528 -1.7012  0.9648  0.9103
 1067TIP3    H224617   3.531   0.151  15.674 -1.6046 -0.4896  0.5467
 1068TIP3   OH224618   0.255   6.300   2.426 -0.5913  0.3602  0.0916
 1068TIP3    H124619   0.223   6.352   2.500  0.2430  3.3330 -1.5348
 1068TIP3    H224620   0.321   6.356   2.385  0.0978 -1.8926 -1.9601
 1069TIP3   OH224621   3.668   0.090   4.467  0.1787 -0.0392  0.0601
 1069TIP3    H124622   3.707   0.026   4.526  1.4588  0.3615 -0.3319
 1069TIP3    H224623   3.669   0.048   4.381 -1.0929 -0.3703  0.1890
 1070TIP3   OH224624   4.106   2.512  16.549 -0.1677 -0.9986  0.1656
 1070TIP3    H124625   4.018   2.542  16.567  0.0855 -0.7317  0.9526
 1070TIP3    H224626   4.146   2.582  16.497 -0.5700 -1.3334 -0.6044
 1071TIP3   OH224627   4.191   6.632   0.425  0.2313 -0.3200  0.2507
 1071TIP3    H124628   4.158   6.666   0.508  1.0369 -1.2594  0.9748
 1071TIP3    H224629   4.180   6.537   0.432  0.5463 -0.4301 -0.6197
 1072TIP3   OH224630   1.455   1.391   4.018  0.0273  0.2098 -0.0552
 1072TIP3    H124631   1.505   1.334   3.960 -0.0356  1.5378 -1.4292
 1072TIP3    H224632   1.461   1.478   3.979 -0.3453  1.0675  1.7183
 1073TIP3   OH224633   2.973   1.790  12.262 -0.6679 -0.1723 -0.3418
 1073TIP3    H124634   2.972   1.737  12.342  1.4203 -2.6064 -1.8417
 1073TIP3    H224635   2.880   1.809  12.245 -1.3881 -2.4417  0.8596
 1074TIP3   OH224636   0.926   5.295   1.614  0.6125  0.2563 -0.6146
 1074TIP3    H124637   0.914   5.389   1.602 -0.3464  0.2093 -0.0668
 1074TIP3    H224638   1.020   5.284   1.622  0.6726  1.2947  0.2536
 1075TIP3   OH224639   3.182   2.511  14.613 -0.3001 -0.1156 -0.2872
 1075TIP3    H124640   3.100   2.549  14.579  0.6472  0.9631 -1.4192
 1075TIP3    H224641   3.197   2.435  14.557  0.4588  0.7883 -1.3411
 1076TIP3   OH224642   4.111   3.251   4.049  0.0455 -0.3244 -0.1083
 1076TIP3    H124643   4.135   3.186   3.983 -0.5340  0.1662 -0.8019
 1076TIP3    H224644   4.024   3.280   4.024  0.3855  0.8802  0.0810
 1077TIP3   OH224645   5.363   4.156   5.438  0.5750  0.4646 -0.2361
 1077TIP3    H124646   5.382   4.248   5.456 -0.6912  1.2270 -2.6823
 1077TIP3    H224647   5.268   4.148   5.448  0.6848 -0.6070  0.0648
 1078TIP3   OH224648   3.537   0.047   0.289  0.1059  0.1283  0.0862
 1078TIP3    H124649   3.608   0.067   0.350  0.1902  1.2059 -0.3623
 1078TIP3    H224650   3.571  -0.025   0.236  0.2869 -0.3640  0.8640
 1079TIP3   OH224651   1.446   0.976   5.461  0.5285  0.4844 -0.4601
 1079TIP3    H124652   1.539   0.992   5.444  0.1847  2.2782 -0.7983
 1079TIP3    H224653   1.426   0.894   5.416  1.4247  1.2696 -2.3146
 1080TIP3   OH224654   4.293   1.329   4.641 -0.5200 -0.7086 -0.1998
 1080TIP3    H124655   4.300   1.274   4.720 -0.6876 -1.3408 -0.6266
 1080TIP3    H224656   4.382   1.364   4.630  0.1361 -2.5823 -1.1412
 1081TIP3   OH224657   4.546   3.990  15.748  0.4267 -0.1999 -0.1124
 1081TIP3    H124658   4.553   4.085  15.734  1.2733 -0.1898  0.3774
 1081TIP3    H224659   4.601   3.952  15.680  0.6882 -0.3176  0.1673
 1082TIP3   OH224660   2.785   4.266  13.586  0.3235  0.0017  0.4307
 1082TIP3    H124661   2.870   4.238  13.620  0.1751  0.8506  1.5337
 1082TIP3    H224662   2.791   4.361  13.582  0.0165 -0.0324 -1.1119
 1083TIP3   OH224663   0.839   6.407   3.232  0.6794  0.8344  0.0921
 1083TIP3    H124664   0.830   6.475   3.165  0.1622  0.3434 -0.3430
 1083TIP3    H224665   0.856   6.327   3.183  1.2540  0.6438  0.6031
 1084TIP3   OH224666   0.185   5.706  15.822 -0.4622  0.4170 -0.1788
 1084TIP3    H124667   0.201   5.761  15.899  0.6248  0.1659 -0.2262
 1084TIP3    H224668   0.121   5.756  15.771 -1.1230  0.6350  0.8333
 1085TIP3   OH224669   4.704   1.262   3.838  0.1064  0.0807 -0.0604
 1085TIP3    H124670   4.729   1.343   3.794  3.4053 -0.6036  0.3887
 1085TIP3    H224671   4.692   1.288   3.929 -2.5770  0.7151 -0.5543
 1086TIP3   OH224672   2.441   4.750  12.534 -0.1097 -0.0040  0.0108
 1086TIP3    H124673   2.462   4.841  12.555 -0.3663  0.1542 -0.4129
 1086TIP3    H224674   2.373   4.756  12.467  2.1954 -0.4703 -2.4734
 1087TIP3   OH224675   4.434   2.473   1.212 -0.0455  0.5564 -0.2183
 1087TIP3    H124676   4.464   2.383   1.220  0.4456  0.6803 -0.6477
 1087TIP3    H224677   4.356   2.477   1.267  1.1167  0.4265  1.4610
 1088TIP3   OH224678   5.368   0.163  13.119  0.3567  0.0217 -0.0015
 1088TIP3    H124679   5.298   0.158  13.184 -0.2707 -0.4941 -0.7105
 1088TIP3    H224680   5.332   0.218  13.050  0.2539 -1.1273 -0.8687
 1089TIP3   OH224681   3.727   4.190  16.851 -0.1422 -0.4174 -0.6357
 1089TIP3    H124682   3.720   4.094  16.854 -0.8019 -0.3471  0.1047
 1089TIP3    H224683   3.663   4.216  16.785  2.0797 -0.6790 -2.9885
 1090TIP3   OH224684   5.164   0.869   4.122  0.3018  0.3453  0.0089
 1090TIP3    H124685   5.168   0.949   4.174 -1.0384 -0.1883  0.9731
 1090TIP3    H224686   5.070   0.848   4.118  0.8130 -2.4463  1.7598
 1091TIP3   OH224687   6.177   3.286  14.816 -0.4804 -0.5210 -0.1893
 1091TIP3    H124688   6.097   3.268  14.766  0.9918 -0.2407 -2.6714
 1091TIP3    H224689   6.182   3.213  14.879 -1.0286 -2.2263 -2.0719
 1092TIP3   OH224690   5.827   6.350  12.027 -0.2360  0.0219 -0.0016
 1092TIP3    H124691   5.769   6.368  11.953  1.6715 -0.6001 -1.7196
 1092TIP3    H224692   5.840   6.435  12.069 -1.5495  0.3428 -0.2317
 1093TIP3   OH224693   6.705   4.226   3.317  0.6868  0.4723 -0.2903
 1093TIP3    H124694   6.724   4.279   3.239  0.6191  1.0925  0.1105
 1093TIP3    H224695   6.790   4.192   3.344  0.8542  1.0932 -0.0377
 1094TIP3   OH224696   1.064   6.038   1.647 -0.1101  0.1955 -0.3078
 1094TIP3    H124697   1.088   5.954   1.686 -0.3449  0.4903  0.4758
 1094TIP3    H224698   1.071   6.101   1.719  1.7045  1.1520 -1.2904
 1095TIP3   OH224699   0.825   6.493  11.525 -0.1694  0.2680 -0.4088
 1095TIP3    H124700   0.883   6.420  11.503  0.0550 -0.0276  1.1572
 1095TIP3    H224701   0.801   6.530  11.440 -2.4875 -3.3249 -1.4127
 1096TIP3   OH224702   5.160   2.535  14.248  0.0208  1.0491 -0.6692
 1096TIP3    H124703   5.086   2.593  14.228 -1.7485 -1.0033 -0.2263
 1096TIP3    H224704   5.155   2.521  14.342 -0.5856 -1.1128 -0.9919
 1097TIP3   OH224705   4.334   0.119   0.673 -0.0813  0.2977  0.0606
 1097TIP3    H124706   4.243   0.104   0.647  0.1799 -1.3541  0.0019
 1097TIP3    H224707   4.330   0.138   0.767 -0.3651 -1.6128  0.4729
 1098TIP3   OH224708   1.980   3.529  13.079  0.1391 -0.3270  0.4429
 1098TIP3    H124709   1.900   3.516  13.130 -0.1072  1.7608  0.6215
 1098TIP3    H224710   1.967   3.613  13.035  0.6050 -1.7982 -2.6246
 1099TIP3   OH224711   3.201   4.659  15.192 -0.4351 -0.6210  0.3031
 1099TIP3    H124712   3.274   4.649  15.254  0.2530  0.2170 -0.3535
 1099TIP3    H224713   3.203   4.578  15.141 -1.3130 -1.5349  1.6726
 1100TIP3   OH224714   5.561   0.720   0.881 -0.4846  0.1486 -0.0704
 1100TIP3    H124715   5.573   0.809   0.915  0.7205  0.6941 -1.8731
 1100TIP3    H224716   5.556   0.666   0.960  0.8676  1.5582  1.0350
 1101TIP3   OH224717   3.542   4.429  14.304 -0.4102 -0.1924 -0.2529
 1101TIP3    H124718   3.484   4.493  14.262 -0.0750 -0.5761 -1.3393
 1101TIP3    H224719   3.556   4.464  14.392  0.2734  1.5919 -1.0266
 1102TIP3   OH224720   5.377   2.735  12.981 -0.4454  0.0681  0.2387
 1102TIP3    H124721   5.447   2.795  12.953  0.9736 -1.4243  0.5340
 1102TIP3    H224722   5.318   2.731  12.906  1.8674 -1.7326 -1.5413
 1103TIP3   OH224723   5.165   5.940   1.534  0.1492  0.2753 -0.6571
 1103TIP3    H124724   5.241   5.926   1.589  0.0537  1.2843 -0.2659
 1103TIP3    H224725   5.139   6.031   1.551 -0.5695  0.2317 -1.4886
 1104TIP3   OH224726   3.099   3.921   6.909 -0.6331  0.3769 -0.0413
 1104TIP3    H124727   3.039   3.995   6.896 -0.8919 -0.0273 -1.1543
 1104TIP3    H224728   3.180   3.949   6.866 -0.7963 -0.0712 -0.6420
 1105TIP3   OH224729   3.443   4.415   5.070 -0.5461  0.2857  0.3100
 1105TIP3    H124730   3.349   4.425   5.056 -0.5631 -0.3315 -0.0362
 1105TIP3    H224731   3.450   4.353   5.143 -0.4109  0.8157  0.7539
 1106TIP3   OH224732   4.745   5.463   4.091  0.0788 -0.0127 -0.0595
 1106TIP3    H124733   4.748   5.536   4.152 -0.2100  0.3048 -0.4239
 1106TIP3    H224734   4.737   5.385   4.146 -0.1035  0.2668  0.3086
 1107TIP3   OH224735   0.116   1.939  14.395  0.1537 -0.1709  0.1493
 1107TIP3    H124736   0.121   1.894  14.479  0.3591 -0.8392 -0.2068
 1107TIP3    H224737   0.156   2.025  14.410 -2.5526  0.8916  1.4668
 1108TIP3   OH224738   5.934   4.926   2.195  0.0802 -0.5511  0.2357
 1108TIP3    H124739   6.029   4.927   2.207  0.3184  2.1488 -1.3598
 1108TIP3    H224740   5.899   4.972   2.271  0.2322  0.4239 -0.2769
 1109TIP3   OH224741   4.391   0.077   0.401 -0.3168 -0.7327  0.0217
 1109TIP3    H124742   4.355   0.098   0.487 -1.2874  1.9901 -0.9787
 1109TIP3    H224743   4.356  -0.009   0.380 -1.8088 -0.4821  1.4131
 1110TIP3   OH224744   6.287   1.811   4.236  0.1657 -0.0671  0.4569
 1110TIP3    H124745   6.193   1.796   4.222  0.1050 -0.5841  1.3660
 1110TIP3    H224746   6.294   1.904   4.253 -0.4844 -0.3873  2.6082
 1111TIP3   OH224747   4.209   3.221  17.142  0.0685 -0.0249  0.1685
 1111TIP3    H124748   4.247   3.276  17.074  0.3762 -2.0275 -1.3591
 1111TIP3    H224749   4.274   3.221  17.213 -0.4491  2.4135  0.6826
 1112TIP3   OH224750   0.100   4.645  16.578  0.2489 -0.0800  0.8294
 1112TIP3    H124751   0.163   4.711  16.606 -0.0921  0.1688  1.0124
 1112TIP3    H224752   0.058   4.616  16.659  0.5213 -0.6471  0.7742
 1113TIP3   OH224753   2.310   1.290  15.078  0.2988 -0.1470 -0.0652
 1113TIP3    H124754   2.317   1.360  15.014  1.1662  0.3725  0.5732
 1113TIP3    H224755   2.325   1.333  15.162 -2.0613 -0.5885  0.6205
 1114TIP3   OH224756   3.194   0.005  15.602  0.1805  0.4603  0.1225
 1114TIP3    H124757   3.275  -0.042  15.586 -0.1192 -0.0117 -0.0307
 1114TIP3    H224758   3.190   0.072  15.533  0.3510  0.3723  0.0298
 1115TIP3   OH224759   0.747   4.262  16.242 -0.4932  0.1429  0.5053
 1115TIP3    H124760   0.715   4.298  16.325 -0.2237  1.4486  0.0565
 1115TIP3    H224761   0.837   4.236  16.259 -0.7793 -0.6032  0.9096
 1116TIP3   OH224762   3.262   1.070   2.839  0.4178  0.3879  0.0075
 1116TIP3    H124763   3.325   1.001   2.863  0.7330  0.2928 -1.0603
 1116TIP3    H224764   3.176   1.028   2.850  0.4788  0.7879  2.3191
 1117TIP3   OH224765   2.249   3.483   0.684 -0.1994  0.1244 -0.2272
 1117TIP3    H124766   2.255   3.393   0.652  2.1613  0.1469  0.0633
 1117TIP3    H224767   2.314   3.532   0.633 -0.1813  1.2725  0.8551
 1118TIP3   OH224768   5.156   2.126  11.133  0.0333  0.4764  0.6689
 1118TIP3    H124769   5.094   2.055  11.150 -1.9522  1.8704 -0.4857
 1118TIP3    H224770   5.242   2.086  11.144 -1.0616 -1.5597  2.1291
 1119TIP3   OH224771   1.939   1.859   0.297 -0.9051  0.5930 -0.4275
 1119TIP3    H124772   1.950   1.781   0.243 -0.0390  1.6190 -1.7866
 1119TIP3    H224773   1.850   1.889   0.278 -1.1678  0.0655 -0.0554
 1120TIP3   OH224774   0.027   5.737   3.681 -0.8854 -0.1080 -0.6222
 1120TIP3    H124775  -0.044   5.706   3.738  0.3659  0.2705  1.1741
 1120TIP3    H224776   0.077   5.658   3.660  0.2122  0.1149  1.0336
 1121TIP3   OH224777   4.835   5.496  16.257 -0.3272 -0.0477  0.7278
 1121TIP3    H124778   4.743   5.505  16.281 -0.8780 -1.5030 -0.7288
 1121TIP3    H224779   4.855   5.403  16.271  1.0564  0.3612  1.5102
 1122TIP3   OH224780   4.522   2.293   3.274 -0.4174  0.6565  0.6066
 1122TIP3    H124781   4.428   2.288   3.287 -0.5923 -0.0886 -0.8137
 1122TIP3    H224782   4.546   2.381   3.301 -1.0325 -0.1365  3.9131
 1123TIP3   OH224783   3.536   4.683  16.031 -0.0533  0.3950  0.1236
 1123TIP3    H124784   3.583   4.767  16.032  0.1272  0.2897  0.3958
 1123TIP3    H224785   3.589   4.625  16.086  0.4438 -0.2417 -1.0113
 1124TIP3   OH224786   0.838   6.036  15.225  0.1728 -0.0499  0.4047
 1124TIP3    H124787   0.921   6.012  15.267  0.4077 -1.2212 -0.6882
 1124TIP3    H224788   0.841   6.132  15.219  0.7018  0.0435  1.8550
 1125TIP3   OH224789   5.492   3.949  13.475  0.3056 -0.1971 -0.2063
 1125TIP3    H124790   5.430   4.010  13.435 -0.4365  0.3314  1.6764
 1125TIP3    H224791   5.578   3.981  13.448 -0.1611  0.1816 -1.2825
 1126TIP3   OH224792   5.625   3.691   2.068 -0.3689  0.2653  0.1626
 1126TIP3    H124793   5.616   3.615   2.125 -2.7032  0.2329 -0.2087
 1126TIP3    H224794   5.580   3.667   1.987  0.0779  1.5310 -0.4875
 1127TIP3   OH224795   2.729   4.769  14.367  0.1493  0.1430  0.4992
 1127TIP3    H124796   2.781   4.799  14.442 -1.7169  3.0888  0.7283
 1127TIP3    H224797   2.638   4.778  14.396 -0.5658 -2.0022 -0.9473
 1128TIP3   OH224798   2.673   2.001  11.580  0.0101 -0.2112  0.5145
 1128TIP3    H124799   2.609   1.994  11.510  0.9460 -1.4125 -0.2343
 1128TIP3    H224800   2.622   1.990  11.661 -0.9097  0.1134 -0.0160
 1129TIP3   OH224801   3.679   1.432   0.379 -0.2142 -0.2370 -0.2027
 1129TIP3    H124802   3.609   1.404   0.320 -1.3954 -0.6846  1.3952
 1129TIP3    H224803   3.707   1.517   0.343 -4.2841  1.9291  1.3413
 1130TIP3   OH224804   2.939   0.340  11.798 -0.1191  0.5073  0.2771
 1130TIP3    H124805   2.971   0.415  11.848  3.0761 -0.5337 -0.0782
 1130TIP3    H224806   2.906   0.378  11.717  1.4037  1.5503  0.1296
 1131TIP3   OH224807   3.064   6.438  13.690 -1.0339  0.5014  0.0708
 1131TIP3    H124808   3.159   6.435  13.682 -1.0535 -0.2220  0.0630
 1131TIP3    H224809   3.048   6.496  13.765 -0.5102 -0.8976  1.3055
 1132TIP3   OH224810   3.096   5.028  12.608 -0.2158  0.5276  0.5470
 1132TIP3    H124811   3.153   4.970  12.657  0.1008 -0.4050 -0.8928
 1132TIP3    H224812   3.153   5.100  12.580 -0.1190  0.4473  0.5366
 1133TIP3   OH224813   2.675   1.785   5.538  0.2705 -0.0482  0.0541
 1133TIP3    H124814   2.718   1.871   5.533  0.9020 -0.3245  0.6367
 1133TIP3    H224815   2.584   1.804   5.560  0.8603  0.3770  2.2265
 1134TIP3   OH224816   6.405   1.109  14.065 -0.1594  0.2986  0.4533
 1134TIP3    H124817   6.345   1.183  14.073 -0.6810  0.0486 -0.9357
 1134TIP3    H224818   6.455   1.109  14.147 -0.9765  1.4543  0.9635
 1135TIP3   OH224819   2.981   4.227  13.801 -0.1818 -0.1750  0.0487
 1135TIP3    H124820   3.021   4.226  13.888  1.3166  1.3531 -0.6015
 1135TIP3    H224821   3.036   4.168  13.749  0.8126  1.3050 -0.6337
 1136TIP3   OH224822   0.505   1.380   5.500 -0.1449  0.2183 -0.2838
 1136TIP3    H124823   0.518   1.315   5.430  2.0318 -0.1445  0.4129
 1136TIP3    H224824   0.447   1.337   5.563  0.7504 -0.8201 -0.1485
 1137TIP3   OH224825   4.674   0.209   2.165  0.0849  0.6780  0.5109
 1137TIP3    H124826   4.670   0.205   2.261 -0.7309  0.0387  0.4616
 1137TIP3    H224827   4.622   0.133   2.136 -0.1575  1.1975 -0.4357
 1138TIP3   OH224828   5.672   2.652   4.352  0.0597  0.2021  0.3199
 1138TIP3    H124829   5.762   2.686   4.350  0.1736 -0.1170  0.0373
 1138TIP3    H224830   5.667   2.593   4.277 -1.3212  2.6060 -1.5477
 1139TIP3   OH224831   0.033   1.911   4.020  0.0407  0.3870 -0.1038
 1139TIP3    H124832  -0.000   1.924   3.931  0.0854  1.8361  0.0813
 1139TIP3    H224833   0.004   1.988   4.068 -0.9153 -0.8990  1.4412
 1140TIP3   OH224834   1.136   1.561   2.287 -0.5302 -0.7229 -0.2046
 1140TIP3    H124835   1.150   1.504   2.363 -0.2274 -0.0995  0.2089
 1140TIP3    H224836   1.154   1.504   2.211 -0.7540 -1.3216  0.1834
 1141TIP3   OH224837   2.712   4.057   0.188 -0.5282  0.2820 -0.1366
 1141TIP3    H124838   2.758   3.974   0.190  0.8233  0.9989 -0.9123
 1141TIP3    H224839   2.683   4.067   0.097  0.5780  1.3216 -0.3906
 1142TIP3   OH224840   3.972   4.697  11.308  0.3251 -0.4999  0.2201
 1142TIP3    H124841   3.987   4.606  11.332 -0.7186 -0.7132  0.0982
 1142TIP3    H224842   4.036   4.715  11.239  1.5327 -0.6847  1.2896
 1143TIP3   OH224843   4.758   0.869  12.021 -0.1432 -0.0805  0.2729
 1143TIP3    H124844   4.673   0.853  12.063  1.2214 -0.6520  2.9181
 1143TIP3    H224845   4.743   0.944  11.963 -2.7913 -1.0894 -0.4143
 1144TIP3   OH224846   5.091   0.470  16.862 -0.0178 -0.4200  0.0814
 1144TIP3    H124847   5.052   0.383  16.869  0.2187 -0.4296  1.2887
 1144TIP3    H224848   5.068   0.514  16.944  1.9740 -0.2043  0.5294
 1145TIP3   OH224849   5.729   3.948   3.341 -0.8458  0.2874 -0.2505
 1145TIP3    H124850   5.727   3.861   3.381  0.7205 -0.2663 -1.3311
 1145TIP3    H224851   5.641   3.959   3.305 -0.8128 -1.2174 -0.8585
 1146TIP3   OH224852   5.035   3.583   2.255  0.7485 -0.1087  0.2814
 1146TIP3    H124853   5.088   3.506   2.271  0.2911 -0.5503 -0.3463
 1146TIP3    H224854   5.058   3.643   2.327  0.8470 -0.9568  0.9640
 1147TIP3   OH224855   6.260   5.088   2.439 -0.2189  0.0481 -0.4514
 1147TIP3    H124856   6.238   5.169   2.486 -0.0691 -0.2567  0.1565
 1147TIP3    H224857   6.316   5.116   2.367 -0.4465  0.5238 -0.4482
 1148TIP3   OH224858   5.736   0.081  15.603  0.0200 -0.6207 -0.1658
 1148TIP3    H124859   5.744   0.051  15.512 -1.5689  0.7701 -0.7928
 1148TIP3    H224860   5.785   0.164  15.605 -1.9385  0.5813 -0.4001
 1149TIP3   OH224861   0.824   2.207   4.884  0.0649 -0.0242  0.6067
 1149TIP3    H124862   0.919   2.202   4.895  0.3177 -0.6344 -1.6327
 1149TIP3    H224863   0.811   2.236   4.794 -1.8821 -0.4468  0.7214
 1150TIP3   OH224864   4.037   2.685  11.304  1.1224 -0.3685  0.7384
 1150TIP3    H124865   4.037   2.599  11.345  1.5132  0.1165  1.7794
 1150TIP3    H224866   4.038   2.667  11.210  0.5568 -1.4951  0.9409
 1151TIP3   OH224867   2.257   2.657  14.477  0.2329 -0.1375 -0.5947
 1151TIP3    H124868   2.235   2.746  14.450 -0.6629  0.2256  1.2549
 1151TIP3    H224869   2.296   2.668  14.564  1.4837 -1.4122 -0.9918
 1152TIP3   OH224870   0.855   6.353  13.965 -0.8046 -0.3153 -0.0517
 1152TIP3    H124871   0.782   6.344  13.903  0.0514 -1.8190 -0.8772
 1152TIP3    H224872   0.866   6.265  14.001 -0.8006  0.3763  1.7065
 1153TIP3   OH224873   3.517   2.328  12.824  0.2339  0.0310  0.1537
 1153TIP3    H124874   3.584   2.396  12.816 -0.7797  0.8395 -1.8386
 1153TIP3    H224875   3.460   2.342  12.748 -0.6634 -2.3118  0.3737
 1154TIP3   OH224876   0.085   2.179   5.518 -0.1762 -0.0901  0.4744
 1154TIP3    H124877  -0.000   2.149   5.550  0.2180 -0.6798  0.9732
 1154TIP3    H224878   0.129   2.100   5.489  0.4883  0.1226  0.8869
 1155TIP3   OH224879   2.680   4.147   6.615  0.1436 -0.2013 -0.7476
 1155TIP3    H124880   2.620   4.099   6.558  0.1833  0.3127 -1.2280
 1155TIP3    H224881   2.741   4.190   6.555 -0.4278  1.1647 -0.3842
 1156TIP3   OH224882   4.770   2.706   4.833  0.0747  0.1216 -0.3172
 1156TIP3    H124883   4.685   2.749   4.827  0.2428  1.1144  3.3473
 1156TIP3    H224884   4.833   2.778   4.844  0.7716 -0.7999  2.1589
 1157TIP3   OH224885   1.243   2.615   5.827  0.0924  0.4527  0.1754
 1157TIP3    H124886   1.306   2.545   5.845  0.3188  0.5508 -0.2312
 1157TIP3    H224887   1.166   2.592   5.879  0.6801  0.6520  1.1455
 1158TIP3   OH224888   6.053   0.567   0.961  0.0348 -0.2799  0.7971
 1158TIP3    H124889   6.002   0.572   0.880 -2.9955 -0.8132  2.5823
 1158TIP3    H224890   6.003   0.508   1.017  1.5124  0.8835  3.4383
 1159TIP3   OH224891   0.958   0.534   3.912  0.5241 -0.5245 -0.2236
 1159TIP3    H124892   1.021   0.602   3.938  0.4572 -0.5216 -0.0746
 1159TIP3    H224893   0.960   0.537   3.816  1.3972 -1.1116 -0.2327
 1160TIP3   OH224894   1.204   5.095   3.363  0.0182  0.2267  0.6449
 1160TIP3    H124895   1.241   5.166   3.311 -0.0628 -0.4724 -0.3784
 1160TIP3    H224896   1.121   5.130   3.395 -0.9589 -0.0912 -1.4902
 1161TIP3   OH224897   2.154   6.697   3.398  0.0685  0.4028  0.2747
 1161TIP3    H124898   2.100   6.631   3.356 -0.5193  1.8728 -1.3260
 1161TIP3    H224899   2.202   6.739   3.327  2.5404 -0.1423  1.5542
 1162TIP3   OH224900   1.439   3.574   1.816 -0.1173  0.0797  0.4099
 1162TIP3    H124901   1.508   3.628   1.776 -1.9473  2.5742  0.5006
 1162TIP3    H224902   1.427   3.611   1.903 -1.3375 -0.5195  0.5090
 1163TIP3   OH224903   0.112   1.074   5.806  0.8706 -0.0396 -0.0985
 1163TIP3    H124904   0.124   1.088   5.900  1.7104  0.2235 -0.2480
 1163TIP3    H224905   0.146   1.154   5.766  0.4127 -0.1079 -0.6226
 1164TIP3   OH224906   1.681   2.981   2.812  0.1548 -0.5202  0.4755
 1164TIP3    H124907   1.734   2.903   2.795 -1.1992 -1.5520  0.9565
 1164TIP3    H224908   1.741   3.054   2.797  2.3464 -1.7060  3.0450
 1165TIP3   OH224909   6.414   3.165  10.756  0.1532 -0.1922  0.4870
 1165TIP3    H124910   6.334   3.216  10.773  2.1185  3.1126  0.2285
 1165TIP3    H224911   6.414   3.153  10.661  1.2709  2.1593  0.1542
 1166TIP3   OH224912   3.230   0.939  14.957 -0.1152 -0.1846 -0.3094
 1166TIP3    H124913   3.299   0.914  14.896  0.6251 -1.1931  0.9097
 1166TIP3    H224914   3.261   0.909  15.043 -0.8038  1.8451  0.6876
 1167TIP3   OH224915   0.336   1.332  12.746 -0.3269  0.1505 -0.3911
 1167TIP3    H124916   0.242   1.344  12.729 -0.4688 -1.6056 -1.0209
 1167TIP3    H224917   0.351   1.376  12.829 -1.9523 -0.4422  0.2583
 1168TIP3   OH224918   3.821   0.873  13.792  0.0597 -1.0593 -0.1120
 1168TIP3    H124919   3.752   0.927  13.755 -0.5305 -2.4485 -1.1055
 1168TIP3    H224920   3.902   0.910  13.759  0.0109  2.0905  3.0115
 1169TIP3   OH224921   3.174   0.935   0.835 -0.1176  0.0711 -0.0063
 1169TIP3    H124922   3.244   0.999   0.829 -0.5382  0.5180 -0.2059
 1169TIP3    H224923   3.122   0.949   0.755 -0.6000 -0.0494  0.2857
 1170TIP3   OH224924   1.819   1.782  15.273  0.3271 -0.3913  0.3195
 1170TIP3    H124925   1.798   1.842  15.202 -1.6397 -1.3272  0.0919
 1170TIP3    H224926   1.793   1.828  15.353  0.4213 -0.2522  0.2703
 1171TIP3   OH224927   2.700   2.680  12.475  0.0201  0.1230 -0.6686
 1171TIP3    H124928   2.757   2.740  12.523  0.5626  1.3551 -2.8211
 1171TIP3    H224929   2.756   2.638  12.411 -0.5029 -2.2419  0.3616
 1172TIP3   OH224930   3.541   1.209   3.825 -0.1304  0.4984 -1.1322
 1172TIP3    H124931   3.465   1.160   3.792  0.0404 -0.0503 -0.7108
 1172TIP3    H224932   3.590   1.145   3.877 -0.7424  1.5197  0.7321
 1173TIP3   OH224933   0.432   6.149  11.466 -0.2545  0.1707 -0.3221
 1173TIP3    H124934   0.464   6.232  11.430  2.5924  0.3693  2.4866
 1173TIP3    H224935   0.501   6.086  11.446 -0.8308 -0.7716  0.6247
 1174TIP3   OH224936   5.597   0.051  13.214 -0.6557 -0.7319  0.6089
 1174TIP3    H124937   5.641   0.129  13.250 -3.6567  0.4571  1.9012
 1174TIP3    H224938   5.521   0.086  13.169 -0.7140 -2.7979 -0.9247
 1175TIP3   OH224939   3.300   3.147   1.049  0.0908  0.2254 -0.0487
 1175TIP3    H124940   3.219   3.147   1.100  1.4537  3.9403  2.3331
 1175TIP3    H224941   3.305   3.059   1.012 -4.4571 -0.4398  0.5972
 1176TIP3   OH224942   4.099   1.232  16.079  0.0671 -0.3853  0.5396
 1176TIP3    H124943   4.122   1.140  16.091  3.5734  0.1163 -1.5713
 1176TIP3    H224944   4.135   1.255  15.993 -0.8263  2.9171  0.9715
 1177TIP3   OH224945   0.220   5.724   4.798 -0.0616  0.4711  0.2112
 1177TIP3    H124946   0.275   5.678   4.860 -0.8839 -0.7380  0.0592
 1177TIP3    H224947   0.256   5.813   4.794  0.4731  0.3265  1.8023
 1178TIP3   OH224948   5.067   5.284   4.686 -0.1360 -0.3555  0.0822
 1178TIP3    H124949   5.084   5.339   4.763  1.2332 -0.7203  0.0556
 1178TIP3    H224950   5.049   5.197   4.723 -1.9425  0.0019  0.1054
 1179TIP3   OH224951   1.174   3.200   2.664 -0.4328  0.7676 -0.4751
 1179TIP3    H124952   1.156   3.187   2.757 -1.3147  1.3546 -0.5555
 1179TIP3    H224953   1.121   3.133   2.619  2.0440 -1.2888 -0.4447
 1180TIP3   OH224954   6.434   3.037  15.253 -0.1874 -0.1388 -0.6652
 1180TIP3    H124955   6.409   3.128  15.271  1.5639  0.0765  0.8111
 1180TIP3    H224956   6.407   2.988  15.331  3.6875  0.0756  0.9044
 1181TIP3   OH224957   5.825   5.378   2.977 -0.4005  0.0965 -0.2776
 1181TIP3    H124958   5.773   5.299   2.989  0.0232 -0.4796 -2.0662
 1181TIP3    H224959   5.779   5.426   2.908  0.2721  0.6065 -0.3749
 1182TIP3   OH224960   2.465   1.722   4.053 -0.7389  0.2249 -0.0553
 1182TIP3    H124961   2.395   1.666   4.021  0.2289 -0.0652 -1.7139
 1182TIP3    H224962   2.485   1.687   4.140 -1.7024 -0.5718 -0.1493
 1183TIP3   OH224963   3.956   1.954   0.458 -0.1292 -0.0379 -0.4439
 1183TIP3    H124964   3.895   1.905   0.513 -1.2398 -1.1660 -2.6158
 1183TIP3    H224965   4.042   1.914   0.475 -0.6963 -1.3486 -0.6320
 1184TIP3   OH224966   0.530   1.576   3.908 -0.1291  0.2169  0.7301
 1184TIP3    H124967   0.617   1.535   3.907  0.6701  1.8490 -1.0753
 1184TIP3    H224968   0.488   1.545   3.828 -0.5503  0.7526  0.7402
 1185TIP3   OH224969   6.029   5.328   1.001  0.3066 -0.5374 -0.0948
 1185TIP3    H124970   6.063   5.245   0.968 -0.1956 -1.1870  1.0101
 1185TIP3    H224971   5.938   5.330   0.972  0.3626 -0.2883 -0.2621
 1186TIP3   OH224972   4.540   1.442  16.774  0.0274 -0.5028  0.1722
 1186TIP3    H124973   4.527   1.513  16.711  2.9042  0.6427  0.7749
 1186TIP3    H224974   4.630   1.454  16.805 -0.9083 -1.7280  3.6166
 1187TIP3   OH224975   3.419   0.578   4.999  0.3690 -0.1001  0.0076
 1187TIP3    H124976   3.477   0.653   4.988  1.6082 -0.8928  0.9307
 1187TIP3    H224977   3.455   0.511   4.941 -0.4608 -0.1302 -0.4757
 1188TIP3   OH224978   1.474   3.246  16.462  0.0138  0.0962 -0.6185
 1188TIP3    H124979   1.466   3.289  16.547 -0.3605  1.5293 -1.3654
 1188TIP3    H224980   1.569   3.238  16.448  0.0931  1.0997 -0.6828
 1189TIP3   OH224981   1.124   6.377   2.866 -0.4194 -0.0749  0.7625
 1189TIP3    H124982   1.112   6.296   2.916  1.4329 -1.0563 -0.3375
 1189TIP3    H224983   1.207   6.412   2.897  0.3283 -0.2434 -0.9735
 1190TIP3   OH224984   0.297   4.156  11.883  0.2785 -0.0314 -0.0342
 1190TIP3    H124985   0.290   4.090  11.814 -0.3624  0.3910 -0.3819
 1190TIP3    H224986   0.216   4.145  11.934 -0.2777  1.0838 -0.6417
 1191TIP3   OH224987   2.100   5.469  17.150 -0.4445  0.3306  0.2270
 1191TIP3    H124988   2.046   5.532  17.102  1.4120  1.0516 -0.9582
 1191TIP3    H224989   2.040   5.430  17.214 -2.1990  1.5742 -0.6200
 1192TIP3   OH224990   5.736   6.559  11.588 -0.8747 -0.5283 -0.2948
 1192TIP3    H124991   5.746   6.513  11.504 -0.2418 -0.2734 -0.3573
 1192TIP3    H224992   5.818   6.607  11.599 -0.8263 -0.8145  0.6282
 1193TIP3   OH224993   4.260   4.259   2.061  0.4792 -0.6054 -0.4012
 1193TIP3    H124994   4.338   4.310   2.082  0.4542 -1.0588  0.8509
 1193TIP3    H224995   4.196   4.323   2.029  1.0133 -0.0969 -0.4332
 1194TIP3   OH224996   4.101   5.395   4.806  0.7796  0.8799 -0.0996
 1194TIP3    H124997   4.077   5.306   4.832 -0.4087  1.5394  1.1400
 1194TIP3    H224998   4.196   5.391   4.790  0.3498 -1.1106 -2.2919
 1195TIP3   OH224999   2.712   0.080   6.283  0.4380  0.0956 -0.8325
 1195TIP3    H125000   2.725   0.013   6.350 -2.7080 -0.9255 -1.1745
 1195TIP3    H225001   2.796   0.083   6.237  1.6834 -1.2982  1.2486
 1196TIP3   OH225002   2.679   5.538   0.877  0.1566 -0.0552  0.4407
 1196TIP3    H125003   2.619   5.552   0.950  2.1437 -1.1639  2.3342
 1196TIP3    H225004   2.643   5.463   0.829 -1.3108  0.8637  0.0818
 1197TIP3   OH225005   0.281   3.344  15.111  0.0412 -0.3894  0.2749
 1197TIP3    H125006   0.243   3.257  15.113 -0.9101 -0.0010 -0.2110
 1197TIP3    H225007   0.373   3.330  15.089 -0.3201 -1.2072 -0.7646
 1198TIP3   OH225008   1.609   5.126  15.303  0.2748 -0.1494  0.7568
 1198TIP3    H125009   1.617   5.215  15.337  0.3878 -0.0064  0.3611
 1198TIP3    H225010   1.603   5.071  15.381  1.2156  0.1038  1.0095
 1199TIP3   OH225011   5.959   1.318  16.695  0.3525  0.1560 -0.3108
 1199TIP3    H125012   5.941   1.387  16.631 -2.3496 -0.4177 -0.2160
 1199TIP3    H225013   5.892   1.329  16.762 -0.1627 -2.5754 -0.3151
 1200TIP3   OH225014   4.472   0.643   0.135 -0.2306 -0.0110  0.1312
 1200TIP3    H125015   4.383   0.675   0.121 -0.1832  0.7766  1.5179
 1200TIP3    H225016   4.467   0.593   0.216  0.7987  0.8782  0.7448
 1201TIP3   OH225017   1.183   5.847   5.001  0.3483  0.1524  0.1860
 1201TIP3    H125018   1.162   5.895   4.921  3.4469 -0.2660 -0.9446
 1201TIP3    H225019   1.195   5.914   5.067  1.4133  0.7671 -0.6093
 1202TIP3   OH225020   2.833   6.656  12.799  0.2112  0.1538  0.7525
 1202TIP3    H125021   2.891   6.617  12.734 -0.7525 -0.9547  0.5454
 1202TIP3    H225022   2.796   6.733  12.756 -1.5112 -1.3487 -0.5656
 1203TIP3   OH225023   3.822   1.185  16.480 -0.4540  0.2350 -0.2679
 1203TIP3    H125024   3.772   1.200  16.400 -1.2538 -0.3096  0.1213
 1203TIP3    H225025   3.911   1.215  16.459 -0.7597  0.4947 -1.2118
 1204TIP3   OH225026   5.691   2.176  17.219  0.2294  0.2797  0.2707
 1204TIP3    H125027   5.757   2.128  17.170 -0.3069 -2.1223  1.8197
 1204TIP3    H225028   5.617   2.184  17.159  0.4515 -0.5339 -0.1108
 1205TIP3   OH225029   4.100   5.848   0.075 -0.2873  0.5606 -0.2793
 1205TIP3    H125030   4.148   5.895   0.007  2.0004  2.6793  2.6555
 1205TIP3    H225031   4.029   5.908   0.101 -0.2975  0.3645  0.1609
 1206TIP3   OH225032   2.008   2.448  12.303 -0.3652  0.2184 -0.3252
 1206TIP3    H125033   2.080   2.505  12.330 -0.2995 -1.0676  2.3159
 1206TIP3    H225034   1.944   2.508  12.264  1.2871  1.6034 -0.9904
 1207TIP3   OH225035   2.273   1.015  11.443 -0.1290  0.5570 -0.5912
 1207TIP3    H125036   2.290   1.021  11.349 -0.9607  0.3392 -0.7591
 1207TIP3    H225037   2.202   1.077  11.459  0.0152  0.5990 -0.1054
 1208TIP3   OH225038   1.547   4.965  11.671  0.5329  0.0869 -0.3421
 1208TIP3    H125039   1.477   4.902  11.652  0.4110  0.1356 -0.0412
 1208TIP3    H225040   1.536   5.033  11.605 -1.8518  1.8793  1.8443
 1209TIP3   OH225041   0.619   3.058   3.172  0.3407 -0.2599  0.4937
 1209TIP3    H125042   0.576   2.973   3.169 -0.1880  0.0503 -1.4400
 1209TIP3    H225043   0.547   3.121   3.172  0.7555  0.2175  0.3516
 1210TIP3   OH225044   3.877   5.810   2.957  0.0098  0.1418 -0.2255
 1210TIP3    H125045   3.824   5.885   2.928 -0.3336  0.1816  0.5166
 1210TIP3    H225046   3.838   5.735   2.914 -0.0659  0.2946 -0.4273
 1211TIP3   OH225047   6.404   4.755   0.041 -0.4523 -0.2681  0.5250
 1211TIP3    H125048   6.392   4.826  -0.022 -0.7918 -0.7841  0.0032
 1211TIP3    H225049   6.401   4.676  -0.012 -1.1516 -0.7259  1.2367
 1212TIP3   OH225050   5.508   3.470  16.280 -0.0899 -0.3636 -0.1727
 1212TIP3    H125051   5.549   3.478  16.194  2.6595 -2.0308  0.9107
 1212TIP3    H225052   5.553   3.535  16.334 -0.1036 -0.9702  0.5802
 1213TIP3   OH225053   3.471   5.619   4.991  0.4038 -0.0613  0.4262
 1213TIP3    H125054   3.564   5.625   4.966  0.2321  0.7389 -0.0328
 1213TIP3    H225055   3.468   5.656   5.079  0.1434  2.2030 -0.4980
 1214TIP3   OH225056   4.319   3.070   4.496 -0.4883 -0.4037 -0.0707
 1214TIP3    H125057   4.329   3.123   4.418  0.0248  0.4626  0.5797
 1214TIP3    H225058   4.398   3.087   4.547 -1.1432 -0.4165  0.9617
 1215TIP3   OH225059   6.740   2.773   0.594  0.6957  0.2386 -0.7193
 1215TIP3    H125060   6.762   2.830   0.521  1.1974 -1.2182 -1.7250
 1215TIP3    H225061   6.815   2.713   0.601  0.4596  0.0999  0.7139
 1216TIP3   OH225062   0.243   1.244   0.268 -0.4407  0.6414  0.6069
 1216TIP3    H125063   0.204   1.157   0.257 -0.2057  0.5392  0.5768
 1216TIP3    H225064   0.330   1.226   0.303  0.9044  0.7053 -2.5540
 1217TIP3   OH225065   3.507   5.387  13.473 -0.4983  0.2478  0.2666
 1217TIP3    H125066   3.436   5.403  13.536 -1.0850 -0.3225 -0.2467
 1217TIP3    H225067   3.575   5.449  13.499 -0.1786 -0.9140  2.3200
 1218TIP3   OH225068   3.951   0.632   4.632  0.5367  0.9908  0.4345
 1218TIP3    H125069   3.930   0.636   4.725  2.5487  0.3993  0.9456
 1218TIP3    H225070   3.867   0.638   4.588 -0.4754  0.8634  2.3043
 1219TIP3   OH225071   5.819   1.240  15.385 -0.0877 -0.0874 -0.5418
 1219TIP3    H125072   5.889   1.296  15.352 -0.5298  0.8548  0.0905
 1219TIP3    H225073   5.806   1.174  15.316 -0.5660  1.4762 -1.9933
 1220TIP3   OH225074   0.171   0.538  13.988  0.1839  0.2597  0.2206
 1220TIP3    H125075   0.158   0.507  14.078  2.5654  0.6756  0.7397
 1220TIP3    H225076   0.083   0.554  13.955 -0.7965 -1.2859  1.9896
 1221TIP3   OH225077   6.063   0.326  12.841 -0.1099  0.4232 -0.0439
 1221TIP3    H125078   6.073   0.268  12.766 -1.9832  0.7264 -0.5566
 1221TIP3    H225079   6.063   0.414  12.804  1.7564  0.7206  0.6258
 1222TIP3   OH225080   2.553   4.026   3.675 -0.5875 -0.0911 -0.1750
 1222TIP3    H125081   2.618   4.093   3.698 -0.2657  0.1005 -1.6278
 1222TIP3    H225082   2.511   4.004   3.758  0.4151  0.7561  0.5641
 1223TIP3   OH225083   4.662   2.622  12.017  0.3386 -0.3772  0.0913
 1223TIP3    H125084   4.603   2.570  11.964 -0.8964  0.0814  0.9917
 1223TIP3    H225085   4.693   2.562  12.085  1.2400 -0.7244 -0.6088
 1224TIP3   OH225086   2.409   0.473   1.149  0.4004  0.3105 -0.6374
 1224TIP3    H125087   2.481   0.472   1.212  1.1427  0.3512 -1.4698
 1224TIP3    H225088   2.432   0.544   1.089 -0.7176  0.8217 -0.4755
 1225TIP3   OH225089   5.048   5.581  14.917  0.3958  0.1224 -0.4557
 1225TIP3    H125090   4.995   5.506  14.946  0.5977  0.3813  0.6087
 1225TIP3    H225091   5.134   5.543  14.897  0.2856 -0.0428 -0.6214
 1226TIP3   OH225092   3.527   6.461  17.213  0.4358 -0.1332 -0.4037
 1226TIP3    H125093   3.541   6.506  17.130  1.8402  0.4691  0.1525
 1226TIP3    H225094   3.544   6.369  17.193  1.5380  0.1101 -0.6109
 1227TIP3   OH225095   2.987   6.470  15.517 -0.5197  0.0452 -0.3292
 1227TIP3    H125096   3.080   6.457  15.538 -0.2386  0.3557 -1.3893
 1227TIP3    H225097   2.951   6.381  15.516 -0.0565 -0.1410 -0.7345
 1228TIP3   OH225098   3.701   2.885   0.871  0.2747 -0.2207  0.3780
 1228TIP3    H125099   3.620   2.856   0.912  1.1063 -1.7419  0.9746
 1228TIP3    H225100   3.731   2.958   0.924  0.5895 -1.2562  1.6396
 1229TIP3   OH225101   6.309   1.578  15.298 -0.4941  0.4690 -0.7499
 1229TIP3    H125102   6.306   1.654  15.358 -1.9124  0.1867 -0.4510
 1229TIP3    H225103   6.261   1.607  15.221 -1.4426 -0.3010 -0.4406
 1230TIP3   OH225104   0.035   0.276   2.419  0.1007  0.5641 -0.2835
 1230TIP3    H125105   0.095   0.202   2.410  0.1532  0.4791  0.7255
 1230TIP3    H225106   0.041   0.322   2.335 -1.3137 -1.5992 -1.6199
 1231TIP3   OH225107   5.948   3.546  13.636 -0.2158 -0.9136  0.0349
 1231TIP3    H125108   5.907   3.624  13.596 -1.3906 -0.9791  1.0736
 1231TIP3    H225109   6.040   3.571  13.647 -0.9768  1.1588  2.2862
 1232TIP3   OH225110   3.144   3.302  11.386 -0.3064 -0.1691 -0.1080
 1232TIP3    H125111   3.207   3.325  11.318  0.3491 -1.0531  0.1950
 1232TIP3    H225112   3.078   3.371  11.382 -0.1921 -0.1369 -1.5400
 1233TIP3   OH225113   5.810   5.796   1.438  0.3249 -0.3871 -0.4484
 1233TIP3    H125114   5.887   5.835   1.481  0.3458 -1.1690  0.2273
 1233TIP3    H225115   5.807   5.706   1.471 -1.0271 -0.2873 -0.2901
 1234TIP3   OH225116   3.922   3.770   5.070 -0.1050  0.0195  0.3111
 1234TIP3    H125117   3.984   3.799   5.003 -0.4778 -0.4244 -0.2233
 1234TIP3    H225118   3.955   3.684   5.098 -1.3381 -0.9260 -1.0785
 1235TIP3   OH225119   6.498   0.116   2.999 -0.1422  0.2372 -0.3023
 1235TIP3    H125120   6.427   0.172   3.029 -1.2901 -1.7357  0.7840
 1235TIP3    H225121   6.575   0.147   3.047 -1.3029 -0.8082  2.3194
 1236TIP3   OH225122   5.763   4.822  11.277  0.4219  0.4160  0.2624
 1236TIP3    H125123   5.768   4.869  11.360 -0.5071 -0.0930  0.6176
 1236TIP3    H225124   5.669   4.815  11.258  0.5474 -0.9162  0.0145
 1237TIP3   OH225125   0.389   2.593   5.499 -0.7685  0.4744 -0.7581
 1237TIP3    H125126   0.447   2.633   5.434  0.5268 -0.4453 -0.2153
 1237TIP3    H225127   0.345   2.522   5.452 -0.1490  0.0817 -0.7581
 1238TIP3   OH225128   5.633   0.329   4.737 -0.3159  0.6962 -0.3237
 1238TIP3    H125129   5.698   0.394   4.763 -0.2123  0.9200 -1.1314
 1238TIP3    H225130   5.590   0.304   4.819  0.6681  0.6703  0.1963
 1239TIP3   OH225131   1.248   5.646   4.801 -0.0527 -0.1556 -0.1494
 1239TIP3    H125132   1.254   5.551   4.806 -0.7874 -0.3097 -1.8859
 1239TIP3    H225133   1.233   5.674   4.891  1.1289 -1.5956  0.5122
 1240TIP3   OH225134   4.039   1.518   5.900  0.0853  0.0649 -0.4574
 1240TIP3    H125135   4.055   1.507   5.994  1.2363  0.1136 -0.6364
 1240TIP3    H225136   3.944   1.515   5.891  0.0067 -0.9006  0.5948
 1241TIP3   OH225137   2.540   2.776   0.244 -0.4650  0.8019 -0.1665
 1241TIP3    H125138   2.470   2.791   0.181  0.9700  1.3593 -1.6907
 1241TIP3    H225139   2.547   2.681   0.250 -0.0438  0.7289 -1.5405
 1242TIP3   OH225140   2.787   6.003   0.762 -0.4284 -0.3343  0.5328
 1242TIP3    H125141   2.784   6.081   0.705 -0.5537  0.7284  1.9688
 1242TIP3    H225142   2.844   5.942   0.716 -0.9508  0.3011 -0.9991
 1243TIP3   OH225143   0.835   0.615   2.844  0.0582 -0.6097  0.8128
 1243TIP3    H125144   0.749   0.599   2.883 -0.0597 -0.6688  0.5347
 1243TIP3    H225145   0.848   0.541   2.784 -0.1458 -0.0792  0.0999
 1244TIP3   OH225146   0.313   2.174   1.444  0.5796 -0.1016 -0.3047
 1244TIP3    H125147   0.386   2.224   1.481 -0.7373  2.3609 -0.9369
 1244TIP3    H225148   0.318   2.191   1.350  0.3477 -1.4949 -0.5728
 1245TIP3   OH225149   6.517   3.207   0.496  0.7482 -0.2470  0.1140
 1245TIP3    H125150   6.543   3.290   0.534 -1.3842 -0.6845  2.6574
 1245TIP3    H225151   6.543   3.141   0.560 -0.4131 -1.2536 -0.4191
 1246TIP3   OH225152   4.461   2.720  15.460 -0.4897  0.0206 -0.6524
 1246TIP3    H125153   4.476   2.809  15.489 -0.2745 -0.2239 -0.0101
 1246TIP3    H225154   4.513   2.712  15.380 -0.1642  0.3325 -0.4721
 1247TIP3   OH225155   3.347   0.463   4.399  0.4177  0.0270 -0.9791
 1247TIP3    H125156   3.339   0.559   4.400 -1.3018 -0.0951 -0.1774
 1247TIP3    H225157   3.281   0.435   4.335  0.6147 -0.6471 -0.8877
 1248TIP3   OH225158   1.366   4.193   5.411  0.7167  0.1808 -0.0175
 1248TIP3    H125159   1.382   4.184   5.317  0.6256 -0.3670  0.0188
 1248TIP3    H225160   1.298   4.128   5.431 -1.3046  2.1918 -0.1004
 1249TIP3   OH225161   5.447   6.333  11.971  0.0945  0.1335 -0.5090
 1249TIP3    H125162   5.496   6.378  11.902  1.1220 -0.4479 -0.1629
 1249TIP3    H225163   5.500   6.257  11.993 -0.7404 -0.2606  0.1992
 1250TIP3   OH225164   2.724   2.242  11.884 -0.4628  0.2372  0.1954
 1250TIP3    H125165   2.769   2.222  11.802  0.4167 -0.0915  0.7533
 1250TIP3    H225166   2.727   2.338  11.891 -0.8592  0.2894 -0.3314
 1251TIP3   OH225167   3.317   4.120   4.358 -0.0919  0.2258  0.6090
 1251TIP3    H125168   3.390   4.091   4.413 -1.1566 -0.8115  1.4987
 1251TIP3    H225169   3.277   4.039   4.327 -0.3302  0.7949 -0.6243
 1252TIP3   OH225170   1.369   2.264  11.035 -0.2170  0.5036  0.1125
 1252TIP3    H125171   1.369   2.318  11.114 -2.0684 -0.3033  0.6874
 1252TIP3    H225172   1.424   2.313  10.973  0.0264  1.8890  1.3870
 1253TIP3   OH225173   1.974   5.525   1.327 -0.4647  0.2809  0.3762
 1253TIP3    H125174   2.003   5.472   1.402 -0.6888  2.3153  1.9255
 1253TIP3    H225175   2.050   5.528   1.269  0.3565  0.2820  1.4294
 1254TIP3   OH225176   2.055   3.869   3.953 -0.8797 -0.0554  0.0999
 1254TIP3    H125177   2.064   3.964   3.961  1.0470 -0.1974 -0.1918
 1254TIP3    H225178   2.139   3.840   3.919 -0.2948 -2.2165  3.2290
 1255TIP3   OH225179   0.612   1.003  13.882 -0.3617  0.6470 -0.2043
 1255TIP3    H125180   0.643   0.948  13.954  0.6512  1.0644 -0.3178
 1255TIP3    H225181   0.587   0.941  13.813  2.1040  0.3441 -0.8655
 1256TIP3   OH225182   2.385   3.378   4.729  0.6248 -0.4283 -0.1102
 1256TIP3    H125183   2.448   3.450   4.735  0.7849 -0.6991  1.7950
 1256TIP3    H225184   2.438   3.301   4.708  0.8518 -0.5315  0.8208
 1257TIP3   OH225185   2.424   0.675  15.330 -0.1657 -0.2992  0.1947
 1257TIP3    H125186   2.511   0.645  15.358 -0.0080  0.0833  0.1136
 1257TIP3    H225187   2.390   0.722  15.406  0.8758  2.0548 -0.7463
 1258TIP3   OH225188   6.767   1.162  15.091 -0.1385  0.7317  0.2504
 1258TIP3    H125189   6.797   1.148  15.001  0.4953 -0.4877  0.6424
 1258TIP3    H225190   6.701   1.231  15.083  0.3611  1.0779 -1.0635
 1259TIP3   OH225191   3.670   4.656   1.235 -0.0822  0.2798 -0.0999
 1259TIP3    H125192   3.642   4.724   1.174  0.4149  0.4905 -0.0954
 1259TIP3    H225193   3.600   4.652   1.300 -0.0992  0.8056 -0.0861
 1260TIP3   OH225194   6.235   6.650   1.908 -0.3897 -0.9346  0.5222
 1260TIP3    H125195   6.231   6.574   1.966 -0.7361 -1.4653 -0.1918
 1260TIP3    H225196   6.144   6.680   1.902 -0.3705 -0.9516  0.1560
 1261TIP3   OH225197   0.704   2.856  13.145 -0.5009  0.1216  0.3004
 1261TIP3    H125198   0.676   2.916  13.214  1.8355  0.8072  0.6732
 1261TIP3    H225199   0.787   2.821  13.175  0.4412  0.2460 -2.0291
 1262TIP3   OH225200   1.669   2.105  10.860 -0.5609 -0.3228 -0.6709
 1262TIP3    H125201   1.632   2.032  10.810  0.3912 -0.5335 -1.0781
 1262TIP3    H225202   1.760   2.080  10.874 -0.0134  1.1506 -1.4941
 1263TIP3   OH225203   3.922   1.871  11.706 -0.3034 -0.0676  0.0218
 1263TIP3    H125204   3.859   1.876  11.633 -1.6057  0.3761  1.1510
 1263TIP3    H225205   3.873   1.830  11.777  0.5233  0.7699  1.0966
 1264TIP3   OH225206   5.616   6.320   2.888 -0.3569 -0.0894 -0.2808
 1264TIP3    H125207   5.535   6.301   2.840  0.3915 -1.3014 -1.0993
 1264TIP3    H225208   5.650   6.400   2.849 -2.4149  1.8391  1.7183
 1265TIP3   OH225209   2.818   2.479   0.189 -0.0845  0.9655 -0.0693
 1265TIP3    H125210   2.784   2.451   0.105 -0.4381  2.5070 -0.4629
 1265TIP3    H225211   2.886   2.415   0.210  0.0991  0.6371 -1.5870
 1266TIP3   OH225212   1.450   5.604  12.413 -0.1901 -0.7287  0.2103
 1266TIP3    H125213   1.452   5.680  12.472  0.5096 -1.4981  1.1834
 1266TIP3    H225214   1.412   5.638  12.332 -3.2616 -0.1586  1.7993
 1267TIP3   OH225215   0.155   0.160  14.877  0.6265 -0.1660  0.3008
 1267TIP3    H125216   0.164   0.152  14.782  0.9929  1.5782  0.1625
 1267TIP3    H225217   0.168   0.072  14.910 -0.0781 -0.8897 -1.3216
 1268TIP3   OH225218   4.408   6.010   2.389 -0.1233 -0.3613 -0.1680
 1268TIP3    H125219   4.376   5.997   2.478 -0.2296 -0.1192 -0.1693
 1268TIP3    H225220   4.340   6.063   2.347 -0.0921 -0.5077 -0.4047
 1269TIP3   OH225221   2.172   1.614  13.587 -0.3642 -0.4701  0.2042
 1269TIP3    H125222   2.122   1.553  13.641 -1.0462 -1.6867 -1.7389
 1269TIP3    H225223   2.106   1.663  13.538  0.2875 -1.1172 -1.3549
 1270TIP3   OH225224   3.162   3.571  12.833  0.5125 -0.7161 -0.1039
 1270TIP3    H125225   3.117   3.608  12.757  1.6099  0.7727 -0.0669
 1270TIP3    H225226   3.253   3.564  12.806  0.7547 -1.0150  0.7683
 1271TIP3   OH225227   0.514   4.906  14.526  0.9357 -0.0176  0.8293
 1271TIP3    H125228   0.476   4.837  14.473 -2.0356  2.2792 -0.1311
 1271TIP3    H225229   0.564   4.959  14.465 -1.1432  1.6803  0.5344
 1272TIP3   OH225230   0.266   4.706   4.627 -0.3538 -0.5541  0.1640
 1272TIP3    H125231   0.360   4.711   4.611 -0.4130  0.3393  0.0582
 1272TIP3    H225232   0.254   4.624   4.674  0.5744 -0.3319  0.8142
 1273TIP3   OH225233   2.475   5.665  13.677 -0.1183 -0.2696 -0.0135
 1273TIP3    H125234   2.439   5.596  13.733 -0.8304 -0.0347 -0.1657
 1273TIP3    H225235   2.525   5.619  13.610  0.3985 -0.5734  0.5781
 1274TIP3   OH225236   6.451   3.103   4.618 -0.5702  0.3356 -0.1362
 1274TIP3    H125237   6.428   3.192   4.646 -0.3385  0.2937  0.1977
 1274TIP3    H225238   6.435   3.050   4.696  0.5854  0.2963  0.0807
 1275TIP3   OH225239   5.136   3.723  16.210  0.1442 -0.0041  0.8201
 1275TIP3    H125240   5.116   3.694  16.121  2.3753 -0.4836  0.4522
 1275TIP3    H225241   5.148   3.817  16.202  0.4745 -0.0643  0.5793
 1276TIP3   OH225242   0.171   0.991  16.596  0.6003 -0.7777  0.5199
 1276TIP3    H125243   0.131   1.035  16.521 -0.4923 -2.0786  0.3040
 1276TIP3    H225244   0.255   0.960  16.563  0.1022 -1.3875 -0.1974
 1277TIP3   OH225245   2.538   0.990   0.938  0.3699  0.1188  0.7652
 1277TIP3    H125246   2.592   0.969   1.013  0.7549  2.4898  1.2030
 1277TIP3    H225247   2.597   0.988   0.863  0.3795 -0.4222  0.7872
 1278TIP3   OH225248   2.510   4.844  14.791  0.1238 -0.3795 -0.5973
 1278TIP3    H125249   2.559   4.845  14.708  0.8363 -0.4559 -0.1851
 1278TIP3    H225250   2.573   4.813  14.855 -0.1281  0.6511  0.1597
 1279TIP3   OH225251   2.677   2.358  15.539  0.8503 -0.0481 -0.5948
 1279TIP3    H125252   2.626   2.428  15.498  0.7168 -0.4687 -1.1558
 1279TIP3    H225253   2.611   2.295  15.569  0.9663  0.0866 -0.0527
 1280TIP3   OH225254   2.836   1.696  16.403  0.2124  0.0565 -0.3719
 1280TIP3    H125255   2.878   1.778  16.376  1.1059 -0.0818  0.5611
 1280TIP3    H225256   2.782   1.671  16.329  0.4610  1.1472 -0.9291
 1281TIP3   OH225257   0.592   2.553   4.548  0.5296  0.3744  0.0954
 1281TIP3    H125258   0.551   2.554   4.462  0.4570 -0.7981  0.0963
 1281TIP3    H225259   0.604   2.459   4.567  0.9148  0.6357  1.1739
 1282TIP3   OH225260   4.142   3.192  14.521  0.2251 -0.2990 -0.5925
 1282TIP3    H125261   4.234   3.179  14.495  0.2649 -0.2029 -0.5006
 1282TIP3    H225262   4.136   3.152  14.608  0.1238 -0.5084 -0.6949
 1283TIP3   OH225263   4.131   4.729  12.402 -0.7621 -0.4396  0.3808
 1283TIP3    H125264   4.132   4.722  12.497 -0.2301  0.0098  0.4128
 1283TIP3    H225265   4.213   4.775  12.380 -0.5156 -1.2101 -0.3444
 1284TIP3   OH225266   2.476   5.406  15.705 -0.0598  0.2303 -0.5990
 1284TIP3    H125267   2.515   5.389  15.790 -0.7859  1.0897 -0.0827
 1284TIP3    H225268   2.483   5.323  15.658  0.1872 -0.2920  0.3580
 1285TIP3   OH225269   4.928   3.046   0.748 -0.5685  0.1647  0.2633
 1285TIP3    H125270   5.019   3.029   0.725 -0.8737 -1.7236  0.3159
 1285TIP3    H225271   4.930   3.071   0.840 -0.0549  0.5527  0.1451
 1286TIP3   OH225272   2.333   1.940   2.843 -0.4769 -0.0694  0.6580
 1286TIP3    H125273   2.320   2.025   2.885  0.6587 -0.5799  2.0933
 1286TIP3    H225274   2.385   1.890   2.906 -1.0174 -1.7874 -0.2253
 1287TIP3   OH225275   1.876   4.152  13.617  0.1965  0.1732 -0.0128
 1287TIP3    H125276   1.803   4.140  13.557  0.0685 -3.6854  0.7534
 1287TIP3    H225277   1.836   4.174  13.701 -0.0214 -0.4152  0.0412
 1288TIP3   OH225278   0.723   5.223  14.961 -0.1056  0.3861 -0.3994
 1288TIP3    H125279   0.688   5.147  15.009  0.0759  1.0532  0.8166
 1288TIP3    H225280   0.709   5.202  14.869 -0.1244 -1.0968 -0.0706
 1289TIP3   OH225281   1.229   1.306  16.105  0.7340 -0.7026 -0.4465
 1289TIP3    H125282   1.267   1.263  16.181 -0.7764 -1.9308 -0.3492
 1289TIP3    H225283   1.295   1.369  16.077  1.8641 -1.1905  1.0564
 1290TIP3   OH225284   6.167   5.307  12.570  0.2675  0.2890 -0.1708
 1290TIP3    H125285   6.258   5.312  12.600  0.2498  0.7084 -0.1975
 1290TIP3    H225286   6.115   5.329  12.647  0.2478  2.3064 -0.7542
 1291TIP3   OH225287   6.686   1.414  15.046 -0.0370  0.6049 -0.2495
 1291TIP3    H125288   6.686   1.490  15.105 -0.0357 -0.8484  1.6433
 1291TIP3    H225289   6.733   1.445  14.969  0.6515  2.3031  0.8106
 1292TIP3   OH225290   5.197   5.324   3.675 -0.1487 -0.5737 -0.2702
 1292TIP3    H125291   5.157   5.382   3.610  1.2443  0.3029 -0.3817
 1292TIP3    H225292   5.135   5.321   3.747 -0.4003  0.7979 -0.4224
 1293TIP3   OH225293   0.364   1.987   4.501  0.0722  0.2989  0.1154
 1293TIP3    H125294   0.404   2.060   4.454  0.3378 -0.9867 -1.7057
 1293TIP3    H225295   0.438   1.943   4.544  0.0470  0.4816  0.3470
 1294TIP3   OH225296   6.413   3.056  16.311 -0.0591  0.4416  0.4731
 1294TIP3    H125297   6.397   2.970  16.352 -0.1753  0.4749  0.4967
 1294TIP3    H225298   6.452   3.035  16.226  1.2449  0.3949  1.0715
 1295TIP3   OH225299   1.278   1.955  16.728 -0.1001 -0.1633  0.0951
 1295TIP3    H125300   1.246   2.010  16.799  1.3606 -2.0681  2.3133
 1295TIP3    H225301   1.368   1.986  16.713 -0.1852 -0.1922 -0.4925
 1296TIP3   OH225302   0.269   3.566  12.774  0.2278  0.5230  0.1795
 1296TIP3    H125303   0.236   3.570  12.685 -0.3514  2.1722  0.4427
 1296TIP3    H225304   0.191   3.559  12.829  0.6129 -1.2809  0.5374
 1297TIP3   OH225305   4.319   5.715  13.217  0.0523  0.3346  0.2625
 1297TIP3    H125306   4.304   5.763  13.299 -0.9048 -0.5246  0.6024
 1297TIP3    H225307   4.231   5.700  13.182  0.3450 -1.0535  0.0990
 1298TIP3   OH225308   4.934   5.263  11.506 -0.4111  0.0560 -0.3657
 1298TIP3    H125309   5.012   5.281  11.453  0.9335 -0.2655  1.4458
 1298TIP3    H225310   4.860   5.282  11.448  1.0142  0.6727 -2.0123
 1299TIP3   OH225311   5.368   2.855   6.001 -0.5030 -0.6222  0.4554
 1299TIP3    H125312   5.344   2.944   6.026 -0.7501 -0.4386 -0.4395
 1299TIP3    H225313   5.416   2.821   6.077 -0.4679  0.2429  0.8229
 1300TIP3   OH225314   6.027   2.407   5.766  0.1299 -0.9443 -0.7375
 1300TIP3    H125315   6.052   2.462   5.840 -0.4278 -1.0446 -0.4746
 1300TIP3    H225316   5.932   2.421   5.756  0.1573 -1.1092 -1.2815
 1301TIP3   OH225317   6.098   6.726   4.141  0.4752  0.0494  0.6064
 1301TIP3    H125318   6.189   6.696   4.146  0.7019  0.4198 -0.8806
 1301TIP3    H225319   6.045   6.647   4.154  1.0410 -0.6053 -0.9372
 1302TIP3   OH225320   4.149   1.042  15.111 -0.3313 -0.6715 -0.0304
 1302TIP3    H125321   4.177   0.992  15.035  1.6379  0.1518  0.1406
 1302TIP3    H225322   4.229   1.060  15.160 -1.2115  1.2485  0.7645
 1303TIP3   OH225323   4.709   5.830  15.732  0.0669  0.5023 -0.5655
 1303TIP3    H125324   4.781   5.784  15.776 -0.5049 -0.1498 -0.2913
 1303TIP3    H225325   4.720   5.808  15.639  0.5451  0.8526 -0.5893
 1304TIP3   OH225326   2.584   2.544   4.077 -0.6788  0.1319 -0.2567
 1304TIP3    H125327   2.528   2.505   4.009  0.0412  1.2514 -1.5238
 1304TIP3    H225328   2.669   2.556   4.034  0.2214 -0.5343  1.3233
 1305TIP3   OH225329   6.763   2.438   1.211  0.1529 -0.2766  0.0196
 1305TIP3    H125330   6.765   2.345   1.192 -1.4953 -0.6753  1.5384
 1305TIP3    H225331   6.833   2.451   1.275  1.2832 -0.2134 -1.2374
 1306TIP3   OH225332   0.673   1.755  11.055 -0.5207 -0.2968 -0.5458
 1306TIP3    H125333   0.712   1.842  11.040  1.0924 -1.2159 -1.8935
 1306TIP3    H225334   0.710   1.726  11.138 -1.9264  0.7458  0.4728
 1307TIP3   OH225335   5.908   5.835  10.532 -0.1547 -0.0578  0.0620
 1307TIP3    H125336   5.912   5.787  10.449 -0.7920 -1.3917  0.8044
 1307TIP3    H225337   5.973   5.905  10.521 -0.6055  0.1209 -1.7684
 1308TIP3   OH225338   0.541   3.242  13.482  0.2761 -0.1529  0.4208
 1308TIP3    H125339   0.628   3.214  13.510 -0.6439 -1.9999  1.5479
 1308TIP3    H225340   0.558   3.309  13.415  2.5775 -1.5255 -0.4461
 1309TIP3   OH225341   6.278   5.233   3.882 -0.1688 -0.0687  0.2151
 1309TIP3    H125342   6.260   5.153   3.932  0.9722  1.0892  2.5604
 1309TIP3    H225343   6.213   5.296   3.913 -0.4469  0.2042 -0.9096
 1310TIP3   OH225344   2.920   3.708  13.932  0.3030 -0.6602 -0.7709
 1310TIP3    H125345   3.008   3.747  13.934  0.1907 -0.2519 -2.7389
 1310TIP3    H225346   2.861   3.781  13.950  0.2509 -0.5251 -1.5011
 1311TIP3   OH225347   6.463   2.897   5.214  0.5793  0.6487 -0.4617
 1311TIP3    H125348   6.414   2.816   5.199  0.3652  1.3419 -3.7857
 1311TIP3    H225349   6.410   2.945   5.277  0.0057 -1.1781  0.5028
 1312TIP3   OH225350   3.683   2.008  17.064  0.1885  0.4359  0.8810
 1312TIP3    H125351   3.754   1.999  17.001  0.9695 -3.8351  2.2286
 1312TIP3    H225352   3.726   2.022  17.148 -0.6305 -0.4429  1.4499
 1313TIP3   OH225353   2.609   3.251  11.621 -0.1857 -0.0737  0.2395
 1313TIP3    H125354   2.527   3.250  11.670 -0.6902  1.4376 -0.5541
 1313TIP3    H225355   2.611   3.167  11.577 -0.5564 -0.7512  1.4858
 1314TIP3   OH225356   1.565   4.750  15.629  0.0052  0.2801 -0.5428
 1314TIP3    H125357   1.597   4.831  15.590 -0.7907  0.1168 -1.5425
 1314TIP3    H225358   1.622   4.681  15.594  0.2232  0.3107 -0.2553
 1315TIP3   OH225359   5.414   3.684   4.795 -0.3725  0.8742  0.1047
 1315TIP3    H125360   5.482   3.737   4.836 -0.9550  1.1177  0.7609
 1315TIP3    H225361   5.354   3.747   4.756  0.7188  0.6283 -2.0351
 1316TIP3   OH225362   1.989   5.244  16.810 -0.4289  0.2084 -0.0119
 1316TIP3    H125363   2.011   5.151  16.817  0.4085  0.4717  0.9759
 1316TIP3    H225364   1.907   5.252  16.859 -1.5029 -0.3474 -1.6990
 1317TIP3   OH225365   2.471   1.788   3.032 -0.2953  0.2888 -0.2345
 1317TIP3    H125366   2.450   1.722   3.098  1.0924 -1.2875 -1.3023
 1317TIP3    H225367   2.566   1.783   3.022 -0.6451 -0.9839 -3.7825
 1318TIP3   OH225368   4.646   4.301   4.623 -0.1513  0.3117  0.0610
 1318TIP3    H125369   4.688   4.230   4.671  0.5421 -1.2911 -2.7553
 1318TIP3    H225370   4.557   4.270   4.608 -0.4319  0.8969  0.5236
 1319TIP3   OH225371   2.616   0.474   0.158  0.1749  0.6619  0.6060
 1319TIP3    H125372   2.627   0.499   0.249  2.4884  2.2905 -0.0671
 1319TIP3    H225373   2.702   0.441   0.131 -0.4535  0.2418 -0.9732
 1320TIP3   OH225374   0.256   0.689   5.768 -0.4614  0.1340  0.0190
 1320TIP3    H125375   0.313   0.748   5.816  0.4052 -0.7690  0.1271
 1320TIP3    H225376   0.274   0.602   5.805 -0.4991 -0.4395 -1.2446
 1321TIP3   OH225377   3.979   5.654  13.665  0.1771 -0.7182  0.3598
 1321TIP3    H125378   3.922   5.689  13.733  0.8548 -0.0875  0.6184
 1321TIP3    H225379   4.043   5.724  13.649  0.6049 -1.2358 -0.2314
 1322TIP3   OH225380   2.281   2.127   3.596  0.7050 -0.4762 -0.1705
 1322TIP3    H125381   2.355   2.077   3.630  0.7056 -0.3823 -0.0345
 1322TIP3    H225382   2.204   2.087   3.637  0.7551  0.0421  0.4277
 1323TIP3   OH225383   5.748   0.622  15.761 -0.2971 -0.6911 -0.4703
 1323TIP3    H125384   5.829   0.643  15.806 -1.6914  1.6472  1.0497
 1323TIP3    H225385   5.703   0.560  15.818 -0.8479  0.1975  0.0679
 1324TIP3   OH225386   4.072   6.028   5.674 -0.6295 -0.3691  0.0625
 1324TIP3    H125387   4.000   6.028   5.737 -2.3791  0.1112 -1.8970
 1324TIP3    H225388   4.150   6.035   5.728 -2.1411  1.4260  2.1221
 1325TIP3   OH225389   1.253   0.638   0.829 -0.2626 -0.2101 -0.7516
 1325TIP3    H125390   1.318   0.632   0.899 -1.0784 -1.4045 -0.0630
 1325TIP3    H225391   1.265   0.558   0.779  0.4706  0.7561 -2.1347
 1326TIP3   OH225392   4.233   1.070  16.408 -0.0441 -0.2063  0.5227
 1326TIP3    H125393   4.150   1.115  16.394  0.5775  0.4379 -1.1084
 1326TIP3    H225394   4.273   1.115  16.482 -0.2087  0.8232 -0.0175
 1327TIP3   OH225395   2.880   4.397   1.053 -0.0214  0.8896  0.3380
 1327TIP3    H125396   2.899   4.471   0.996 -0.2689  2.1209  1.8503
 1327TIP3    H225397   2.963   4.348   1.058 -0.0349  0.6828 -1.1730
 1328TIP3   OH225398   6.332   2.658   4.223  0.3752  0.0234 -0.0222
 1328TIP3    H125399   6.292   2.699   4.299 -0.0828  2.3542 -1.4476
 1328TIP3    H225400   6.266   2.597   4.191  0.3854 -0.6160  1.1416
 1329TIP3   OH225401   2.492   1.136  12.771 -0.2954 -0.2549  0.1558
 1329TIP3    H125402   2.557   1.180  12.716  0.3894 -0.3392  0.8749
 1329TIP3    H225403   2.435   1.090  12.710 -1.8546  2.7019 -0.6859
 1330TIP3   OH225404   4.017   0.556   5.110  0.2775 -0.4492 -0.2125
 1330TIP3    H125405   4.051   0.629   5.058  1.2524  1.0739  2.4617
 1330TIP3    H225406   3.923   0.555   5.093  0.3062  1.2259 -0.5317
 1331TIP3   OH225407   2.329   6.348   3.258  0.2715 -0.2336 -0.5841
 1331TIP3    H125408   2.389   6.370   3.329 -0.5208 -0.0111  0.0303
 1331TIP3    H225409   2.315   6.430   3.212 -1.4537  0.2684  0.7565
 1332TIP3   OH225410   0.923   0.864   0.093  0.0173  0.2886  0.5847
 1332TIP3    H125411   0.967   0.887   0.174  0.6393 -0.0784  0.3577
 1332TIP3    H225412   0.963   0.921   0.026 -0.7683  0.8695  0.5998
 1333TIP3   OH225413   3.707   5.529  14.942  0.7195 -0.5696 -0.0994
 1333TIP3    H125414   3.780   5.467  14.946 -2.3000 -4.2115  0.6960
 1333TIP3    H225415   3.679   5.528  14.851  0.4220 -0.6192 -0.0062
 1334TIP3   OH225416   3.038   0.106   0.752 -0.0198  0.0802 -0.4106
 1334TIP3    H125417   2.944   0.093   0.737  0.0384 -1.4866  0.4682
 1334TIP3    H225418   3.069   0.021   0.784  1.7195  0.5578 -0.7730
 1335TIP3   OH225419   3.003   3.838   6.588  0.8173  0.1137  0.5475
 1335TIP3    H125420   2.959   3.768   6.541  0.7408  1.1505 -0.9529
 1335TIP3    H225421   2.936   3.872   6.648 -0.1710  1.0958 -1.0866
 1336TIP3   OH225422   6.624   1.523   3.764  0.0635  0.3803  0.2453
 1336TIP3    H125423   6.684   1.453   3.737  0.7926  1.0901  0.0282
 1336TIP3    H225424   6.670   1.568   3.835  0.3726  1.7492 -0.7956
 1337TIP3   OH225425   0.290   1.436  16.738  0.5437 -0.1573 -0.5402
 1337TIP3    H125426   0.208   1.390  16.720 -1.7103  3.3296  0.2296
 1337TIP3    H225427   0.316   1.405  16.825 -1.2006  0.3238  0.1796
 1338TIP3   OH225428   3.363   1.312   1.466 -0.3323 -0.2711 -0.6934
 1338TIP3    H125429   3.270   1.287   1.462 -1.1009  2.2028  0.5112
 1338TIP3    H225430   3.385   1.307   1.559  0.2701  0.7109 -0.7713
 1339TIP3   OH225431   4.895   3.172  13.392  0.1200  0.3850  0.6638
 1339TIP3    H125432   4.895   3.223  13.311  1.2826 -1.4929 -0.5679
 1339TIP3    H225433   4.829   3.213  13.447 -0.5084  1.8425 -1.1554
 1340TIP3   OH225434   1.537   5.265   5.267 -0.2124  0.0166 -0.5731
 1340TIP3    H125435   1.601   5.317   5.218  0.3868 -0.7700 -0.6289
 1340TIP3    H225436   1.482   5.330   5.311  0.3886  0.7012 -0.8253
 1341TIP3   OH225437   4.830   2.841   4.120 -0.1679  0.2514 -0.0409
 1341TIP3    H125438   4.856   2.755   4.154  0.5269 -0.2545 -1.8000
 1341TIP3    H225439   4.772   2.876   4.187 -0.7400 -1.7413  0.5442
 1342TIP3   OH225440   6.310   0.646   1.050  0.0800  0.4931  0.1754
 1342TIP3    H125441   6.360   0.599   0.983  0.5973  0.6324  0.4612
 1342TIP3    H225442   6.218   0.630   1.027  0.2184 -1.5208  0.8508
 1343TIP3   OH225443   1.031   2.523  15.320 -0.1044 -0.2809  0.4617
 1343TIP3    H125444   1.065   2.602  15.278 -2.6572  1.8175  2.2092
 1343TIP3    H225445   0.965   2.490  15.258  1.1706 -1.2708 -0.4067
 1344TIP3   OH225446   3.945   4.179   0.692  0.3151 -0.2485  0.7017
 1344TIP3    H125447   4.024   4.187   0.639  0.2497 -1.8710  0.3271
 1344TIP3    H225448   3.880   4.233   0.648  0.3285 -1.4023 -0.7669
 1345TIP3   OH225449   6.291   2.432  11.686 -0.6022  0.3131 -0.6094
 1345TIP3    H125450   6.371   2.414  11.638  0.1703 -1.0868  1.1489
 1345TIP3    H225451   6.235   2.356  11.669  0.5556 -1.3173  2.4380
 1346TIP3   OH225452   3.875   2.970   6.926 -0.2592  0.0166 -0.6847
 1346TIP3    H125453   3.913   3.057   6.920  1.6256 -0.7435 -0.1396
 1346TIP3    H225454   3.932   2.915   6.872  0.1089 -1.3755  1.0833
 1347TIP3   OH225455   2.316   2.846   3.204 -0.5736 -0.3435 -0.3098
 1347TIP3    H125456   2.254   2.842   3.131  0.5947 -0.1514 -1.3332
 1347TIP3    H225457   2.294   2.928   3.249 -1.0545 -0.2697 -0.6689
 1348TIP3   OH225458   4.048   3.477  11.396  0.0160 -0.5821  0.3269
 1348TIP3    H125459   4.020   3.413  11.331  0.1070  0.6403 -0.9495
 1348TIP3    H225460   3.979   3.475  11.463 -0.4411 -1.3486 -0.1620
 1349TIP3   OH225461   6.778   3.756  12.621  0.3363  0.5547 -0.1913
 1349TIP3    H125462   6.859   3.721  12.584  1.7900  1.1747  2.3146
 1349TIP3    H225463   6.772   3.845  12.585  1.2447  0.8227  0.2968
 1350TIP3   OH225464   0.604   0.960   3.155  0.5611  0.2453 -0.3432
 1350TIP3    H125465   0.697   0.969   3.133  0.9871 -0.5164  1.0475
 1350TIP3    H225466   0.573   1.050   3.165  1.2598  0.4952 -0.3867
 1351TIP3   OH225467   6.421   6.403  12.182 -0.0574  0.3666  0.5661
 1351TIP3    H125468   6.424   6.344  12.106  0.7861  0.2555  0.6804
 1351TIP3    H225469   6.459   6.485  12.150 -2.0274  1.1625  0.1560
 1352TIP3   OH225470   1.079   4.688   4.319  0.3659  0.4500  0.4918
 1352TIP3    H125471   1.136   4.701   4.395  1.9323  1.8414 -0.8792
 1352TIP3    H225472   1.006   4.748   4.334  1.8999  2.5685 -0.2464
 1353TIP3   OH225473   6.374   5.661   5.302 -0.0603 -0.7250  0.4824
 1353TIP3    H125474   6.377   5.621   5.215 -1.7453 -1.2030  0.6330
 1353TIP3    H225475   6.326   5.598   5.356  2.3725 -1.2182  2.2006
 1354TIP3   OH225476   5.684   2.943  11.705  0.3078  0.9206  0.2167
 1354TIP3    H125477   5.724   2.972  11.787 -1.7300 -0.9013  1.8896
 1354TIP3    H225478   5.613   3.005  11.689 -0.4868  0.1808  0.8381
 1355TIP3   OH225479   5.283   0.236   1.256 -0.1803 -0.1023 -0.1847
 1355TIP3    H125480   5.223   0.268   1.323  1.0702 -0.0079  0.9023
 1355TIP3    H225481   5.264   0.142   1.251  0.5352 -0.3391  1.1743
 1356TIP3   OH225482   5.184   6.320   4.323 -0.2359  0.9131 -0.4278
 1356TIP3    H125483   5.248   6.302   4.392  0.3941  0.0147 -1.2499
 1356TIP3    H225484   5.106   6.271   4.349  0.4261 -0.4573 -1.0147
 1357TIP3   OH225485   0.127   0.727  16.736  0.0284 -0.2067 -0.3814
 1357TIP3    H125486   0.220   0.707  16.728  0.0954 -1.0952  2.1444
 1357TIP3    H225487   0.113   0.802  16.678  2.6738  0.9871  0.4555
 1358TIP3   OH225488   0.218   2.886   4.317 -0.6839  1.0402 -0.3476
 1358TIP3    H125489   0.302   2.877   4.271 -1.2196  2.0355 -1.5378
 1358TIP3    H225490   0.154   2.901   4.247 -1.9954 -0.5881  0.4845
 1359TIP3   OH225491   0.093   2.575   6.737  0.5396  0.4356  0.8996
 1359TIP3    H125492   0.089   2.616   6.650  1.6531 -0.5399  0.3554
 1359TIP3    H225493   0.170   2.615   6.778  0.4139  0.4039  1.1616
 1360TIP3   OH225494   4.614   0.453   5.728 -0.2546  0.5958  0.8197
 1360TIP3    H125495   4.651   0.451   5.816 -0.2089  0.2471  0.7946
 1360TIP3    H225496   4.647   0.373   5.686 -0.4985  0.6197  0.5785
 1361TIP3   OH225497   0.364   1.548  13.939 -0.1706 -0.1255 -0.4680
 1361TIP3    H125498   0.433   1.613  13.926  1.3023 -1.5550  0.0107
 1361TIP3    H225499   0.291   1.579  13.886  1.4628  0.4719 -2.4188
 1362TIP3   OH225500   1.130   0.031   5.165  0.0759 -0.7753  0.5823
 1362TIP3    H125501   1.087  -0.045   5.203 -2.0542 -0.0127 -0.2120
 1362TIP3    H225502   1.222   0.006   5.159 -0.2992 -2.6113  1.9446
 1363TIP3   OH225503   0.808   2.430  12.347 -0.8868  0.0228 -0.1313
 1363TIP3    H125504   0.893   2.461  12.314 -0.4484  0.1375  1.0884
 1363TIP3    H225505   0.807   2.337  12.328  0.3297 -0.3555  1.5448
 1364TIP3   OH225506   5.458   0.326   2.694  0.3444 -0.3132  0.1123
 1364TIP3    H125507   5.451   0.310   2.600 -0.9127  0.8230 -0.0072
 1364TIP3    H225508   5.369   0.315   2.727  0.2034  2.1415  0.6880
 1365TIP3   OH225509   1.491   2.705  12.347 -0.1795 -0.1811 -0.0853
 1365TIP3    H125510   1.545   2.781  12.322 -0.6971  0.7234  1.5052
 1365TIP3    H225511   1.450   2.730  12.429  0.9895 -2.8794  1.3786
 1366TIP3   OH225512   4.130   1.215  12.156 -0.1671  0.1655  0.6915
 1366TIP3    H125513   4.116   1.296  12.206  0.2852  0.3960  0.4446
 1366TIP3    H225514   4.172   1.155  12.219  0.5466  0.5084  0.5449
 1367TIP3   OH225515   2.417   4.759  16.836 -0.3053  0.3094 -0.0611
 1367TIP3    H125516   2.430   4.854  16.834 -0.6027  0.3987  1.6352
 1367TIP3    H225517   2.338   4.744  16.784  0.1195  0.9053 -0.9006
 1368TIP3   OH225518   3.385   6.322  13.949 -0.5640 -0.3205 -0.0741
 1368TIP3    H125519   3.455   6.353  13.891 -0.7340  0.0869 -0.0628
 1368TIP3    H225520   3.335   6.400  13.970  0.3176 -0.2189  1.7457
 1369TIP3   OH225521   2.089   4.102  13.062  0.1665 -0.0452  0.1430
 1369TIP3    H125522   2.153   4.170  13.081  0.1056 -0.5560  2.4070
 1369TIP3    H225523   2.022   4.112  13.130  1.2435 -3.6359  1.8733
 1370TIP3   OH225524   2.717   1.683  13.945 -0.4292 -0.1475 -0.0943
 1370TIP3    H125525   2.690   1.756  14.002 -1.6652 -2.4087  2.3293
 1370TIP3    H225526   2.753   1.618  14.005  1.1395 -1.3370 -2.2766
 1371TIP3   OH225527   2.056   5.413   6.543 -0.2070  0.0262 -0.6259
 1371TIP3    H125528   2.150   5.419   6.563 -0.3942 -1.7107  0.8795
 1371TIP3    H225529   2.014   5.470   6.606 -0.4045 -1.7172  0.8550
 1372TIP3   OH225530   1.179   5.275   2.618 -0.1808 -0.3216 -0.1365
 1372TIP3    H125531   1.256   5.271   2.674  0.4804 -1.0106 -1.0822
 1372TIP3    H225532   1.122   5.339   2.660  0.3850 -0.6873  1.2155
 1373TIP3   OH225533   6.078   2.222   3.091 -0.5047 -0.6414  0.5317
 1373TIP3    H125534   5.989   2.227   3.058 -0.0662  0.0609 -0.5684
 1373TIP3    H225535   6.123   2.161   3.032  0.7263  1.9176 -1.2651
 1374TIP3   OH225536   0.688   2.032   0.251  0.7597 -0.4952  0.8280
 1374TIP3    H125537   0.781   2.021   0.270  0.6650 -2.4724  0.2500
 1374TIP3    H225538   0.650   2.058   0.335  2.0059  1.5258  0.7935
 1375TIP3   OH225539   1.528   5.270   0.837 -0.0656 -0.2845  0.0919
 1375TIP3    H125540   1.483   5.196   0.878 -0.6091 -0.6007 -1.0294
 1375TIP3    H225541   1.459   5.313   0.785  0.2109  1.1128  0.8811
 1376TIP3   OH225542   2.882   4.807  15.290 -0.4436  0.5737  0.4967
 1376TIP3    H125543   2.819   4.851  15.233 -0.1682 -0.6848 -0.8184
 1376TIP3    H225544   2.847   4.819  15.378 -1.5549  1.4760 -0.0550
 1377TIP3   OH225545   2.669   6.754   1.506 -0.4418  0.5449 -0.5898
 1377TIP3    H125546   2.582   6.720   1.485  0.6395 -1.8565 -1.2956
 1377TIP3    H225547   2.662   6.786   1.596 -1.6394 -1.0711 -0.1003
 1378TIP3   OH225548   5.277   0.781  16.801  0.9264 -0.4371  0.0455
 1378TIP3    H125549   5.190   0.819  16.798  1.5784  0.9588 -1.9790
 1378TIP3    H225550   5.311   0.791  16.712  3.4069 -0.3318  0.9684
 1379TIP3   OH225551   2.431   3.841  15.848 -0.2066 -0.3984 -0.2886
 1379TIP3    H125552   2.414   3.841  15.754 -2.0485  1.0553  0.0096
 1379TIP3    H225553   2.411   3.751  15.876  2.5205 -1.4696 -1.6063
 1380TIP3   OH225554   3.134   2.865   4.612 -0.3913  0.2214 -0.2754
 1380TIP3    H125555   3.146   2.828   4.525 -0.1418  0.7605 -0.4708
 1380TIP3    H225556   3.105   2.791   4.666 -0.1018 -0.2118 -0.7103
 1381TIP3   OH225557   3.563   5.911  14.862 -0.1529 -0.0647  0.0107
 1381TIP3    H125558   3.600   5.994  14.891  0.2800 -0.6553  1.1582
 1381TIP3    H225559   3.496   5.891  14.927 -0.0548 -0.7632 -0.1069
 1382TIP3   OH225560   1.626   1.735  11.204  0.2982 -0.4948 -0.0102
 1382TIP3    H125561   1.613   1.771  11.292  1.0355 -0.9943  0.3133
 1382TIP3    H225562   1.607   1.808  11.145 -1.0254 -0.3921  0.5344
 1383TIP3   OH225563   2.880   1.680   3.916  0.0198  0.1779  0.0246
 1383TIP3    H125564   2.941   1.657   3.986  1.2606  0.5209 -0.9425
 1383TIP3    H225565   2.835   1.599   3.895  1.4721 -0.4894 -0.5446
 1384TIP3   OH225566   3.646   5.150  11.650  0.0986 -0.0812 -0.0764
 1384TIP3    H125567   3.702   5.145  11.573  0.3848  0.1712  0.1117
 1384TIP3    H225568   3.690   5.095  11.715  1.4024  1.9481  0.8446
 1385TIP3   OH225569   6.289   4.019   6.371  0.4003  0.1539 -0.0023
 1385TIP3    H125570   6.215   4.033   6.430 -0.2490 -0.6352 -0.6160
 1385TIP3    H225571   6.270   4.073   6.295 -0.5264 -1.5270 -0.9964
 1386TIP3   OH225572   4.026   5.379   1.505  0.5879 -0.2852 -0.5026
 1386TIP3    H125573   4.033   5.426   1.422 -1.0086  2.8286  1.0206
 1386TIP3    H225574   3.936   5.344   1.505  1.0789 -1.5830 -0.7083
 1387TIP3   OH225575   2.764   6.575   3.645 -0.3028  0.6004  0.1778
 1387TIP3    H125576   2.681   6.534   3.623  0.9116 -1.1953 -1.1950
 1387TIP3    H225577   2.822   6.552   3.572  1.3009  2.1209  0.9386
 1388TIP3   OH225578   4.352   2.738   3.722 -0.2427 -0.0967  0.0984
 1388TIP3    H125579   4.311   2.690   3.651 -0.0961 -1.8631  1.1807
 1388TIP3    H225580   4.280   2.757   3.783  0.0867 -0.9618  0.7693
 1389TIP3   OH225581   3.930   5.028  13.827  0.0313  0.0731 -0.1609
 1389TIP3    H125582   3.856   4.999  13.881 -0.3895  0.3399 -0.5952
 1389TIP3    H225583   4.007   4.996  13.874 -0.3473 -0.0024  0.4172
 1390TIP3   OH225584   4.686   5.798  13.525 -0.1036 -0.3762  0.2217
 1390TIP3    H125585   4.750   5.783  13.594 -1.1403  0.9245  1.4774
 1390TIP3    H225586   4.608   5.750  13.554  0.0565 -1.3920 -0.9740
 1391TIP3   OH225587   6.434   3.985   4.145 -1.1581 -0.1513 -0.0510
 1391TIP3    H125588   6.408   4.076   4.139 -0.8049  0.0021  0.6869
 1391TIP3    H225589   6.369   3.945   4.203 -0.6040 -0.0900  0.6221
 1392TIP3   OH225590   0.427   4.573   0.184 -0.2288  0.1320 -0.0769
 1392TIP3    H125591   0.519   4.598   0.182 -0.6356  1.7411  1.1056
 1392TIP3    H225592   0.401   4.583   0.276 -1.3474 -1.2132 -0.2250
 1393TIP3   OH225593   5.883   3.114  16.308 -0.6454 -0.1031  0.4377
 1393TIP3    H125594   5.877   3.151  16.221 -0.5493 -0.2146  0.3836
 1393TIP3    H225595   5.970   3.075  16.312 -0.4821  0.2896  0.7380
 1394TIP3   OH225596   5.937   5.859   5.402  0.1142 -0.1516 -0.3595
 1394TIP3    H125597   5.989   5.794   5.356 -0.3861  0.2650 -1.5438
 1394TIP3    H225598   5.924   5.823   5.490 -1.1662 -2.2303 -1.3569
 1395TIP3   OH225599   0.219   4.529   3.163 -0.3058  0.5731  0.1776
 1395TIP3    H125600   0.147   4.476   3.128 -1.5032  1.6812  0.8950
 1395TIP3    H225601   0.298   4.487   3.131 -1.2909 -0.4513 -0.9537
 1396TIP3   OH225602   2.941   6.741   1.405  0.0920 -0.1731  0.8408
 1396TIP3    H125603   2.931   6.653   1.367  0.5156  0.5052 -0.8752
 1396TIP3    H225604   2.855   6.761   1.442 -0.5584 -0.5458 -0.4462
 1397TIP3   OH225605   5.686   4.200  14.527  0.4212 -0.2033  0.1423
 1397TIP3    H125606   5.704   4.181  14.619 -0.8713  0.6967  0.6031
 1397TIP3    H225607   5.772   4.201  14.485  0.9561 -1.3685  1.1895
 1398TIP3   OH225608   1.245   2.432   4.997  0.7990  0.4300 -0.3258
 1398TIP3    H125609   1.213   2.366   5.059  2.0213 -1.0914 -1.2903
 1398TIP3    H225610   1.215   2.515   5.034  0.9456 -0.4893  1.9704
 1399TIP3   OH225611   5.710   6.175   4.504 -0.2432 -0.1735  0.0461
 1399TIP3    H125612   5.712   6.247   4.441  0.0752  0.7660  1.1237
 1399TIP3    H225613   5.763   6.106   4.462 -2.0691 -0.5167 -1.8062
 1400TIP3   OH225614   3.990   1.128   2.555 -0.1973  0.5805  0.5991
 1400TIP3    H125615   3.905   1.172   2.557  0.1551  1.2714  2.9225
 1400TIP3    H225616   4.038   1.167   2.628  0.4907 -2.9910  2.1621
 1401TIP3   OH225617   2.808   3.256  12.777 -0.0032 -0.0883  0.1854
 1401TIP3    H125618   2.740   3.193  12.803  2.7848 -2.8039  1.2625
 1401TIP3    H225619   2.869   3.205  12.725  1.6978  2.0740 -0.0030
 1402TIP3   OH225620   2.979   1.008  14.608 -0.0002  0.1666 -0.7934
 1402TIP3    H125621   2.992   0.913  14.609 -0.6671  0.0652  1.1470
 1402TIP3    H225622   2.907   1.022  14.546  0.2991 -0.5495 -1.3140
 1403TIP3   OH225623   2.541   5.593   3.513  0.6086 -0.1620 -0.0137
 1403TIP3    H125624   2.464   5.578   3.458  1.1882  0.8388 -1.1477
 1403TIP3    H225625   2.529   5.682   3.547  1.2818  0.0246 -0.2566
 1404TIP3   OH225626   4.478   5.161  15.564  0.2339  0.3746  0.8130
 1404TIP3    H125627   4.446   5.217  15.634 -0.0099  1.3359 -0.0548
 1404TIP3    H225628   4.400   5.119  15.528  0.4276 -0.6538  1.5492
 1405TIP3   OH225629   1.619   2.848  11.918  0.2460  0.9277  0.2313
 1405TIP3    H125630   1.700   2.825  11.872  0.7404  0.7028  1.2005
 1405TIP3    H225631   1.563   2.771  11.907  0.1397  1.1011 -0.4795
 1406TIP3   OH225632   4.380   2.171  12.409  0.4352  0.1692  0.1318
 1406TIP3    H125633   4.323   2.136  12.341  0.1244 -0.8319  0.8968
 1406TIP3    H225634   4.461   2.120  12.403  1.1696  1.4247 -0.7877
 1407TIP3   OH225635   5.989   3.567  17.177 -0.3307 -0.2756  0.0403
 1407TIP3    H125636   6.026   3.479  17.185  0.0389 -0.0484  1.0274
 1407TIP3    H225637   6.010   3.608  17.261 -0.4692  0.7641 -0.4325
 1408TIP3   OH225638   0.097   2.121   4.383  0.1341  0.3512 -0.9853
 1408TIP3    H125639   0.168   2.057   4.378 -1.7912 -2.0491  0.6618
 1408TIP3    H225640   0.047   2.107   4.303 -0.8214 -0.9243 -0.1864
 1409TIP3   OH225641   0.153   4.534  16.315 -0.8005  0.0335  0.5768
 1409TIP3    H125642   0.139   4.568  16.404  0.0638 -0.2102  0.8060
 1409TIP3    H225643   0.152   4.612  16.260  0.2996  0.3542  0.9993
 1410TIP3   OH225644   2.783   1.637   0.060  0.0612  0.7938 -0.4168
 1410TIP3    H125645   2.700   1.597   0.087  0.6202  0.2188  0.4853
 1410TIP3    H225646   2.809   1.690   0.135  0.7356  0.6171 -0.5242
 1411TIP3   OH225647   6.636   4.724  15.338  0.0141 -0.1125 -0.6878
 1411TIP3    H125648   6.549   4.759  15.317  0.1253 -1.1477 -3.0604
 1411TIP3    H225649   6.691   4.802  15.346 -0.4166  0.4395 -2.7082
 1412TIP3   OH225650   6.034   6.668   1.347 -0.2167 -0.0642 -0.0650
 1412TIP3    H125651   6.123   6.675   1.314 -0.7964 -1.1044 -1.8822
 1412TIP3    H225652   6.008   6.759   1.364  0.0898  0.5036 -2.5223
 1413TIP3   OH225653   3.378   3.713  14.692 -0.0250 -0.1868  0.0246
 1413TIP3    H125654   3.375   3.781  14.759 -0.0852 -1.1787  1.0306
 1413TIP3    H225655   3.405   3.634  14.738  1.0039 -0.6390 -1.3201
 1414TIP3   OH225656   4.977   1.905   4.019  0.2907  0.5434  0.0563
 1414TIP3    H125657   4.998   1.977   3.960  1.5768  1.9981  2.2392
 1414TIP3    H225658   5.058   1.854   4.024 -0.5255 -0.9171 -1.2560
 1415TIP3   OH225659   0.297   2.523   2.425  0.3269 -0.0244 -0.2202
 1415TIP3    H125660   0.204   2.537   2.441  0.5479  0.5351  0.6202
 1415TIP3    H225661   0.303   2.433   2.392 -0.6494  0.3837 -1.5453
 1416TIP3   OH225662   6.642   1.174   5.273 -0.0499  0.3779 -0.4348
 1416TIP3    H125663   6.645   1.269   5.265  0.7081  0.4637  0.8626
 1416TIP3    H225664   6.636   1.157   5.367 -0.4673 -0.8510 -0.6723
 1417TIP3   OH225665   4.629   6.140  12.818  0.3349  0.7861 -0.3920
 1417TIP3    H125666   4.613   6.205  12.887  0.2116  0.1876  0.1509
 1417TIP3    H225667   4.687   6.184  12.756 -0.9067  1.9254 -0.7850
 1418TIP3   OH225668   4.419   1.539   5.865 -0.1067  0.2749  0.7450
 1418TIP3    H125669   4.489   1.569   5.924 -0.6350 -0.6466  1.8595
 1418TIP3    H225670   4.435   1.586   5.783  1.4752  0.5111  1.1744
 1419TIP3   OH225671   2.364   3.502  13.586 -0.0847 -0.0823 -0.5663
 1419TIP3    H125672   2.432   3.435  13.586 -0.4518 -0.4683 -1.9636
 1419TIP3    H225673   2.284   3.456  13.609 -0.1203  0.1348 -0.2358
 1420TIP3   OH225674   6.563   3.725   4.668 -0.3199 -0.5277  0.2299
 1420TIP3    H125675   6.570   3.816   4.696  0.8815 -0.3501 -0.6258
 1420TIP3    H225676   6.469   3.705   4.673 -0.4145  0.2932  1.8396
 1421TIP3   OH225677   3.953   2.586   1.215  0.1673 -0.4776  0.4493
 1421TIP3    H125678   3.957   2.514   1.278 -0.6831 -1.0911 -0.1860
 1421TIP3    H225679   3.965   2.664   1.268 -0.3803 -0.9964  1.3677
 1422TIP3   OH225680   6.033   2.174   1.763 -0.6093  0.3352  0.3004
 1422TIP3    H125681   6.097   2.165   1.833 -1.4146  1.4975  1.2085
 1422TIP3    H225682   5.956   2.126   1.794 -0.1541 -1.1223 -0.8174
 1423TIP3   OH225683   1.501   4.712   1.963  0.2956 -0.3521 -0.0055
 1423TIP3    H125684   1.558   4.744   1.893 -0.1818  1.1517  0.2669
 1423TIP3    H225685   1.433   4.662   1.917 -0.5007  1.3354 -0.7236
 1424TIP3   OH225686   1.540   6.242   1.291 -0.7277 -0.1302 -0.0979
 1424TIP3    H125687   1.491   6.203   1.364  0.0368  0.1045  0.5487
 1424TIP3    H225688   1.516   6.189   1.215 -1.8017 -0.1647  0.2582
 1425TIP3   OH225689   5.516   4.552  11.852 -0.0984 -0.0219 -0.2193
 1425TIP3    H125690   5.433   4.539  11.806  0.0138  2.0696 -1.0682
 1425TIP3    H225691   5.519   4.646  11.870  1.2488 -0.3588  1.4219
 1426TIP3   OH225692   6.756   3.275   3.797  0.0159 -1.0856 -0.4721
 1426TIP3    H125693   6.702   3.347   3.765  2.1526  0.4174 -0.8030
 1426TIP3    H225694   6.729   3.200   3.745 -3.5014 -0.9945  1.0987
 1427TIP3   OH225695   0.554   3.410   1.642  0.5856 -0.1130  0.0752
 1427TIP3    H125696   0.603   3.427   1.722  1.1563  0.8204 -0.4569
 1427TIP3    H225697   0.556   3.315   1.632 -0.2700 -0.2946  1.6431
 1428TIP3   OH225698   0.566   3.121   2.765 -0.3318  0.2185 -0.0251
 1428TIP3    H125699   0.555   3.037   2.808  0.7810 -0.1085 -0.3563
 1428TIP3    H225700   0.505   3.118   2.691 -1.6945  0.4856  1.0572
 1429TIP3   OH225701   4.544   0.222  14.553 -0.1180 -0.5452 -0.2850
 1429TIP3    H125702   4.532   0.311  14.519  1.2304  0.0229  0.6767
 1429TIP3    H225703   4.495   0.221  14.635 -0.9737 -1.0082 -0.8026
 1430TIP3   OH225704   6.380   2.232   5.549  0.0593 -0.4685  0.2156
 1430TIP3    H125705   6.455   2.219   5.490  0.1061 -2.0048  0.5813
 1430TIP3    H225706   6.418   2.269   5.628  0.2502 -0.0482 -0.0697
 1431TIP3   OH225707   0.003   2.989  16.710  0.0607 -0.0139  0.0567
 1431TIP3    H125708   0.065   2.976  16.782 -0.0008  1.5691  0.4310
 1431TIP3    H225709   0.041   2.942  16.636  1.7118  0.9248  0.2938
 1432TIP3   OH225710   2.179   2.027  13.433  0.3284  0.6372 -0.3886
 1432TIP3    H125711   2.219   1.982  13.358  0.9790  0.2920  0.1602
 1432TIP3    H225712   2.185   1.964  13.504  0.3691  1.2388  0.1418
 1433TIP3   OH225713   4.568   6.392   1.046  0.2737 -0.1245 -0.7711
 1433TIP3    H125714   4.621   6.458   1.001  0.1058  1.6308  1.4926
 1433TIP3    H225715   4.632   6.338   1.092  0.2483  0.7374  0.3086
 1434TIP3   OH225716   6.066   3.157   3.741  0.3512  0.7321 -0.5593
 1434TIP3    H125717   6.088   3.129   3.830 -0.2081 -1.5479 -1.0897
 1434TIP3    H225718   6.095   3.248   3.736  0.7874  0.7543  1.8083
 1435TIP3   OH225719   3.083   4.237  11.525 -0.2541  0.0831  0.3913
 1435TIP3    H125720   3.051   4.248  11.615  1.6614  2.9922  0.7790
 1435TIP3    H225721   3.061   4.319  11.482  1.5737 -0.0868 -0.9263
 1436TIP3   OH225722   5.425   1.488   4.871  0.7447 -0.5781  0.6716
 1436TIP3    H125723   5.511   1.500   4.909  0.8255  1.1384 -0.0251
 1436TIP3    H225724   5.371   1.558   4.909 -0.0918 -1.0407  0.3651
 1437TIP3   OH225725   5.525   1.997   5.501  0.0727  0.7035  0.1674
 1437TIP3    H125726   5.479   1.977   5.583  2.0796 -2.1026  0.6953
 1437TIP3    H225727   5.457   2.033   5.444 -1.9925  0.0143  2.0908
 1438TIP3   OH225728   6.486   3.829   2.915  0.0329 -0.1135 -0.0900
 1438TIP3    H125729   6.575   3.863   2.927  0.1496 -0.0031 -1.2315
 1438TIP3    H225730   6.434   3.874   2.982  0.8588 -0.2850  0.6761
 1439TIP3   OH225731   0.536   2.401  14.633  0.4093 -0.3147  0.3126
 1439TIP3    H125732   0.631   2.397  14.621  0.3968  0.9911 -0.2726
 1439TIP3    H225733   0.501   2.354  14.558  0.5083  2.6205 -1.6609
 1440TIP3   OH225734   5.070   1.735   0.979  0.5437 -0.0009  0.6258
 1440TIP3    H125735   5.073   1.812   0.923  1.9650 -0.5971 -0.1363
 1440TIP3    H225736   4.978   1.726   1.004  0.0127  0.6448 -1.0917
 1441TIP3   OH225737   2.140   5.437  13.355  0.0929  0.0106  0.2796
 1441TIP3    H125738   2.104   5.504  13.297 -1.5286 -0.3692  0.8040
 1441TIP3    H225739   2.170   5.368  13.297 -0.2675  0.2316 -0.1701
 1442TIP3   OH225740   0.805   3.350  13.656  0.4154  0.2126 -0.1361
 1442TIP3    H125741   0.759   3.394  13.727  0.5413 -0.8032  0.5788
 1442TIP3    H225742   0.846   3.273  13.697 -1.8119 -1.9330 -1.8074
 1443TIP3   OH225743   5.914   6.303   5.020 -0.1345  0.1466 -0.8592
 1443TIP3    H125744   5.954   6.307   4.933  0.2296 -0.1003 -0.7051
 1443TIP3    H225745   5.937   6.216   5.052 -1.4771 -0.2935 -1.0905
 1444TIP3   OH225746   3.623   1.170   2.346 -0.0807 -0.6842 -0.0547
 1444TIP3    H125747   3.698   1.210   2.302 -1.6793  2.2015 -0.2331
 1444TIP3    H225748   3.552   1.176   2.282 -1.5188  0.3190  1.6135
 1445TIP3   OH225749   4.695   1.498   5.781 -0.1132  0.3658 -0.2553
 1445TIP3    H125750   4.675   1.445   5.703 -0.6771 -1.6237  1.1848
 1445TIP3    H225751   4.741   1.574   5.747 -2.4394  0.7286 -2.7919
 1446TIP3   OH225752   4.953   1.829   2.213  0.3677  0.0558  0.0074
 1446TIP3    H125753   4.879   1.889   2.220  0.2209 -0.0788 -0.3680
 1446TIP3    H225754   4.939   1.766   2.285  0.9578  0.9330  0.9031
 1447TIP3   OH225755   0.551   1.856   3.774 -0.6734  0.0155  0.2299
 1447TIP3    H125756   0.588   1.790   3.832  2.1650  1.5187  0.2116
 1447TIP3    H225757   0.561   1.819   3.686  0.4420  0.2341  0.2594
 1448TIP3   OH225758   4.748   4.088  13.403 -0.3205  0.0240  0.1224
 1448TIP3    H125759   4.660   4.076  13.368 -0.5786  0.4850  0.6025
 1448TIP3    H225760   4.803   4.100  13.325 -0.5201 -1.2415 -0.2158
 1449TIP3   OH225761   5.203   4.349   6.443 -0.7649  0.3201 -0.4852
 1449TIP3    H125762   5.230   4.387   6.360 -0.9157 -0.3029 -0.8270
 1449TIP3    H225763   5.256   4.270   6.451 -1.5043 -0.1846 -0.5045
 1450TIP3   OH225764   5.222   3.804  13.590 -0.2848 -0.1594 -0.1286
 1450TIP3    H125765   5.225   3.796  13.685  0.5574 -1.2764 -0.2345
 1450TIP3    H225766   5.217   3.898  13.574 -0.0079  0.0562  1.0101
 1451TIP3   OH225767   6.524   0.272  16.190 -0.1407  0.6312 -0.2523
 1451TIP3    H125768   6.455   0.313  16.138 -0.4497 -0.5425 -0.7814
 1451TIP3    H225769   6.576   0.224  16.126 -0.5533 -0.8688  0.5355
 1452TIP3   OH225770   2.403   0.601  12.789  0.3163 -0.5400 -0.1612
 1452TIP3    H125771   2.369   0.572  12.873 -1.4188  0.0661 -0.6446
 1452TIP3    H225772   2.368   0.537  12.726 -2.8863  2.0347 -1.1291
 1453TIP3   OH225773   1.288   2.590   1.039  0.3847  0.0446  0.2264
 1453TIP3    H125774   1.366   2.596   1.094  1.9834  1.0717 -2.0452
 1453TIP3    H225775   1.228   2.656   1.074  0.9805 -0.0088  1.3429
 1454TIP3   OH225776   2.633   3.854  12.841  0.1459  0.2008  0.5476
 1454TIP3    H125777   2.703   3.818  12.787  0.4421 -0.8198  1.5928
 1454TIP3    H225778   2.673   3.869  12.926 -0.5553  0.9024  0.7632
 1455TIP3   OH225779   2.073   4.465   3.840 -0.1129 -0.1023 -0.1079
 1455TIP3    H125780   2.031   4.495   3.759 -0.6832  0.0703  0.2507
 1455TIP3    H225781   2.073   4.370   3.833  0.8519 -0.0605 -0.8193
 1456TIP3   OH225782   1.095   2.934  15.463 -0.0408 -0.0518 -0.1039
 1456TIP3    H125783   1.165   2.868  15.467 -0.1800 -0.1325  1.3938
 1456TIP3    H225784   1.095   2.974  15.551 -0.6992  1.1736 -0.6439
 1457TIP3   OH225785   4.306   5.443   2.189  0.0504 -0.0924 -0.5715
 1457TIP3    H125786   4.227   5.417   2.143 -0.1871  0.4537 -0.4723
 1457TIP3    H225787   4.280   5.448   2.281 -0.4982  2.6249 -0.8072
 1458TIP3   OH225788   2.235   2.408   1.050  0.6386 -0.0547 -0.1411
 1458TIP3    H125789   2.252   2.394   1.143  0.1670 -1.2245 -0.2178
 1458TIP3    H225790   2.156   2.356   1.032 -0.3533  1.6124 -0.7866
 1459TIP3   OH225791   6.585   3.043   2.994  0.3124 -0.2702 -0.5950
 1459TIP3    H125792   6.505   3.090   2.969  0.1300  0.0136  0.5014
 1459TIP3    H225793   6.647   3.112   3.019  1.1573 -0.4468 -2.1043
 1460TIP3   OH225794   2.950   6.006  14.635  0.1599  0.4594 -0.4778
 1460TIP3    H125795   2.910   5.920  14.629  1.2888 -0.1049  0.0440
 1460TIP3    H225796   2.892   6.063  14.584 -0.2483 -0.7169 -1.3508
 1461TIP3   OH225797   6.422   5.663   0.592 -0.1105  0.3783 -0.0580
 1461TIP3    H125798   6.415   5.624   0.505 -0.5684  0.1708  0.0687
 1461TIP3    H225799   6.515   5.681   0.603  0.0825 -0.5413 -0.1729
 1462TIP3   OH225800   4.698   1.735  12.203 -0.1759  0.3517 -0.0729
 1462TIP3    H125801   4.713   1.767  12.292 -1.5828 -1.9577  1.0407
 1462TIP3    H225802   4.605   1.750  12.187 -0.6270 -2.0661  0.0516
 1463TIP3   OH225803   4.771   1.147  14.585  0.1364 -0.4081 -0.0707
 1463TIP3    H125804   4.730   1.126  14.501  1.8909  1.1246 -1.3613
 1463TIP3    H225805   4.707   1.203  14.629 -1.6957 -2.9089  0.5659
 1464TIP3   OH225806   3.735   0.951  14.815  0.2592  0.6969 -0.1461
 1464TIP3    H125807   3.751   0.912  14.902  2.1621 -2.1753 -1.7087
 1464TIP3    H225808   3.810   0.922  14.762 -0.8877  2.3862 -2.7673
 1465TIP3   OH225809   3.419   3.332  14.484  0.7068 -0.2543 -0.6437
 1465TIP3    H125810   3.414   3.275  14.407 -0.3858  0.3031 -0.9936
 1465TIP3    H225811   3.335   3.378  14.485  0.2672 -1.0119  1.4788
 1466TIP3   OH225812   5.477   5.888  16.335  0.0100 -0.0053  0.0386
 1466TIP3    H125813   5.468   5.851  16.422  3.0281 -0.7696  0.0796
 1466TIP3    H225814   5.420   5.835  16.280 -2.3881  0.8773  1.6249
 1467TIP3   OH225815   1.299   0.109  16.169 -0.0104  0.1118  0.2342
 1467TIP3    H125816   1.291   0.101  16.265 -0.3811  1.6262  0.3405
 1467TIP3    H225817   1.225   0.058  16.135  2.2440 -3.5516  0.6153
 1468TIP3   OH225818   1.723   2.622  15.571  0.4233 -0.5272 -0.9498
 1468TIP3    H125819   1.801   2.574  15.601  1.1364  0.5742 -1.0252
 1468TIP3    H225820   1.758   2.700  15.528 -0.7067 -0.4815 -1.7971
 1469TIP3   OH225821   6.314   3.281  15.200  0.0527 -0.1215 -0.2346
 1469TIP3    H125822   6.345   3.268  15.110  1.2215 -0.8037  0.2584
 1469TIP3    H225823   6.382   3.335  15.241  1.2553 -2.6414  1.2086
 1470TIP3   OH225824   4.518   1.888   4.104 -0.5300 -0.1499 -0.1491
 1470TIP3    H125825   4.512   1.923   4.015  0.8744 -0.3488 -0.3311
 1470TIP3    H225826   4.552   1.800   4.093  0.4408  0.1180  0.6420
 1471TIP3   OH225827   2.606   1.956   5.155 -0.1692  0.8569  0.5496
 1471TIP3    H125828   2.598   1.981   5.063  2.1315  1.4710  0.4902
 1471TIP3    H225829   2.547   2.016   5.201  0.4396  2.1210 -0.2844
 1472TIP3   OH225830   4.650   6.744  13.739 -0.5372  0.1196  0.2218
 1472TIP3    H125831   4.639   6.751  13.834 -2.7227  1.3643 -0.0859
 1472TIP3    H225832   4.560   6.743  13.705  0.2310  2.5778 -1.9972
 1473TIP3   OH225833   2.733   1.183  11.047  0.0464  0.2504  0.5669
 1473TIP3    H125834   2.772   1.228  10.972  1.4923 -0.4779  0.8705
 1473TIP3    H225835   2.684   1.111  11.009  0.2412  0.2699  0.2808
 1474TIP3   OH225836   2.472   2.952  14.730  1.2740 -0.9951  0.1120
 1474TIP3    H125837   2.413   3.021  14.698  1.1126 -0.2333  2.0067
 1474TIP3    H225838   2.559   2.993  14.730  1.2087 -0.8558  1.0440
 1475TIP3   OH225839   1.176   0.998   2.165 -0.2728  0.8556  0.1822
 1475TIP3    H125840   1.213   1.082   2.193  0.9101 -0.1751  1.8149
 1475TIP3    H225841   1.210   0.985   2.076  1.5623  0.9576  0.8512
 1476TIP3   OH225842   5.048   5.458  14.648  0.3977 -0.6529  0.3795
 1476TIP3    H125843   5.108   5.386  14.628  1.3949  0.3652 -0.3488
 1476TIP3    H225844   5.072   5.484  14.737  1.0025 -0.2908  0.1139
 1477TIP3   OH225845   6.275   5.140   0.950 -0.0249  0.3119 -0.5124
 1477TIP3    H125846   6.251   5.133   0.857  0.6199  0.2678 -0.6766
 1477TIP3    H225847   6.368   5.160   0.949  0.1551 -0.4652  0.1427
 1478TIP3   OH225848   3.596   4.199  12.873  0.1421 -0.4420  0.1865
 1478TIP3    H125849   3.540   4.275  12.884  0.0585 -0.5601  0.5811
 1478TIP3    H225850   3.646   4.217  12.793 -2.4485 -1.5896 -1.7829
 1479TIP3   OH225851   1.109   5.991  15.783  0.2683 -0.0096  0.4805
 1479TIP3    H125852   1.098   5.939  15.862  0.0000  0.2025  0.5858
 1479TIP3    H225853   1.158   6.068  15.812 -1.2866  0.8844  0.7900
 1480TIP3   OH225854   0.003   5.386  12.340  0.3057 -0.0321 -0.0219
 1480TIP3    H125855  -0.052   5.442  12.286  0.5859 -0.4127 -0.7150
 1480TIP3    H225856   0.072   5.356  12.281  1.8512  1.2554  1.0791
 1481TIP3   OH225857   4.206   4.074  14.430 -0.0327 -0.0308  0.1467
 1481TIP3    H125858   4.118   4.042  14.409  0.3208 -0.5459 -0.5400
 1481TIP3    H225859   4.224   4.038  14.517 -0.4570 -0.0091  0.2438
 1482TIP3   OH225860   2.189   3.919  14.147 -0.1072  0.5361 -0.3898
 1482TIP3    H125861   2.213   3.993  14.203 -0.4915 -0.1336  0.6914
 1482TIP3    H225862   2.230   3.844  14.189 -1.6484 -0.1967 -0.1462
 1483TIP3   OH225863   2.253   4.282   2.476  0.4170 -0.5120  0.1540
 1483TIP3    H125864   2.208   4.204   2.445  1.2215 -0.1978 -1.9059
 1483TIP3    H225865   2.188   4.352   2.470 -0.0356 -0.8429  1.1396
 1484TIP3   OH225866   4.271   1.049   1.561 -0.0022  0.2119  0.2617
 1484TIP3    H125867   4.229   0.964   1.550  0.6802 -0.2719  1.3685
 1484TIP3    H225868   4.361   1.036   1.532 -0.3120  1.0012 -1.1578
 1485TIP3   OH225869   0.589   5.459  14.934 -0.1438 -0.4978 -0.0149
 1485TIP3    H125870   0.652   5.392  14.907  3.1835  1.2597  3.0004
 1485TIP3    H225871   0.580   5.516  14.858  2.9688 -0.0703 -0.1175
 1486TIP3   OH225872   4.800   5.779  15.478  0.3591 -0.1326 -0.0697
 1486TIP3    H125873   4.848   5.697  15.492 -0.3443 -0.6000 -0.3542
 1486TIP3    H225874   4.855   5.829  15.418 -0.1582 -1.2329 -1.4671
 1487TIP3   OH225875   4.279   3.650  11.700  0.2065  0.4990  0.0784
 1487TIP3    H125876   4.227   3.646  11.781 -0.5229  0.7740 -0.3777
 1487TIP3    H225877   4.369   3.655  11.731 -0.0594  0.4662  0.8817
 1488TIP3   OH225878   4.873   2.203  16.850  0.4680  0.0595 -0.3097
 1488TIP3    H125879   4.901   2.292  16.829  1.7719  0.2061  1.8620
 1488TIP3    H225880   4.895   2.151  16.773  2.5223  1.0622 -0.4229
 1489TIP3   OH225881   5.772   5.589   3.450  0.0818 -0.0198 -0.1315
 1489TIP3    H125882   5.712   5.551   3.513  0.8218 -0.3847  0.3629
 1489TIP3    H225883   5.721   5.658   3.406 -1.1781 -1.3958 -0.8653
 1490TIP3   OH225884   5.708   5.320  17.087 -0.4038 -0.4993  0.5474
 1490TIP3    H125885   5.674   5.242  17.044 -1.0425 -0.2426  0.5826
 1490TIP3    H225886   5.753   5.288  17.165  1.5813 -1.0737 -0.7746
 1491TIP3   OH225887   3.197   1.613  13.009  0.3089  0.0316 -0.3824
 1491TIP3    H125888   3.170   1.678  13.073  0.1723 -1.3862  1.0320
 1491TIP3    H225889   3.254   1.661  12.949  0.9465  1.2412  1.1554
 1492TIP3   OH225890   0.160   3.472   0.293 -0.2984 -0.1168 -0.2526
 1492TIP3    H125891   0.112   3.479   0.211 -0.0574 -0.2063 -0.4027
 1492TIP3    H225892   0.240   3.523   0.279 -0.7129  0.6694  0.2664
 1493TIP3   OH225893   2.922   3.124   5.386  0.3533 -0.2417  0.1924
 1493TIP3    H125894   2.999   3.141   5.440  1.4123  0.5344 -1.5090
 1493TIP3    H225895   2.873   3.207   5.387 -1.0951 -1.0887  2.2223
 1494TIP3   OH225896   0.946   4.808  12.715  0.0680  0.1411 -0.1786
 1494TIP3    H125897   0.947   4.901  12.691  1.2045  0.1698 -0.0648
 1494TIP3    H225898   0.963   4.808  12.810  1.4798 -0.2288 -0.4145
 1495TIP3   OH225899   1.322   4.990   4.487 -0.1467 -0.5253 -0.4403
 1495TIP3    H125900   1.274   4.987   4.570 -1.7188 -0.1701 -1.3056
 1495TIP3    H225901   1.400   4.938   4.502  1.2141  2.1130  2.2593
 1496TIP3   OH225902   0.014   0.053   1.677 -0.1804  0.4867  0.1635
 1496TIP3    H125903  -0.040   0.130   1.694 -0.2814 -0.0940  2.7264
 1496TIP3    H225904   0.024   0.011   1.763  2.3555 -0.7279 -0.6562
 1497TIP3   OH225905   6.561   0.410   2.847  0.7758  0.0008 -0.2820
 1497TIP3    H125906   6.528   0.459   2.772  1.1824  0.0577 -0.4265
 1497TIP3    H225907   6.534   0.320   2.831 -1.7733  0.4973  1.0008
 1498TIP3   OH225908   6.041   2.198  14.709  0.1270  0.6329 -0.6293
 1498TIP3    H125909   6.092   2.203  14.628  0.3387  2.0459 -0.4205
 1498TIP3    H225910   6.017   2.289  14.727  0.7996  0.4376  1.3492
 1499TIP3   OH225911   1.908   3.419   2.982 -0.1791  0.1025 -0.0768
 1499TIP3    H125912   1.912   3.355   3.053 -0.7306  0.3773  0.2021
 1499TIP3    H225913   1.973   3.388   2.919 -0.6113 -0.8687 -0.0546
 1500TIP3   OH225914   0.646   2.168   0.996 -0.2395 -0.3726 -0.0144
 1500TIP3    H125915   0.733   2.132   0.979 -0.8247 -2.2181  0.8472
 1500TIP3    H225916   0.661   2.234   1.063  0.4819 -0.7791  0.2302
 1501TIP3   OH225917   1.066   3.148  13.321 -0.1153 -0.2994 -0.5853
 1501TIP3    H125918   1.158   3.125  13.324  0.3014  1.2968 -0.3611
 1501TIP3    H225919   1.050   3.172  13.230  0.3624  1.9186 -0.1195
 1502TIP3   OH225920   1.609   6.277  13.466  0.0215 -0.0857 -0.4028
 1502TIP3    H125921   1.593   6.279  13.372  2.0155  0.1635 -0.7653
 1502TIP3    H225922   1.574   6.193  13.495 -3.0297  0.9606 -0.8648
 1503TIP3   OH225923   2.053   3.858   2.910  0.2770 -0.0176 -0.2580
 1503TIP3    H125924   1.959   3.846   2.906  0.5438 -1.7442 -3.3865
 1503TIP3    H225925   2.067   3.947   2.876 -0.1956  0.0331 -0.3267
 1504TIP3   OH225926   6.336   2.563   2.960 -0.3291  0.8545  0.8244
 1504TIP3    H125927   6.402   2.630   2.944 -0.5254  1.0895  1.0190
 1504TIP3    H225928   6.256   2.611   2.979 -0.4966  0.5673  0.8459
 1505TIP3   OH225929   4.890   4.813  15.095 -0.3151 -0.0604 -0.2870
 1505TIP3    H125930   4.884   4.863  15.176  1.2432 -0.0023 -0.2001
 1505TIP3    H225931   4.847   4.729  15.115 -0.2920  0.1081  0.4666
 1506TIP3   OH225932   4.040   5.080  11.812  0.0243  0.0275 -0.0991
 1506TIP3    H125933   4.128   5.050  11.789 -0.8643 -1.4716 -1.6332
 1506TIP3    H225934   3.993   5.000  11.836 -0.9546  0.8175  0.6522
 1507TIP3   OH225935   4.770   2.384   6.630  0.1975  0.2406  0.7214
 1507TIP3    H125936   4.692   2.356   6.581 -0.6024  1.1891  1.4335
 1507TIP3    H225937   4.799   2.306   6.675 -0.8539  0.0715  1.1220
 1508TIP3   OH225938   1.303   2.062  12.402  0.1306  0.6051  0.8491
 1508TIP3    H125939   1.323   2.118  12.326  1.7419 -1.6912 -0.4656
 1508TIP3    H225940   1.212   2.037  12.390 -0.1933  1.8295  0.7121
 1509TIP3   OH225941   0.690   0.065  16.669 -0.2442 -0.1682 -0.1744
 1509TIP3    H125942   0.713   0.028  16.754 -0.4326 -0.9457 -0.4675
 1509TIP3    H225943   0.700   0.160  16.682  3.5457 -0.4726 -0.3856
 1510TIP3   OH225944   6.242   2.790   1.460 -0.8440 -0.4365 -0.1299
 1510TIP3    H125945   6.301   2.866   1.457 -1.1544 -0.2077 -0.4288
 1510TIP3    H225946   6.156   2.826   1.440 -0.9144 -0.9440 -0.7560
 1511TIP3   OH225947   4.093   3.210   4.330 -0.5576  0.7141 -0.0422
 1511TIP3    H125948   4.107   3.217   4.236  0.2136  1.2531  0.1099
 1511TIP3    H225949   4.114   3.298   4.364  2.5711 -0.4002  1.0645
 1512TIP3   OH225950   4.433   1.816  12.140 -0.2850  0.6246 -0.6348
 1512TIP3    H125951   4.430   1.891  12.080  0.3516  0.8672 -0.3631
 1512TIP3    H225952   4.348   1.819  12.185 -0.2418  1.2151 -0.5857
 1513TIP3   OH225953   5.507   0.002   2.680 -0.4469 -0.5400 -0.3065
 1513TIP3    H125954   5.414   0.007   2.657 -0.9829 -0.1531  1.7989
 1513TIP3    H225955   5.553   0.025   2.600 -2.2174  1.4086 -0.8117
 1514TIP3   OH225956   2.828   3.403   0.132  0.1704  0.1492 -0.0824
 1514TIP3    H125957   2.874   3.474   0.176 -1.2277 -0.2361  2.0624
 1514TIP3    H225958   2.756   3.447   0.086 -0.1727  0.2173  0.5181
 1515TIP3   OH225959   5.305   0.168   5.746  1.0098 -0.0594  0.5165
 1515TIP3    H125960   5.395   0.154   5.714  0.6739 -1.6468  0.2117
 1515TIP3    H225961   5.282   0.085   5.788 -0.6594 -0.0161 -0.2850
 1516TIP3   OH225962   3.495   3.066   3.398  0.5077  0.1039  0.6168
 1516TIP3    H125963   3.508   2.985   3.349  0.1189 -0.1083  0.8661
 1516TIP3    H225964   3.492   3.134   3.330  1.3905 -0.0188  0.4442
 1517TIP3   OH225965   1.147   1.774  13.821  0.3009 -0.2200 -0.0601
 1517TIP3    H125966   1.140   1.770  13.916 -0.7700 -0.1906 -0.1336
 1517TIP3    H225967   1.214   1.841  13.805  0.2935 -0.0314  0.6707
 1518TIP3   OH225968   3.319   1.568  14.032  0.1914  0.2644  0.1859
 1518TIP3    H125969   3.250   1.503  14.022 -1.5426  2.1806 -0.7059
 1518TIP3    H225970   3.377   1.553  13.957  0.6622 -1.2209  0.8286
 1519TIP3   OH225971   0.152   3.340  11.661  0.6166  0.1171 -0.2631
 1519TIP3    H125972   0.086   3.343  11.591 -1.4927 -3.6090  1.3860
 1519TIP3    H225973   0.204   3.262  11.641  1.8854  0.6885  0.7418
 1520TIP3   OH225974   6.772   1.725  12.016 -0.1443 -0.1547 -0.1424
 1520TIP3    H125975   6.824   1.673  12.077 -0.5333 -0.8495 -0.3985
 1520TIP3    H225976   6.807   1.814  12.025  1.5407 -0.7264 -0.8103
 1521TIP3   OH225977   6.031   0.976   6.421  0.1377 -0.5539  0.0302
 1521TIP3    H125978   6.058   1.058   6.463  0.7613 -0.5652 -0.3269
 1521TIP3    H225979   5.952   0.999   6.372  0.6799  0.0008 -0.5995
 1522TIP3   OH225980   1.995   0.793  15.217 -0.7409 -0.7605  0.3129
 1522TIP3    H125981   2.021   0.846  15.141 -0.5012  0.2859  1.1077
 1522TIP3    H225982   2.053   0.717  15.214  0.4288  0.1142  0.4003
 1523TIP3   OH225983   0.952   4.576  16.389 -0.2367  0.1097 -0.2196
 1523TIP3    H125984   0.926   4.643  16.326 -0.5872 -1.9375 -2.3169
 1523TIP3    H225985   0.873   4.524  16.404  0.0463  0.0877  1.3212
 1524TIP3   OH225986   5.742   5.315   2.283 -0.2118  0.8799  0.3658
 1524TIP3    H125987   5.696   5.302   2.366  0.1923  1.1343  0.6338
 1524TIP3    H225988   5.695   5.261   2.220 -0.7310  0.9576  0.6891
 1525TIP3   OH225989   3.134   5.038   3.771 -0.0753 -0.2219 -0.5091
 1525TIP3    H125990   3.139   4.953   3.726 -1.1588 -0.8490  0.5137
 1525TIP3    H225991   3.211   5.086   3.741  0.5592 -1.5762 -1.0923
 1526TIP3   OH225992   2.005   5.871  16.870  0.2641 -1.0531  0.0548
 1526TIP3    H125993   1.919   5.911  16.857  0.7864  0.3762  0.8796
 1526TIP3    H225994   2.043   5.868  16.783  1.2815  2.7568  0.2711
 1527TIP3   OH225995   5.331   3.574   3.555 -0.4342  0.0851  0.4149
 1527TIP3    H125996   5.404   3.617   3.598  0.7372 -0.2348 -1.1901
 1527TIP3    H225997   5.356   3.481   3.553  0.1298  0.2342 -1.9784
 1528TIP3   OH225998   1.666   4.821   0.208 -0.3363  0.3704  0.1708
 1528TIP3    H125999   1.740   4.859   0.162 -1.2824  1.1936 -0.7048
 1528TIP3    H226000   1.618   4.896   0.243 -0.8742 -0.1331  0.5392
 1529TIP3   OH226001   6.546   6.443  17.230  0.1162  0.2276  0.3783
 1529TIP3    H126002   6.614   6.377  17.218  0.6358  0.5008  1.7453
 1529TIP3    H226003   6.593   6.521  17.258 -0.2102  1.9847 -3.5941
 1530TIP3   OH226004   5.141   1.076   1.296  0.1854  0.6286 -0.4279
 1530TIP3    H126005   5.045   1.071   1.305  0.1517  0.7408 -0.7263
 1530TIP3    H226006   5.155   1.106   1.206  0.5634 -2.9288 -1.6450
 1531TIP3   OH226007   3.644   6.540  12.363 -0.2897  0.5871 -0.0150
 1531TIP3    H126008   3.574   6.603  12.380 -1.1647 -0.4840  0.3728
 1531TIP3    H226009   3.606   6.455  12.383  1.0561 -0.0303 -0.0166
 1532TIP3   OH226010   1.165   2.270  13.072 -0.0702 -1.1902 -0.0871
 1532TIP3    H126011   1.112   2.283  12.994 -0.7859 -0.5974  0.4905
 1532TIP3    H226012   1.254   2.258  13.039  0.1506  1.9993 -0.8480
 1533TIP3   OH226013   5.209   5.660   4.318 -0.9620  0.0239 -0.8008
 1533TIP3    H126014   5.148   5.614   4.376 -1.6465  0.8571 -0.8401
 1533TIP3    H226015   5.152   5.707   4.257 -0.2679  0.6427 -0.9732
 1534TIP3   OH226016   4.635   6.450  11.819  0.3826 -0.1107 -0.1573
 1534TIP3    H126017   4.622   6.494  11.903  0.2659 -1.4047  0.5150
 1534TIP3    H226018   4.602   6.512  11.754 -0.1967  0.6000  0.8038
 1535TIP3   OH226019   0.523   0.568   2.413  0.0919 -0.4385 -0.1833
 1535TIP3    H126020   0.524   0.619   2.494 -2.3500 -0.3089 -0.2003
 1535TIP3    H226021   0.472   0.621   2.352 -1.2636 -2.2151 -0.6361
 1536TIP3   OH226022   5.786   4.127   4.095  0.4959 -0.0659  0.2035
 1536TIP3    H126023   5.828   4.080   4.167 -0.7760 -1.2501  0.1781
 1536TIP3    H226024   5.721   4.066   4.061 -0.2058  1.1955 -0.7432
 1537TIP3   OH226025   2.430   3.123  12.963  0.3446 -0.2104  0.1522
 1537TIP3    H126026   2.377   3.086  13.034 -1.5429  0.6119 -0.8085
 1537TIP3    H226027   2.487   3.187  13.007 -0.0008 -0.5210  1.0685
 1538TIP3   OH226028   2.938   4.081  15.430 -0.2636 -0.4482  0.2967
 1538TIP3    H126029   2.885   4.138  15.485  0.5866  1.2823 -0.6379
 1538TIP3    H226030   2.881   4.060  15.356  0.0653  0.7791 -0.3176
 1539TIP3   OH226031   4.462   1.769   0.843  0.0711 -0.0165 -0.5784
 1539TIP3    H126032   4.439   1.800   0.930  1.2383  3.0062 -1.2879
 1539TIP3    H226033   4.522   1.696   0.859 -0.7526 -0.3575  1.1195
 1540TIP3   OH226034   2.965   0.486   3.126  0.2218  0.0601 -0.2448
 1540TIP3    H126035   3.061   0.478   3.122  0.1453 -0.4975 -1.0893
 1540TIP3    H226036   2.937   0.403   3.166 -0.0465 -0.6547 -1.8921
 1541TIP3   OH226037   2.631   4.980   3.019  0.7164 -0.1681 -0.7011
 1541TIP3    H126038   2.722   4.953   3.023  0.3191 -1.4645  0.0258
 1541TIP3    H226039   2.618   5.032   3.099  0.0577 -2.5388  0.7988
 1542TIP3   OH226040   3.791   4.005  12.937 -0.5548  0.5735  0.1464
 1542TIP3    H126041   3.745   4.042  12.861  2.5780 -0.5818 -2.4637
 1542TIP3    H226042   3.852   4.073  12.964  1.8592 -0.7901 -1.6394
 1543TIP3   OH226043   5.745   2.097  13.236 -0.3366  0.0015  0.3488
 1543TIP3    H126044   5.814   2.157  13.265 -1.5496  1.4782  0.2187
 1543TIP3    H226045   5.708   2.139  13.158 -0.3102 -1.5918 -0.5491
 1544TIP3   OH226046   1.380   2.947   4.101 -0.0423 -0.4647 -0.2492
 1544TIP3    H126047   1.459   2.938   4.155  0.7972 -0.3458 -1.4326
 1544TIP3    H226048   1.381   3.038   4.072  0.1362 -0.8023 -1.3624
 1545TIP3   OH226049   6.318   4.218  11.941 -0.6873  0.1458  0.3483
 1545TIP3    H126050   6.317   4.314  11.936 -0.5967  0.1690  0.7623
 1545TIP3    H226051   6.308   4.199  12.034 -0.1020 -0.2398  0.3316
 1546TIP3   OH226052   2.371   6.723  13.470 -0.4094 -0.2860 -0.0224
 1546TIP3    H126053   2.285   6.744  13.504 -0.5861 -2.2490  0.8307
 1546TIP3    H226054   2.357   6.709  13.376 -1.1699 -1.3614  0.2463
 1547TIP3   OH226055   1.129   6.146   3.632  0.4505  0.1822 -0.1719
 1547TIP3    H126056   1.154   6.212   3.567  1.7608  0.1540  0.2895
 1547TIP3    H226057   1.139   6.190   3.716  1.5965 -0.6738  0.1558
 1548TIP3   OH226058   5.378   0.141   2.060 -0.0013  0.6848  0.1699
 1548TIP3    H126059   5.284   0.154   2.068 -0.5768 -2.8476  0.1824
 1548TIP3    H226060   5.405   0.109   2.147  0.7937 -0.2669 -0.4105
 1549TIP3   OH226061   4.395   0.259   6.584 -0.3063  0.1923  0.4489
 1549TIP3    H126062   4.489   0.245   6.573 -0.1881  1.4829 -0.2644
 1549TIP3    H226063   4.359   0.171   6.593  0.9913 -0.3090  0.9784
 1550TIP3   OH226064   6.299   0.438   1.871 -0.1481  0.2148 -0.4361
 1550TIP3    H126065   6.313   0.345   1.855 -1.5014  0.3208 -2.3565
 1550TIP3    H226066   6.212   0.444   1.909 -0.1100  0.7056 -0.4123
 1551TIP3   OH226067   1.650   2.538   5.670 -0.2216 -0.0398 -0.4076
 1551TIP3    H126068   1.572   2.535   5.725  0.2962 -0.0211  0.3471
 1551TIP3    H226069   1.676   2.446   5.660 -0.3385 -0.0462 -0.6588
 1552TIP3   OH226070   4.744   5.740  12.896 -0.5154  0.1549 -0.0021
 1552TIP3    H126071   4.679   5.669  12.895  0.4563 -0.7711  0.8995
 1552TIP3    H226072   4.822   5.700  12.934 -0.0254  1.7856  0.7406
 1553TIP3   OH226073   2.067   1.405  13.760 -0.4257  0.0160 -0.2432
 1553TIP3    H126074   2.127   1.358  13.819  0.1423  0.4175 -0.4958
 1553TIP3    H226075   1.982   1.398  13.803 -0.4903 -1.8280 -0.6139
 1554TIP3   OH226076   6.260   2.274   3.966 -0.1204  0.4585 -0.6097
 1554TIP3    H126077   6.222   2.361   3.976 -1.2548 -0.3975  3.5690
 1554TIP3    H226078   6.187   2.219   3.939  0.3540  0.5468 -2.1324
 1555TIP3   OH226079   1.568   2.592   5.402 -0.1310  0.4514 -0.1827
 1555TIP3    H126080   1.573   2.513   5.349 -0.0751  0.7999 -0.6933
 1555TIP3    H226081   1.599   2.565   5.488 -0.6476 -0.2203 -0.2031
 1556TIP3   OH226082   0.390   0.102   3.040  0.2754 -0.6280 -0.3673
 1556TIP3    H126083   0.379   0.016   3.000 -0.4534 -0.4971 -0.4581
 1556TIP3    H226084   0.329   0.102   3.114  0.4036 -0.2619 -0.2592
 1557TIP3   OH226085   5.917   3.502  14.620  0.4523 -0.0310  0.0205
 1557TIP3    H126086   6.000   3.482  14.576  0.4273 -1.1375  0.4548
 1557TIP3    H226087   5.940   3.570  14.684  0.3359  2.1840 -2.1946
 1558TIP3   OH226088   3.191   0.605   5.809 -0.0969  0.4632  0.6811
 1558TIP3    H126089   3.148   0.611   5.723 -0.1236 -3.5088  0.3508
 1558TIP3    H226090   3.270   0.659   5.799 -0.9316  1.4079 -1.2727
 1559TIP3   OH226091   5.986   1.064   3.517 -0.5995 -0.2641  0.1359
 1559TIP3    H126092   6.050   1.081   3.586  0.6969 -2.5190 -0.4629
 1559TIP3    H226093   5.964   1.151   3.483  1.1263  0.6423  1.2431
 1560TIP3   OH226094   4.375   4.483  13.344 -0.5012 -0.4515 -0.1145
 1560TIP3    H126095   4.428   4.531  13.408  1.4134 -1.1866 -1.1089
 1560TIP3    H226096   4.295   4.534  13.336  0.3570  1.0901  0.8687
 1561TIP3   OH226097   0.656   6.284   1.597 -0.1811 -0.3107  0.5779
 1561TIP3    H126098   0.720   6.233   1.548 -0.7673 -0.7855  0.2929
 1561TIP3    H226099   0.596   6.219   1.634 -2.4945  0.2538 -1.9789
 1562TIP3   OH226100   1.649   1.925  12.782 -0.1817  0.2082  0.4582
 1562TIP3    H126101   1.591   1.990  12.742  0.2167 -0.3863 -1.1121
 1562TIP3    H226102   1.737   1.960  12.769 -0.0604  0.0881  0.9552
 1563TIP3   OH226103   1.368   6.205   0.181 -0.1084 -0.0391 -0.6373
 1563TIP3    H126104   1.325   6.238   0.102  1.1577  1.0394 -0.9026
 1563TIP3    H226105   1.406   6.121   0.155 -0.9453 -0.3866 -0.7548
 1564TIP3   OH226106   3.295   0.310  10.757  0.1052 -0.3246 -0.2221
 1564TIP3    H126107   3.357   0.247  10.794 -0.6377 -1.1963 -0.4502
 1564TIP3    H226108   3.328   0.395  10.786  3.4718 -0.4407 -3.3335
 1565TIP3   OH226109   3.464   5.089  13.206 -0.4637  0.3939 -0.5638
 1565TIP3    H126110   3.440   5.127  13.290  2.1670  0.3168  0.2735
 1565TIP3    H226111   3.405   5.130  13.143 -2.4583  0.4454  1.3029
 1566TIP3   OH226112   3.482   6.437   5.095  0.4567  0.1889  0.3205
 1566TIP3    H126113   3.464   6.356   5.143  0.9024  0.7421  1.4611
 1566TIP3    H226114   3.401   6.488   5.103  0.9944  0.8565  1.6974
 1567TIP3   OH226115   0.698   2.070   3.848  0.1566 -0.0782 -0.6927
 1567TIP3    H126116   0.641   1.996   3.828 -0.8995  0.7969 -0.9446
 1567TIP3    H226117   0.704   2.071   3.944 -0.2519 -0.1743 -0.6664
 1568TIP3   OH226118   5.145   4.599  12.352  0.0493 -0.1071  0.0935
 1568TIP3    H126119   5.078   4.640  12.297 -1.0478 -2.2066 -0.1706
 1568TIP3    H226120   5.188   4.536  12.294 -0.4130 -1.5875  1.3244
 1569TIP3   OH226121   3.514   0.075  13.200 -0.3187 -0.0163 -0.1792
 1569TIP3    H126122   3.591   0.028  13.168 -0.1813 -0.2820  0.5422
 1569TIP3    H226123   3.530   0.087  13.294 -1.6410 -1.0304  0.1958
 1570TIP3   OH226124   4.156   0.415   0.746  0.0324  0.1480  0.6632
 1570TIP3    H126125   4.220   0.446   0.681  0.5825 -2.2379  0.0235
 1570TIP3    H226126   4.196   0.434   0.830  1.2412 -0.6188  0.2692
 1571TIP3   OH226127   0.662   3.740   2.162 -0.0548  0.5139  0.2035
 1571TIP3    H126128   0.602   3.668   2.141 -0.1943 -0.0500  2.4027
 1571TIP3    H226129   0.626   3.815   2.114 -1.7804 -0.1206  0.4615
 1572TIP3   OH226130   3.100   1.388  14.225 -0.0483 -0.2629 -0.0869
 1572TIP3    H126131   3.050   1.306  14.225  0.3669 -0.5229 -0.6181
 1572TIP3    H226132   3.146   1.388  14.141  0.7657  0.0175  0.3427
 1573TIP3   OH226133   6.689   2.576  13.487  0.2535 -0.3846  0.4398
 1573TIP3    H126134   6.772   2.541  13.519  1.1251 -0.7391 -2.1242
 1573TIP3    H226135   6.707   2.669  13.471  0.3878 -0.6184 -0.8172
 1574TIP3   OH226136   0.726   1.911  12.983 -0.4489 -0.0391  0.5919
 1574TIP3    H126137   0.678   1.964  12.919 -0.6898 -0.9839 -0.0252
 1574TIP3    H226138   0.772   1.975  13.037 -0.1327  0.7856 -0.6167
 1575TIP3   OH226139   3.226   2.839  13.591  0.0049 -0.4768 -0.5130
 1575TIP3    H126140   3.227   2.809  13.682 -2.0491 -0.0706 -0.3260
 1575TIP3    H226141   3.303   2.895  13.583  1.0804 -1.7682  0.5285
 1576TIP3   OH226142   2.377   1.370   6.207 -0.2641 -0.9783  0.4799
 1576TIP3    H126143   2.342   1.290   6.246 -1.5365 -0.4810  0.3733
 1576TIP3    H226144   2.306   1.433   6.213  0.9450  0.3641  1.1761
 1577TIP3   OH226145   2.526   2.052   4.887  0.5266  0.1161  0.0878
 1577TIP3    H126146   2.489   2.132   4.850 -2.1724 -0.3749  1.6336
 1577TIP3    H226147   2.579   2.015   4.816  1.0306  2.7233 -0.9672
 1578TIP3   OH226148   4.923   3.685  15.415  0.5419  0.1931  0.7934
 1578TIP3    H126149   4.902   3.597  15.447  0.3176  0.1470  0.5167
 1578TIP3    H226150   4.913   3.680  15.320  0.7894  0.4472  0.7529
 1579TIP3   OH226151   3.154   0.428   4.219 -0.1514  0.3114  0.0667
 1579TIP3    H126152   3.164   0.334   4.202 -1.4602 -0.0002  0.9030
 1579TIP3    H226153   3.125   0.464   4.135  0.9186  0.0725 -0.4136
 1580TIP3   OH226154   2.173   4.739  14.911 -0.5359 -0.4528  0.1248
 1580TIP3    H126155   2.201   4.686  14.836  0.5712 -0.8932  0.8238
 1580TIP3    H226156   2.226   4.818  14.905 -1.3342  0.0627 -0.2425
 1581TIP3   OH226157   6.363   1.539   1.022  0.0704 -0.4682  0.6820
 1581TIP3    H126158   6.305   1.464   1.008  0.3624 -0.7486  0.9588
 1581TIP3    H226159   6.441   1.519   0.970 -0.1229 -0.0457  0.2345
 1582TIP3   OH226160   0.950   4.766  11.313 -0.6178 -0.1985  0.3832
 1582TIP3    H126161   1.035   4.729  11.289  0.7766  0.9032  3.4060
 1582TIP3    H226162   0.901   4.692  11.348 -1.1765 -0.9553 -1.8799
 1583TIP3   OH226163   0.978   5.658  15.666 -0.2729 -0.0615 -0.7923
 1583TIP3    H126164   0.995   5.748  15.695  1.6874 -0.8525  0.6083
 1583TIP3    H226165   1.033   5.648  15.588 -1.6543  0.4144 -1.8542
 1584TIP3   OH226166   4.932   2.224  14.312 -0.1106  0.2252 -0.0523
 1584TIP3    H126167   4.887   2.139  14.322 -0.8978  0.8462  2.0766
 1584TIP3    H226168   4.887   2.281  14.374  2.4979  1.3501  0.8459
 1585TIP3   OH226169   0.892   1.264   2.286  0.1047  0.3354  0.0621
 1585TIP3    H126170   0.887   1.169   2.288 -0.5606  0.3648 -0.1705
 1585TIP3    H226171   0.815   1.293   2.335  0.8936  0.7424  1.0788
 1586TIP3   OH226172   4.421   5.030  12.580  0.5250 -0.6655  0.3428
 1586TIP3    H126173   4.516   5.032  12.582  0.5381 -1.6918  0.8554
 1586TIP3    H226174   4.395   5.115  12.615  1.2587  0.7341 -2.3696
 1587TIP3   OH226175   3.371   6.667   4.552 -0.3564  0.2695 -0.1412
 1587TIP3    H126176   3.417   6.720   4.487 -1.8773  0.6600 -0.9175
 1587TIP3    H226177   3.362   6.581   4.510 -0.6508  0.2943 -0.1238
 1588TIP3   OH226178   6.737   2.714  15.369  0.2938  0.2239  0.3103
 1588TIP3    H126179   6.823   2.689  15.402  1.1547  0.2186 -1.8923
 1588TIP3    H226180   6.676   2.661  15.420  1.6518 -0.4885  1.2200
 1589TIP3   OH226181   0.655   2.599  11.743 -0.2540 -0.5477 -0.1771
 1589TIP3    H126182   0.672   2.551  11.824 -3.1046 -1.7879 -0.2610
 1589TIP3    H226183   0.659   2.691  11.769 -0.5075 -0.9196  1.2272
 1590TIP3   OH226184   6.766   3.769  14.372  0.0741  0.2584  0.5490
 1590TIP3    H126185   6.761   3.800  14.462  1.6049  0.0417  0.7133
 1590TIP3    H226186   6.780   3.675  14.380  1.5293  0.4260  0.1069
 1591TIP3   OH226187   1.419   1.650   2.862  0.3067 -0.6267  0.5306
 1591TIP3    H126188   1.325   1.645   2.883  0.4348  1.1325  1.5575
 1591TIP3    H226189   1.423   1.707   2.785  0.5432 -0.7499  0.4514
 1592TIP3   OH226190   6.075   3.005  16.062 -0.8410  0.3789  0.8419
 1592TIP3    H126191   6.094   2.920  16.024  0.7482  0.7511  0.7627
 1592TIP3    H226192   6.095   2.995  16.155  3.5005  1.7909  0.1762
 1593TIP3   OH226193   3.235   2.309  14.092 -0.5946  0.0602  0.2816
 1593TIP3    H126194   3.143   2.323  14.114 -0.6284 -0.5393  0.5369
 1593TIP3    H226195   3.237   2.312  13.997 -0.9655 -0.4183  0.2523
 1594TIP3   OH226196   5.657   0.466   3.983 -0.1939  0.4366  0.2010
 1594TIP3    H126197   5.595   0.478   3.912  0.3804  0.8496 -0.2369
 1594TIP3    H226198   5.635   0.534   4.047 -0.1859  0.5896  0.0411
 1595TIP3   OH226199   2.006   3.142  13.724  0.4801 -0.6599  0.0189
 1595TIP3    H126200   1.917   3.161  13.755  0.0307 -0.2637 -1.5079
 1595TIP3    H226201   2.058   3.135  13.805 -0.6614  0.4765  0.8694
 1596TIP3   OH226202   5.928   6.717  13.956 -0.4169 -0.6468  0.6538
 1596TIP3    H126203   5.898   6.627  13.972 -0.5251 -0.5413  1.0461
 1596TIP3    H226204   5.999   6.708  13.893 -0.3693 -1.0168  0.7604
 1597TIP3   OH226205   0.416   3.241   3.724 -0.1455  0.2284 -0.1622
 1597TIP3    H126206   0.383   3.330   3.714 -2.0056 -0.5708 -1.3048
 1597TIP3    H226207   0.489   3.235   3.662 -1.5470  0.2258 -1.8341
 1598TIP3   OH226208   3.638   3.327  13.735 -0.5748  0.7163  0.2743
 1598TIP3    H126209   3.636   3.237  13.769  0.8668 -0.5423 -2.7425
 1598TIP3    H226210   3.562   3.333  13.678  0.0438  0.9676 -0.5332
 1599TIP3   OH226211   1.618   3.339   3.567  0.2511  1.0269  0.2447
 1599TIP3    H126212   1.565   3.312   3.642  0.5898 -1.7383 -0.4726
 1599TIP3    H226213   1.567   3.314   3.490  1.4905  0.5678 -0.4508
 1600TIP3   OH226214   3.161   2.221  13.386  0.2473 -0.1491  0.0470
 1600TIP3    H126215   3.139   2.181  13.470  1.0614 -0.2803  0.2034
 1600TIP3    H226216   3.242   2.177  13.359  0.2956  0.2894 -0.5283
 1601TIP3   OH226217   2.235   5.462   5.145  0.1578 -0.5599  0.6167
 1601TIP3    H126218   2.263   5.516   5.219  1.9189 -2.0059  1.0390
 1601TIP3    H226219   2.267   5.374   5.166  1.3970 -0.8417 -2.2129
 1602TIP3   OH226220   6.086   4.222  15.885  0.4269 -0.0071  0.7377
 1602TIP3    H126221   6.022   4.174  15.938  0.0751  1.4639  1.6830
 1602TIP3    H226222   6.158   4.241  15.946  0.2805  1.2024  0.5461
 1603TIP3   OH226223   0.532   4.768   4.593 -0.4088  0.2588 -0.6825
 1603TIP3    H126224   0.538   4.807   4.680  1.9261 -1.2665 -0.1083
 1603TIP3    H226225   0.552   4.839   4.533 -1.1705  1.1125  0.0526
 1604TIP3   OH226226   5.747   0.502  16.203  0.8948 -0.4558 -0.0379
 1604TIP3    H126227   5.662   0.539  16.226  1.1966 -0.8199  1.7032
 1604TIP3    H226228   5.727   0.415  16.169  0.5215 -0.2654 -0.3107
 1605TIP3   OH226229   1.266   1.490  16.681 -0.2605  0.6156  0.4187
 1605TIP3    H126230   1.214   1.526  16.609 -0.0452 -1.2869 -0.7237
 1605TIP3    H226231   1.354   1.483  16.646  0.0609  0.6402  1.2160
 1606TIP3   OH226232   5.834   0.515  11.562  0.7203 -0.3443 -0.2580
 1606TIP3    H126233   5.820   0.433  11.514  0.1935 -0.6339  0.3799
 1606TIP3    H226234   5.895   0.491  11.632 -0.1579 -0.4203  0.4998
 1607TIP3   OH226235   0.827   3.588  11.361 -0.3924  0.3357  1.0922
 1607TIP3    H126236   0.871   3.593  11.276 -0.5298  2.9254  1.1347
 1607TIP3    H226237   0.801   3.496  11.368 -0.3140  0.0395 -1.6318
 1608TIP3   OH226238   4.943   4.105  11.511  0.3861  0.0125 -0.7888
 1608TIP3    H126239   4.960   4.065  11.426 -0.8563  0.1103 -1.0995
 1608TIP3    H226240   4.867   4.058  11.545  0.2867  0.6198 -0.1544
 1609TIP3   OH226241   5.958   0.262   3.597  0.1173  0.0223 -0.0214
 1609TIP3    H126242   6.018   0.203   3.642 -1.3066 -0.4308  1.3463
 1609TIP3    H226243   5.960   0.234   3.506 -0.7913 -2.3882  0.6586
 1610TIP3   OH226244   4.436   2.875  12.747 -0.2951 -0.2551  0.3058
 1610TIP3    H126245   4.518   2.826  12.735 -1.5119 -2.2408 -0.2168
 1610TIP3    H226246   4.392   2.830  12.819 -1.4589  0.0642 -0.1898
 1611TIP3   OH226247   3.103   3.728  12.021 -0.4121  0.2159 -0.1333
 1611TIP3    H126248   3.058   3.698  11.943 -0.3617 -0.4767  0.0990
 1611TIP3    H226249   3.169   3.661  12.038  1.0304  1.4395 -0.7361
 1612TIP3   OH226250   1.726   5.397   1.841  0.2039  0.0906 -0.3746
 1612TIP3    H126251   1.811   5.357   1.858 -0.3225  0.2776  2.9804
 1612TIP3    H226252   1.672   5.327   1.804  0.3240 -1.4238  2.2425
 1613TIP3   OH226253   6.507   2.440  13.669  0.2040 -0.1883 -0.4333
 1613TIP3    H126254   6.534   2.472  13.755  1.2421  1.5020 -1.3659
 1613TIP3    H226255   6.570   2.478  13.608  0.7236 -2.9915 -1.7501
 1614TIP3   OH226256   2.890   5.940  14.259  0.1076 -0.1430 -0.5615
 1614TIP3    H126257   2.821   5.882  14.291 -1.7562  0.3188 -3.5174
 1614TIP3    H226258   2.859   6.028  14.279  0.1585  0.0421 -1.2759
 1615TIP3   OH226259   3.165   4.621   2.015 -0.1576  0.5459  0.4726
 1615TIP3    H126260   3.252   4.586   2.036 -0.6515 -2.1558 -1.6911
 1615TIP3    H226261   3.177   4.716   2.012  2.1264  0.3799  2.7439
 1616TIP3   OH226262   5.596   6.520   2.343  0.0683 -0.1582  0.5778
 1616TIP3    H126263   5.642   6.559   2.417  0.8283 -1.7307  0.9616
 1616TIP3    H226264   5.666   6.490   2.284 -0.5245  0.8891 -0.6997
 1617TIP3   OH226265   4.614   6.747  16.468  0.4979 -0.2128  0.0976
 1617TIP3    H126266   4.634   6.841  16.463 -0.6743  0.0101 -0.7266
 1617TIP3    H226267   4.698   6.704  16.455  0.4725  0.6785 -3.5960
 1618TIP3   OH226268   0.828   5.844   1.479  0.0092 -0.4183 -0.2402
 1618TIP3    H126269   0.813   5.815   1.389  0.1711  1.0240 -0.7394
 1618TIP3    H226270   0.922   5.860   1.484 -0.5276  3.3757 -1.0186
 1619TIP3   OH226271   2.152   4.739  15.477 -0.4624  0.5738 -0.0891
 1619TIP3    H126272   2.182   4.697  15.558  1.6189  0.8611 -0.7002
 1619TIP3    H226273   2.100   4.672  15.433  1.2529 -0.7350 -0.1564
 1620TIP3   OH226274   2.822   6.239  11.919  0.0807 -0.3413 -0.2348
 1620TIP3    H126275   2.737   6.197  11.931  0.3645 -1.1530 -0.9672
 1620TIP3    H226276   2.805   6.311  11.859 -0.2849  0.1709  0.4836
 1621TIP3   OH226277   0.515   0.167  16.056 -0.2128  0.2151  0.3700
 1621TIP3    H126278   0.445   0.226  16.027 -0.4766  0.3991  1.3575
 1621TIP3    H226279   0.585   0.225  16.086 -0.7743  0.0580  2.0725
 1622TIP3   OH226280   6.108   5.553   1.539 -0.3622 -0.6190  0.1082
 1622TIP3    H126281   6.146   5.480   1.490  0.9805  0.0552  0.1401
 1622TIP3    H226282   6.157   5.629   1.510 -0.0378 -0.0934  1.9823
 1623TIP3   OH226283   4.453   0.194  13.626  0.0043 -0.2316  0.4226
 1623TIP3    H126284   4.380   0.231  13.676 -0.4575  1.8209 -1.6972
 1623TIP3    H226285   4.429   0.103  13.612 -1.4064  0.0273  1.0938
 1624TIP3   OH226286   5.987   5.472  10.882  0.0290 -0.3804  0.0436
 1624TIP3    H126287   5.978   5.466  10.787 -1.6789  1.7787  0.0340
 1624TIP3    H226288   6.040   5.396  10.906  1.0745 -0.5653 -2.7069
 1625TIP3   OH226289   6.400   2.902  12.410 -0.3443 -0.4206 -0.5992
 1625TIP3    H126290   6.372   2.960  12.339  0.7768 -1.4213 -1.8714
 1625TIP3    H226291   6.417   2.818  12.367  0.0265 -1.1325  0.9134
 1626TIP3   OH226292   1.323   6.196   2.050 -0.4453 -0.0146  0.0575
 1626TIP3    H126293   1.301   6.247   2.128 -2.6243 -0.1712 -0.4094
 1626TIP3    H226294   1.363   6.116   2.084  1.7061  1.3439  0.8511
 1627TIP3   OH226295   2.441   4.257   3.236  0.4136  0.3620 -0.0510
 1627TIP3    H126296   2.462   4.164   3.241  0.2950  0.3557  0.3517
 1627TIP3    H226297   2.447   4.278   3.143  2.8337  0.4993  0.1134
 1628TIP3   OH226298   3.485   6.649  13.706 -0.5643 -0.3361  0.2134
 1628TIP3    H126299   3.455   6.721  13.761  1.6323 -0.3594  1.5281
 1628TIP3    H226300   3.555   6.608  13.757  0.7788 -1.0548 -2.1367
 1629TIP3   OH226301   6.224   6.765   0.780  0.6233  0.2419 -0.8430
 1629TIP3    H126302   6.225   6.849   0.733  2.8379  0.6351 -0.1697
 1629TIP3    H226303   6.241   6.700   0.712 -0.5594  0.3749 -1.2805
 1630TIP3   OH226304   4.518   3.853  16.780 -0.0435  0.3733  0.5697
 1630TIP3    H126305   4.613   3.854  16.768 -0.2801  0.5266 -1.4577
 1630TIP3    H226306   4.504   3.891  16.867  1.7323  0.5013  0.8114
 1631TIP3   OH226307   0.962   1.666  15.531  0.0600 -0.0424 -0.5913
 1631TIP3    H126308   1.014   1.621  15.465  0.1830 -2.0986  0.8773
 1631TIP3    H226309   0.883   1.612  15.541  0.1859  0.0578  1.1569
 1632TIP3   OH226310   0.676   3.615  16.003 -1.1665  0.2871 -0.4449
 1632TIP3    H126311   0.765   3.581  15.999 -1.2655 -0.1202  0.5077
 1632TIP3    H226312   0.685   3.710  15.992 -0.6384  0.2233 -0.5454
 1633TIP3   OH226313   4.267   3.077   5.632  0.2355 -0.1107 -0.0335
 1633TIP3    H126314   4.216   3.036   5.563  1.2571  0.5132 -1.1884
 1633TIP3    H226315   4.233   3.040   5.713 -1.0852 -0.7360 -0.8638
 1634TIP3   OH226316   2.126   4.656  15.987 -0.0435 -0.3339  0.1622
 1634TIP3    H126317   2.115   4.609  16.070 -1.1899 -0.9132 -0.3002
 1634TIP3    H226318   2.184   4.600  15.936  0.1258 -0.3035  0.3173
 1635TIP3   OH226319   3.438   2.988  15.387  0.1108  0.5038  0.2211
 1635TIP3    H126320   3.531   2.981  15.410  0.7654  2.5533 -1.6118
 1635TIP3    H226321   3.436   2.967  15.293 -1.3016  0.2388  0.3111
 1636TIP3   OH226322   4.998   6.098  15.805  0.0644  0.2217  0.0512
 1636TIP3    H126323   4.992   6.090  15.710 -0.3675 -0.2810  0.1223
 1636TIP3    H226324   4.958   6.018  15.839 -0.0337  0.5268  0.6641
 1637TIP3   OH226325   5.294   0.958  15.541 -0.1779 -0.0610  0.4454
 1637TIP3    H126326   5.208   0.963  15.500  0.2073 -0.2669 -0.3849
 1637TIP3    H226327   5.275   0.962  15.635 -1.0803  0.0481  0.2667
 1638TIP3   OH226328   0.596   6.220  16.942 -0.5718 -0.0284  0.1875
 1638TIP3    H126329   0.683   6.181  16.947 -0.5512 -0.0730 -0.4721
 1638TIP3    H226330   0.536   6.145  16.939 -0.6557  0.0029  0.9663
 1639TIP3   OH226331   5.224   0.108  16.872 -0.1350  0.1154  0.0723
 1639TIP3    H126332   5.145   0.117  16.819 -2.3033 -2.0714  2.7484
 1639TIP3    H226333   5.272   0.189  16.858 -1.2844  0.1885 -4.0589
 1640TIP3   OH226334   5.243   1.683   5.852  0.2437 -0.0056 -0.9953
 1640TIP3    H126335   5.230   1.594   5.821  2.2411  0.0161 -1.9233
 1640TIP3    H226336   5.192   1.688   5.933  0.1375 -1.9832 -0.9314
 1641TIP3   OH226337   1.224   4.073  16.225 -0.0658 -0.4893 -0.0381
 1641TIP3    H126338   1.229   3.977  16.227 -0.9003 -0.5147  1.8309
 1641TIP3    H226339   1.295   4.099  16.166  0.8100 -2.2230  0.2037
 1642TIP3   OH226340   1.684   4.104   1.552  0.0172 -0.1666  0.2373
 1642TIP3    H126341   1.712   4.141   1.468  1.1693  0.0099  0.6806
 1642TIP3    H226342   1.613   4.044   1.530 -0.0470  0.2833 -0.8011
 1643TIP3   OH226343   1.051   3.961   3.570  0.2924  0.0733  0.2212
 1643TIP3    H126344   0.976   3.969   3.510 -0.5949  0.0182  1.3033
 1643TIP3    H226345   1.074   4.051   3.591 -0.7793  0.0804  1.4638
 1644TIP3   OH226346   3.663   5.241   5.990 -0.4736  0.2284  0.2082
 1644TIP3    H126347   3.618   5.162   6.021 -1.2265  0.1093 -1.1623
 1644TIP3    H226348   3.736   5.252   6.051 -1.7973 -0.1099  1.8953
 1645TIP3   OH226349   2.050   1.202  15.163  0.3355 -0.1926 -0.4887
 1645TIP3    H126350   2.032   1.126  15.108 -0.3778  1.3633 -2.4592
 1645TIP3    H226351   2.143   1.222  15.148 -0.1056  0.8423 -1.9613
 1646TIP3   OH226352   4.780   1.212  10.633  0.0370 -0.2326 -0.2796
 1646TIP3    H126353   4.868   1.249  10.620  0.2650 -1.2966 -1.8441
 1646TIP3    H226354   4.796   1.121  10.656 -0.6928 -0.9388 -2.4531
 1647TIP3   OH226355   5.418   0.689  10.653 -0.1945  0.4258 -0.4307
 1647TIP3    H126356   5.501   0.643  10.637 -0.1110 -0.6166  2.5349
 1647TIP3    H226357   5.444   0.779  10.672  0.4965 -0.3296  2.4343
 1648TIP3   OH226358   3.606   2.068   1.365  0.0339  0.8464 -0.0632
 1648TIP3    H126359   3.665   2.043   1.294 -0.0933 -0.0837  0.1545
 1648TIP3    H226360   3.582   1.985   1.406  1.3528  1.4799  2.0587
 1649TIP3   OH226361   0.152   1.132  15.839  0.1654  0.2765 -0.0068
 1649TIP3    H126362   0.237   1.176  15.844 -0.6575  1.7010  2.9660
 1649TIP3    H226363   0.106   1.176  15.768  0.8000  1.6206  0.3920
 1650TIP3   OH226364   4.208   1.579  17.122 -1.0032  0.3749 -0.7910
 1650TIP3    H126365   4.174   1.560  17.210 -1.2719 -0.9886 -1.1870
 1650TIP3    H226366   4.240   1.495  17.089  2.2676  1.4882 -0.6694
 1651TIP3   OH226367   3.964   4.948  16.344 -0.6578  0.5546 -0.2122
 1651TIP3    H126368   3.937   4.873  16.396  2.6371  0.1728  1.0278
 1651TIP3    H226369   3.957   5.023  16.403  1.5679  0.3495  0.3565
 1652TIP3   OH226370   0.669   4.256  16.997  0.0771 -0.8694 -0.0599
 1652TIP3    H126371   0.671   4.258  16.901 -1.5398  0.1345 -0.0719
 1652TIP3    H226372   0.592   4.307  17.021  0.3547 -1.2928  1.7776
 1653TIP3   OH226373   0.922   2.589   3.834  0.0821  0.3589 -0.3433
 1653TIP3    H126374   0.903   2.646   3.909 -0.8718  0.4507 -0.6406
 1653TIP3    H226375   0.841   2.590   3.783  0.2262 -0.8866 -0.6003
 1654TIP3   OH226376   3.794   2.763  11.403 -0.2668 -0.5426 -0.4444
 1654TIP3    H126377   3.759   2.842  11.360 -0.2489 -0.5749 -0.5173
 1654TIP3    H226378   3.881   2.751  11.366 -0.0585 -0.2892 -0.0447
 1655TIP3   OH226379   4.584   4.102   0.108 -0.0886 -0.1930 -0.2086
 1655TIP3    H126380   4.592   4.170   0.041  2.1442  0.4749  0.6824
 1655TIP3    H226381   4.674   4.077   0.128 -0.6761 -0.1350  2.7930
 1656TIP3   OH226382   1.365   4.891  12.508  0.2239  0.2837 -0.6235
 1656TIP3    H126383   1.448   4.907  12.554 -0.4981 -3.0176  1.9787
 1656TIP3    H226384   1.388   4.829  12.439  0.2470  0.7671 -1.0510
 1657TIP3   OH226385   1.318   1.505   3.162 -0.0837 -0.1636  0.4382
 1657TIP3    H126386   1.334   1.573   3.227  0.1481  0.9323 -0.7480
 1657TIP3    H226387   1.254   1.447   3.203 -0.7195  1.0844  1.2257
 1658TIP3   OH226388   2.111   6.074   4.880 -0.2938 -0.9142  0.0606
 1658TIP3    H126389   2.069   6.159   4.864  1.0155 -0.2979 -0.1605
 1658TIP3    H226390   2.084   6.019   4.807 -1.0478 -0.6537  0.1399
 1659TIP3   OH226391   6.551   6.273   5.640 -0.4795 -0.0017  0.4450
 1659TIP3    H126392   6.507   6.309   5.717 -0.6480  0.0822  0.3109
 1659TIP3    H226393   6.625   6.332   5.625 -1.4730  1.0242 -0.5183
 1660TIP3   OH226394   3.881   6.220   0.223  0.5479 -0.4283  0.4227
 1660TIP3    H126395   3.858   6.300   0.270  1.7466  0.3493 -0.2710
 1660TIP3    H226396   3.975   6.228   0.207  0.2529 -0.8585 -1.7370
 1661TIP3   OH226397   5.219   2.055   5.657 -0.1077  0.5363  0.1008
 1661TIP3    H126398   5.220   2.150   5.649  3.3908  0.6679  1.2632
 1661TIP3    H226399   5.211   2.039   5.752 -1.7087 -0.3851 -0.1570
 1662TIP3   OH226400   3.951   3.161   6.066 -0.2807  0.2766  0.7777
 1662TIP3    H126401   3.918   3.194   5.982 -1.4241 -2.8808 -0.0916
 1662TIP3    H226402   4.043   3.188   6.067 -0.8164  2.2706 -0.4730
 1663TIP3   OH226403   3.627   4.794   0.076 -0.0150 -0.1518  0.1111
 1663TIP3    H126404   3.634   4.809   0.170  1.4304 -1.9925  0.3360
 1663TIP3    H226405   3.537   4.765   0.063  0.2195 -1.3997  1.1774
 1664TIP3   OH226406   1.610   2.154   5.059  0.4286  0.4204  0.8289
 1664TIP3    H126407   1.577   2.073   5.021  0.9337  0.4391  0.3373
 1664TIP3    H226408   1.697   2.131   5.093  1.6793  1.3525 -1.6155
 1665TIP3   OH226409   0.316   5.734   5.990 -0.2542  0.2500  0.1814
 1665TIP3    H126410   0.253   5.752   6.060  0.7498  0.7663  0.9782
 1665TIP3    H226411   0.359   5.819   5.975 -1.3179  0.4370 -1.9340
 1666TIP3   OH226412   5.218   5.221   1.585  0.4242 -0.4139  0.0792
 1666TIP3    H126413   5.125   5.235   1.601  0.3086  0.8067 -1.5311
 1666TIP3    H226414   5.238   5.138   1.628 -1.6373 -1.1902 -0.4270
 1667TIP3   OH226415   1.674   3.814   1.440  0.0307  0.1512 -0.4324
 1667TIP3    H126416   1.769   3.813   1.447 -0.0357  0.6142  0.6596
 1667TIP3    H226417   1.656   3.854   1.355  0.8113  0.3339 -0.5104
 1668TIP3   OH226418   2.553   4.805  12.239 -0.9116  0.8919  0.1123
 1668TIP3    H126419   2.605   4.798  12.159 -0.5503  0.2875  0.3942
 1668TIP3    H226420   2.470   4.843  12.211 -1.1289 -0.1759 -0.6949
 1669TIP3   OH226421   4.407   6.282  14.558  0.2221  0.5347  0.3526
 1669TIP3    H126422   4.393   6.369  14.595  2.0781  0.9080  0.1982
 1669TIP3    H226423   4.318   6.248  14.544 -0.5290  2.3589  0.4876
 1670TIP3   OH226424   6.311   0.923   6.287  0.3269 -0.2007  0.2979
 1670TIP3    H126425   6.215   0.923   6.294  0.2419  1.3098 -0.5482
 1670TIP3    H226426   6.333   0.835   6.256 -0.8802 -0.1975 -0.5995
 1671TIP3   OH226427   2.337   6.252   4.697  0.0119 -0.5775  0.3237
 1671TIP3    H126428   2.347   6.159   4.678 -2.0629 -0.9867  1.1771
 1671TIP3    H226429   2.411   6.293   4.651 -0.2628 -2.3909 -1.8399
 1672TIP3   OH226430   2.712   6.396  11.743  0.5118 -0.1958  0.2442
 1672TIP3    H126431   2.727   6.362  11.655 -0.6125  0.6370 -0.2855
 1672TIP3    H226432   2.709   6.491  11.731 -2.3215 -0.1777  0.7278
 1673TIP3   OH226433   0.550   4.259   2.585  0.1163 -0.0024  0.3193
 1673TIP3    H126434   0.637   4.254   2.545  0.0613  1.1524  0.0311
 1673TIP3    H226435   0.489   4.253   2.511  0.0244  2.7921  0.1003
 1674TIP3   OH226436   1.014   5.492  14.839 -0.0384 -0.0945 -0.2296
 1674TIP3    H126437   0.984   5.506  14.929  0.7091  0.7477 -0.1004
 1674TIP3    H226438   1.004   5.398  14.824 -0.1616 -0.2360  0.7414
 1675TIP3   OH226439   1.923   4.264   1.087  0.5342 -0.5402 -0.1428
 1675TIP3    H126440   1.951   4.340   1.035  0.0457  0.2191  0.6960
 1675TIP3    H226441   1.990   4.255   1.155 -1.6394  1.8339  2.4190
 1676TIP3   OH226442   1.376   3.275   4.439 -0.8468 -0.3657 -0.1704
 1676TIP3    H126443   1.430   3.333   4.493  0.1907 -1.0628 -0.4488
 1676TIP3    H226444   1.392   3.305   4.349 -0.3078 -1.0859 -0.3138
 1677TIP3   OH226445   0.008   6.433  12.750  0.2607  0.4215  0.3263
 1677TIP3    H126446  -0.068   6.440  12.692 -2.2357  0.8576  3.5234
 1677TIP3    H226447   0.025   6.339  12.757 -0.4285  0.2832  0.1525
 1678TIP3   OH226448   3.789   0.433  12.164 -0.3755  0.1016  0.0077
 1678TIP3    H126449   3.817   0.424  12.255 -0.1744  0.1280 -0.0540
 1678TIP3    H226450   3.698   0.403  12.165 -0.3284 -0.0365  0.1884
 1679TIP3   OH226451   0.468   4.884   3.137 -0.2748 -0.2741  0.0376
 1679TIP3    H126452   0.554   4.920   3.118 -0.0331 -0.8880 -0.0426
 1679TIP3    H226453   0.417   4.960   3.167  0.8222 -0.2068  1.8697
 1680TIP3   OH226454   4.141   1.416  13.946  0.7468  0.1647 -0.5383
 1680TIP3    H126455   4.116   1.366  14.023  1.1692  0.3168 -0.3032
 1680TIP3    H226456   4.118   1.506  13.967 -0.7617 -0.0386 -1.2766
 1681TIP3   OH226457   1.577   5.935   1.550 -0.7845  0.3921 -0.3580
 1681TIP3    H126458   1.668   5.946   1.521  0.2147  0.0587  2.5724
 1681TIP3    H226459   1.556   6.018   1.594 -1.8390  0.3622 -0.7831
 1682TIP3   OH226460   0.657   3.493  16.623 -0.1470  0.2500 -0.1905
 1682TIP3    H126461   0.585   3.518  16.682 -0.4847  0.3586 -0.6410
 1682TIP3    H226462   0.623   3.417  16.576  1.3819 -1.9671  2.1399
 1683TIP3   OH226463   4.064   3.583   5.198  0.4952  0.9325 -0.5028
 1683TIP3    H126464   4.063   3.647   5.270 -2.7517  0.4725 -0.0754
 1683TIP3    H226465   4.126   3.516   5.227  1.5902  2.3136  0.4414
 1684TIP3   OH226466   5.493   1.257  14.948 -0.0518 -0.4962 -0.2206
 1684TIP3    H126467   5.460   1.231  15.034 -0.3701 -1.0353 -0.5087
 1684TIP3    H226468   5.440   1.334  14.925 -0.3171 -0.6600 -0.1639
 1685TIP3   OH226469   0.755   4.409   2.264  0.4945  0.4070  0.5253
 1685TIP3    H126470   0.768   4.481   2.202  2.0932  1.6627  2.2451
 1685TIP3    H226471   0.735   4.333   2.209  1.8942  1.4689 -1.5390
 1686TIP3   OH226472   4.496   2.061  12.936 -0.6090 -0.0206  0.0113
 1686TIP3    H126473   4.524   2.019  12.855  1.3844 -0.1535  0.7561
 1686TIP3    H226474   4.465   2.148  12.909  0.7727  0.2264 -0.7972
 1687TIP3   OH226475   4.073   5.071   1.852  0.9151 -0.0904  0.0651
 1687TIP3    H126476   4.119   5.103   1.930  1.5371  2.0034 -1.1026
 1687TIP3    H226477   4.042   5.151   1.809  0.7662 -1.2005 -1.9439
 1688TIP3   OH226478   3.662   1.705  16.074 -0.5544 -0.1842 -0.5045
 1688TIP3    H126479   3.681   1.781  16.019 -2.1305 -0.2734 -1.1938
 1688TIP3    H226480   3.623   1.741  16.153  0.8038 -0.1254  0.1428
 1689TIP3   OH226481   0.320   1.162  10.878  0.0738  0.4512  0.5578
 1689TIP3    H126482   0.266   1.238  10.900 -0.7077  0.8152 -2.4348
 1689TIP3    H226483   0.263   1.087  10.891  0.6026  0.3852  2.7434
 1690TIP3   OH226484   3.002   1.244  16.872  0.2449 -0.0934 -0.5834
 1690TIP3    H126485   3.092   1.257  16.841  1.1795  0.3841  2.1797
 1690TIP3    H226486   2.964   1.332  16.873 -0.1545 -0.2540 -1.4408
 1691TIP3   OH226487   2.929   1.067   4.006  0.0942 -0.3278  0.3196
 1691TIP3    H126488   2.951   1.131   4.073  0.8693  0.3260 -0.5435
 1691TIP3    H226489   2.848   1.025   4.037  0.1643  0.3338  1.3902
 1692TIP3   OH226490   0.653   2.533  11.468 -0.6570  0.2341  0.8029
 1692TIP3    H126491   0.592   2.606  11.455  0.8514  1.4637  0.5367
 1692TIP3    H226492   0.668   2.530  11.562 -0.9188  0.0838  0.8426
 1693TIP3   OH226493   6.025   3.023  12.468  0.1320 -0.2918 -0.8559
 1693TIP3    H126494   6.003   3.113  12.445  1.0222 -0.5333 -2.7077
 1693TIP3    H226495   6.096   2.999  12.408 -1.5241 -2.9400 -1.8399
 1694TIP3   OH226496   2.614   2.334   2.052 -0.1317  0.7868  0.1063
 1694TIP3    H126497   2.601   2.378   2.136  1.1940  1.6327 -0.1193
 1694TIP3    H226498   2.533   2.285   2.038 -0.3718  0.6512  1.8680
 1695TIP3   OH226499   2.602   1.489  11.869  0.5789  0.2211  0.1579
 1695TIP3    H126500   2.614   1.405  11.826  0.0453  1.1940 -1.9756
 1695TIP3    H226501   2.691   1.519  11.889  0.8282 -0.3219 -0.1334
 1696TIP3   OH226502   2.121   1.813  15.436  0.4109  0.1839  0.0844
 1696TIP3    H126503   2.038   1.828  15.391 -0.0264 -0.4082  0.6868
 1696TIP3    H226504   2.099   1.755  15.508  1.7246 -1.7188 -1.0128
 1697TIP3   OH226505   5.971   5.415  11.708  0.3544 -0.9526 -0.0547
 1697TIP3    H126506   5.883   5.451  11.707  0.4944 -0.5983  0.2569
 1697TIP3    H226507   6.022   5.478  11.760  1.0080 -0.6477 -1.0533
 1698TIP3   OH226508   4.191   4.530   2.346 -0.0678  0.2894 -0.1567
 1698TIP3    H126509   4.280   4.559   2.327  0.1230  2.5489  3.7577
 1698TIP3    H226510   4.180   4.543   2.440 -2.9819 -4.4103  0.3305
 1699TIP3   OH226511   2.096   3.641   4.791  0.0319  0.6073 -0.1253
 1699TIP3    H126512   2.068   3.567   4.845 -0.4671  1.2541  0.5233
 1699TIP3    H226513   2.016   3.673   4.750 -0.5029  3.3422  2.8396
 1700TIP3   OH226514   3.903   3.898   1.620  0.7874 -0.1418  0.0426
 1700TIP3    H126515   3.916   3.849   1.540  0.2256  1.4329 -1.0332
 1700TIP3    H226516   3.906   3.990   1.593 -0.6097  0.3910  1.6291
 1701TIP3   OH226517   2.535   4.145   2.915 -0.3291 -0.2460 -0.3919
 1701TIP3    H126518   2.602   4.156   2.847 -0.3655  0.3460 -0.3373
 1701TIP3    H226519   2.482   4.224   2.909 -0.4150 -0.2521  0.2389
 1702TIP3   OH226520   6.154   1.997   0.102  0.5629  0.0103 -0.4470
 1702TIP3    H126521   6.097   1.922   0.118  0.9782  0.4171  3.4035
 1702TIP3    H226522   6.239   1.970   0.137  0.6280  2.3417  1.3028
 1703TIP3   OH226523   2.606   0.416  15.910 -0.0270  0.3310 -0.5960
 1703TIP3    H126524   2.576   0.507  15.904  1.1871  0.6947 -1.6415
 1703TIP3    H226525   2.660   0.405  15.831  1.7631 -0.5530  0.7391
 1704TIP3   OH226526   2.150   0.912   1.381  0.3026  0.3794  0.3426
 1704TIP3    H126527   2.088   0.932   1.310  0.7969 -0.3140 -0.2814
 1704TIP3    H226528   2.214   0.983   1.378 -0.1513  0.8124  0.6517
 1705TIP3   OH226529   3.290   1.897  16.813  0.5091  0.8196  0.2648
 1705TIP3    H126530   3.276   1.981  16.771  1.3682  1.1516  0.6441
 1705TIP3    H226531   3.258   1.833  16.750 -1.5861  1.4970  0.5998
 1706TIP3   OH226532   3.322   0.194   0.393 -0.0852 -0.1643 -0.0061
 1706TIP3    H126533   3.417   0.186   0.385 -0.1110 -0.3018 -0.1732
 1706TIP3    H226534   3.287   0.123   0.340 -0.2914  0.3781 -0.6071
 1707TIP3   OH226535   2.129   0.891   5.512  0.0248 -1.0662 -0.3654
 1707TIP3    H126536   2.089   0.930   5.435  0.2211 -0.8293 -0.3500
 1707TIP3    H226537   2.056   0.860   5.564 -0.1948  0.1236  0.0696
 1708TIP3   OH226538   4.310   1.889   3.805 -0.3280 -0.2402 -0.4081
 1708TIP3    H126539   4.341   1.866   3.893 -0.3521  1.1458 -0.0190
 1708TIP3    H226540   4.214   1.886   3.812 -0.3439  0.6684 -0.1524
 1709TIP3   OH226541   2.321   1.019   3.060  0.3153 -0.1736  0.8957
 1709TIP3    H126542   2.340   1.052   2.972  1.1826  3.6952  2.4638
 1709TIP3    H226543   2.323   0.924   3.050 -0.2889  0.1585 -3.4070
 1710TIP3   OH226544   3.987   1.203   3.396 -0.2871 -0.1842 -0.1826
 1710TIP3    H126545   3.963   1.170   3.482 -1.3541  0.0254 -0.3893
 1710TIP3    H226546   3.914   1.177   3.339 -0.6342  1.5714 -0.5747
 1711TIP3   OH226547   0.879   3.221   1.564  0.2772 -0.1936 -0.5615
 1711TIP3    H126548   0.868   3.260   1.477  0.6944 -0.4302 -0.7202
 1711TIP3    H226549   0.792   3.188   1.586  0.1610 -0.0997 -0.8732
 1712TIP3   OH226550   2.034   1.489   4.073  0.6763  0.1433 -0.2227
 1712TIP3    H126551   1.968   1.550   4.107  1.6352  1.0168  0.0975
 1712TIP3    H226552   2.011   1.405   4.113  0.6115  0.7408  1.0401
 1713TIP3   OH226553   4.543   3.586   2.654  0.8671  0.0023 -0.1693
 1713TIP3    H126554   4.494   3.602   2.573 -1.6907 -0.4209  1.2604
 1713TIP3    H226555   4.612   3.652   2.653 -0.5228  1.4776 -1.5785
 1714TIP3   OH226556   3.831   2.505   0.585 -0.2127 -0.3540 -0.3748
 1714TIP3    H126557   3.893   2.532   0.654 -0.9370  0.3306  0.0187
 1714TIP3    H226558   3.855   2.415   0.566 -0.3772 -0.7537  1.2049
 1715TIP3   OH226559   5.849   4.300  16.445 -0.1292 -0.1597  0.2437
 1715TIP3    H126560   5.922   4.359  16.427 -2.8264  2.6724 -1.9354
 1715TIP3    H226561   5.817   4.326  16.531  1.2957 -1.3390  1.1571
 1716TIP3   OH226562   4.691   0.557  12.569  0.2294  0.3711 -0.8940
 1716TIP3    H126563   4.782   0.577  12.591  0.4220  0.4215 -1.7133
 1716TIP3    H226564   4.696   0.475  12.519  0.0355  1.4779 -2.7645
 1717TIP3   OH226565   0.402   1.216  13.901  0.4889 -0.0070  0.2150
 1717TIP3    H126566   0.428   1.125  13.885 -0.2485 -0.3264  0.7986
 1717TIP3    H226567   0.431   1.263  13.824 -0.4972 -1.0201 -0.8013
 1718TIP3   OH226568   4.088   4.023  14.134 -0.0599 -0.1413  0.7721
 1718TIP3    H126569   4.145   3.946  14.129  0.6854  0.4348  0.2673
 1718TIP3    H226570   4.023   4.000  14.200 -0.0597 -1.3481  0.3704
 1719TIP3   OH226571   4.384   5.418   5.088 -0.1054  0.6824  0.0947
 1719TIP3    H126572   4.304   5.467   5.072  0.3593  0.7678 -2.1519
 1719TIP3    H226573   4.359   5.327   5.075 -0.4647  0.4648  2.1489
 1720TIP3   OH226574   3.377   3.359  13.373 -0.1971 -0.0450  0.4558
 1720TIP3    H126575   3.388   3.431  13.311  0.4346 -0.4642  0.0706
 1720TIP3    H226576   3.431   3.288  13.337 -1.5843 -1.0414  0.3103
 1721TIP3   OH226577   5.583   6.289   1.143 -0.0845 -0.3257 -0.1783
 1721TIP3    H126578   5.498   6.246   1.153  1.2230 -2.7063  1.1472
 1721TIP3    H226579   5.578   6.333   1.058 -3.8989  2.6218  1.4136
 1722TIP3   OH226580   4.455   3.342  12.484  0.4779  0.2238  0.6443
 1722TIP3    H126581   4.485   3.260  12.523  0.4561 -0.8681 -1.5605
 1722TIP3    H226582   4.536   3.389  12.462  0.4904  1.0228  2.3127
 1723TIP3   OH226583   1.961   0.232  12.441  0.4385 -0.1338  0.0077
 1723TIP3    H126584   1.946   0.165  12.374 -0.7682  0.6682 -0.5232
 1723TIP3    H226585   1.977   0.181  12.521  0.7114 -1.0740 -0.6302
 1724TIP3   OH226586   3.992   6.213   0.605  0.4791 -0.0944 -0.0358
 1724TIP3    H126587   4.024   6.254   0.686  1.0898 -1.3488  0.3730
 1724TIP3    H226588   4.045   6.133   0.596  0.2209 -0.1097 -1.5288
 1725TIP3   OH226589   4.424   3.814   1.576  0.0320  0.1009  0.4828
 1725TIP3    H126590   4.356   3.881   1.585  0.6609  0.4743  2.7659
 1725TIP3    H226591   4.400   3.747   1.640  1.3785 -0.1586  0.7214
 1726TIP3   OH226592   1.246   0.080   1.256  0.7030  0.0788 -0.0362
 1726TIP3    H126593   1.324   0.077   1.312  1.0881  0.8743 -0.5184
 1726TIP3    H226594   1.268   0.145   1.189 -0.2415  0.0448 -0.3775
 1727TIP3   OH226595   5.268   4.193   3.542  0.5298  0.6472 -0.0467
 1727TIP3    H126596   5.343   4.237   3.502  0.0884  0.7361 -0.7870
 1727TIP3    H226597   5.271   4.104   3.507 -0.1566  0.8729 -0.6895
 1728TIP3   OH226598   3.504   5.873  17.063 -0.5271  0.0068  0.0797
 1728TIP3    H126599   3.579   5.931  17.047  1.1602 -2.3717 -0.9367
 1728TIP3    H226600   3.543   5.787  17.078 -2.8854 -0.6514  3.0185
 1729TIP3   OH226601   2.822   5.322   0.565  0.8435  0.0437  0.1170
 1729TIP3    H126602   2.805   5.262   0.493  0.9655 -0.2904  0.3631
 1729TIP3    H226603   2.736   5.336   0.606  1.0997 -1.4477  1.2069
 1730TIP3   OH226604   3.802   2.869  13.306  0.0333 -1.1499  0.1639
 1730TIP3    H126605   3.894   2.868  13.280 -0.1638 -0.2041 -0.6192
 1730TIP3    H226606   3.771   2.780  13.288  0.7993 -1.4902  0.4925
 1731TIP3   OH226607   1.111   4.871   6.334  0.3491  0.1759 -0.1082
 1731TIP3    H126608   1.085   4.940   6.273 -2.8111 -0.5848  0.2873
 1731TIP3    H226609   1.184   4.909   6.383  0.0525  2.4414 -1.3360
 1732TIP3   OH226610   4.155   6.470   3.892  0.4046  0.0993  0.2703
 1732TIP3    H126611   4.097   6.473   3.968  0.7701 -1.6533  0.6435
 1732TIP3    H226612   4.218   6.401   3.913  2.2427  1.5343 -0.4054
 1733TIP3   OH226613   0.889   0.938  11.554  0.3836 -0.1165  0.5333
 1733TIP3    H126614   0.887   0.876  11.481 -1.2521  0.1747  0.3175
 1733TIP3    H226615   0.946   0.897  11.619  0.7913 -0.9806 -0.3623
 1734TIP3   OH226616   4.342   4.212   5.721  0.1529 -0.0711 -0.7037
 1734TIP3    H126617   4.255   4.237   5.753  0.5716  0.6876 -0.1321
 1734TIP3    H226618   4.325   4.159   5.643 -0.7363  3.0494 -2.7026
 1735TIP3   OH226619   5.900   1.765   1.797 -0.0707 -0.4544 -0.0577
 1735TIP3    H126620   5.808   1.791   1.807 -0.0442 -0.8366  1.2464
 1735TIP3    H226621   5.948   1.847   1.790 -0.5316 -0.2565 -1.0340
 1736TIP3   OH226622   1.001   0.829  14.780 -0.5213  0.1519  0.6730
 1736TIP3    H126623   0.945   0.795  14.850  1.5035 -1.2485  1.6681
 1736TIP3    H226624   1.008   0.756  14.718 -3.4440  1.8305 -1.7910
 1737TIP3   OH226625   6.426   2.918   0.431  0.4276  0.3489 -0.6906
 1737TIP3    H126626   6.394   2.827   0.430 -1.7537  1.1012 -1.8524
 1737TIP3    H226627   6.469   2.927   0.516 -1.5772 -1.0361  0.5355
 1738TIP3   OH226628   5.983   6.219  11.363  0.1013 -0.0232  0.2922
 1738TIP3    H126629   6.015   6.136  11.397 -0.2182  0.2755  1.3374
 1738TIP3    H226630   6.057   6.255  11.314  1.5964  0.8942  3.1080
 1739TIP3   OH226631   4.348   0.973  17.156 -0.5372 -0.2001 -0.8252
 1739TIP3    H126632   4.331   0.890  17.112 -2.1904  0.6374 -1.8079
 1739TIP3    H226633   4.309   0.963  17.243  1.5833 -1.3794  0.0328
 1740TIP3   OH226634   0.943   1.096   5.465  0.5639  0.2110 -0.2355
 1740TIP3    H126635   0.878   1.034   5.498  1.0262 -0.1682 -0.0353
 1740TIP3    H226636   0.998   1.117   5.541  0.9759  0.1529 -0.5136
 1741TIP3   OH226637   3.183   2.311   0.909 -0.3215  0.3408 -0.2111
 1741TIP3    H126638   3.181   2.313   0.814  1.4444 -1.2342 -0.3141
 1741TIP3    H226639   3.274   2.329   0.932 -0.4549 -0.5777  1.1216
 1742TIP3   OH226640   4.402   1.616  11.855 -0.9075  0.5069  0.0934
 1742TIP3    H126641   4.414   1.612  11.950  0.7070  3.4755  0.0471
 1742TIP3    H226642   4.490   1.628  11.820 -1.3191 -1.8456 -1.9329
 1743TIP3   OH226643   2.724   0.440  10.563 -0.2661 -0.5800  0.1040
 1743TIP3    H126644   2.699   0.388  10.639  0.4900 -2.2473 -0.7666
 1743TIP3    H226645   2.749   0.376  10.497  0.6230  0.8952 -1.0211
 1744TIP3   OH226646   3.517   2.870  13.987  0.6596 -0.1689 -0.0453
 1744TIP3    H126647   3.424   2.871  14.010  0.4118  0.3957 -1.0139
 1744TIP3    H226648   3.532   2.784  13.948  0.6905 -0.4885  0.6624
 1745TIP3   OH226649   5.945   0.167  11.602 -0.0451  0.3130 -0.0760
 1745TIP3    H126650   6.032   0.128  11.617 -0.8733 -1.8879 -0.7893
 1745TIP3    H226651   5.906   0.172  11.689  0.0349 -0.5565  0.0137
 1746TIP3   OH226652   5.991   3.934  14.465  0.0561 -0.5741  0.4663
 1746TIP3    H126653   5.908   3.933  14.514  2.3414  1.1179  4.5710
 1746TIP3    H226654   5.987   4.014  14.412 -1.6358 -1.4609 -0.8281
 1747TIP3   OH226655   0.917   1.415   1.306  0.2567 -0.0597 -0.0800
 1747TIP3    H126656   0.883   1.454   1.225  0.0343 -0.1443 -0.0275
 1747TIP3    H226657   0.841   1.413   1.365 -0.4428 -3.0848 -1.0117
 1748TIP3   OH226658   5.262   0.630  11.374 -0.1117 -0.5322 -0.7001
 1748TIP3    H126659   5.244   0.562  11.310 -1.9580  0.1902 -0.9586
 1748TIP3    H226660   5.256   0.712  11.325  0.4617 -0.0742 -0.0303
 1749TIP3   OH226661   6.559   3.175  15.932 -0.2351 -0.2463  0.1659
 1749TIP3    H126662   6.591   3.169  15.842 -1.8659  0.4100 -0.4963
 1749TIP3    H226663   6.557   3.269  15.950  0.2100 -0.3838  0.9414
 1750TIP3   OH226664   3.563   5.671   3.170 -0.2297 -0.2999 -0.0623
 1750TIP3    H126665   3.537   5.620   3.247  1.3632 -1.6607 -0.4000
 1750TIP3    H226666   3.495   5.653   3.105 -0.3911 -0.9029  0.2707
 1751TIP3   OH226667   6.773   3.382   0.043  0.6358  0.1283  0.6580
 1751TIP3    H126668   6.713   3.405  -0.027 -0.1454 -1.0368  0.9263
 1751TIP3    H226669   6.721   3.387   0.123  0.5831 -1.9102  0.7854
 1752TIP3   OH226670   4.027   1.256   4.008 -0.1906  0.0466  0.6375
 1752TIP3    H126671   3.954   1.317   4.000  0.5189  0.7636 -0.5771
 1752TIP3    H226672   3.993   1.173   3.974 -0.4126  0.4157 -0.0535
 1753TIP3   OH226673   2.207   0.126  16.227  0.2408  0.1363  0.2958
 1753TIP3    H126674   2.192   0.061  16.296 -3.0467  1.6649  1.1326
 1753TIP3    H226675   2.230   0.206  16.275 -0.5654  0.8272 -0.4652
 1754TIP3   OH226676   6.268   0.241   1.377 -0.0261 -0.0756  0.4044
 1754TIP3    H126677   6.322   0.291   1.317 -1.6072  0.1667 -0.8331
 1754TIP3    H226678   6.191   0.216   1.326 -0.4323 -1.6247  1.7237
 1755TIP3   OH226679   0.749   3.658   2.749  0.2443 -0.0077  0.3521
 1755TIP3    H126680   0.818   3.597   2.722 -0.2405  0.3008 -1.6832
 1755TIP3    H226681   0.667   3.614   2.724 -0.2357  0.1699  1.6140
 1756TIP3   OH226682   5.610   6.240   3.897 -0.5535  0.5228  0.3714
 1756TIP3    H126683   5.602   6.256   3.991  0.3892 -0.7204  0.6849
 1756TIP3    H226684   5.692   6.283   3.872  1.0177 -2.1182  0.8439
 1757TIP3   OH226685   5.720   4.590  15.776 -0.2106  0.0364  0.2961
 1757TIP3    H126686   5.637   4.624  15.743  0.9085  2.6392  0.0450
 1757TIP3    H226687   5.754   4.537  15.704 -1.3055 -0.5149  0.1606
 1758TIP3   OH226688   3.833   2.375  12.386 -0.9725  0.4852 -0.9515
 1758TIP3    H126689   3.816   2.468  12.402  0.2417  0.5937 -0.2198
 1758TIP3    H226690   3.929   2.369  12.381 -0.9788 -0.9432  0.3612
 1759TIP3   OH226691   1.836   2.770  12.906  0.3193  0.8583 -0.0467
 1759TIP3    H126692   1.775   2.833  12.867 -0.0512  0.9653  0.6994
 1759TIP3    H226693   1.923   2.807  12.887  0.0613  2.9832  2.6469
 1760TIP3   OH226694   2.674   5.897  11.192 -0.2332 -0.8308  0.0741
 1760TIP3    H126695   2.722   5.896  11.109  1.7708 -0.6428  1.2199
 1760TIP3    H226696   2.590   5.855  11.170  0.4573 -1.2567 -1.9263
 1761TIP3   OH226697   6.415   2.814   1.200 -0.3864 -0.5886  0.4681
 1761TIP3    H126698   6.326   2.777   1.203 -1.4338  1.8328  0.0925
 1761TIP3    H226699   6.402   2.905   1.175  2.2226 -0.1736  0.5552
 1762TIP3   OH226700   3.513   3.490  12.511 -0.0949  0.0206 -0.0684
 1762TIP3    H126701   3.534   3.398  12.493  0.7509  0.2094 -0.0786
 1762TIP3    H226702   3.523   3.534  12.427 -1.1896  0.0032 -0.2139
 1763TIP3   OH226703   0.006   0.867   1.307  0.3238  0.3839  0.1285
 1763TIP3    H126704  -0.015   0.789   1.256 -2.3789  0.8376  0.4481
 1763TIP3    H226705  -0.000   0.838   1.398 -1.4475  1.1211  0.2586
 1764TIP3   OH226706   6.733   4.783  11.482  1.0421  0.2182  0.6107
 1764TIP3    H126707   6.646   4.820  11.496  1.7970  1.3207  2.6153
 1764TIP3    H226708   6.731   4.750  11.392 -0.8655  1.8286  0.0200
 1765TIP3   OH226709   2.692   4.535   5.073  0.1058  0.3265 -0.0896
 1765TIP3    H126710   2.614   4.496   5.034 -0.0916 -0.5507  1.1235
 1765TIP3    H226711   2.749   4.556   4.999 -0.7973 -0.0897 -0.9084
 1766TIP3   OH226712   1.922   0.623  14.660  0.8323 -0.0762  0.0236
 1766TIP3    H126713   1.893   0.549  14.607 -2.3874  0.3217  1.1691
 1766TIP3    H226714   1.938   0.585  14.747  0.1504  0.3979  0.3546
 1767TIP3   OH226715   4.543   5.166  13.859 -0.2664 -0.1086 -0.1308
 1767TIP3    H126716   4.537   5.146  13.952 -1.8445  0.1596 -0.1705
 1767TIP3    H226717   4.577   5.086  13.819  1.1816  0.0443  0.7644
 1768TIP3   OH226718   6.610   0.753   4.008  0.0454  0.4611  0.0854
 1768TIP3    H126719   6.539   0.764   4.072  0.6952 -0.5301  1.0028
 1768TIP3    H226720   6.669   0.826   4.027 -0.7008  1.2721 -0.6615
 1769TIP3   OH226721   3.430   3.375  11.285  0.1127  0.0102  0.3214
 1769TIP3    H126722   3.356   3.362  11.227 -0.2240 -0.5242  0.8659
 1769TIP3    H226723   3.489   3.433  11.237 -0.7555  0.6078 -0.0285
 1770TIP3   OH226724   0.405   3.863   0.163 -0.2613 -0.2139  0.5397
 1770TIP3    H126725   0.354   3.797   0.211 -0.2417 -1.0800 -0.6360
 1770TIP3    H226726   0.469   3.813   0.113 -0.3507  0.6937 -0.4860
 1771TIP3   OH226727   6.327   6.118   1.478  0.1345  0.0313  0.0740
 1771TIP3    H126728   6.375   6.194   1.446 -0.7874  0.2812 -0.7471
 1771TIP3    H226729   6.236   6.137   1.457 -0.4744  0.0327  2.5221
 1772TIP3   OH226730   2.030   6.398  15.455 -0.8092  0.0704  0.2592
 1772TIP3    H126731   2.026   6.412  15.549 -1.2883 -0.0845  0.2624
 1772TIP3    H226732   1.939   6.397  15.427 -0.7212 -1.0963 -0.0280
 1773TIP3   OH226733   0.091   2.151  15.332  0.0979 -0.4559 -0.4377
 1773TIP3    H126734   0.028   2.151  15.405  1.3733 -0.6336  0.6713
 1773TIP3    H226735   0.133   2.237  15.337  2.6326 -1.7467  1.1759
 1774TIP3   OH226736   3.918   5.612  11.854 -0.3717 -0.1403 -0.0717
 1774TIP3    H126737   4.004   5.588  11.889 -1.3223 -0.8865  1.8340
 1774TIP3    H226738   3.873   5.528  11.841 -0.6443  0.2161 -1.5226
 1775TIP3   OH226739   2.897   0.761   3.081 -0.6111  0.3202 -0.2699
 1775TIP3    H126740   2.925   0.674   3.108 -1.9129 -0.0004  0.0594
 1775TIP3    H226741   2.812   0.748   3.039 -1.6639  1.6406  1.3571
 1776TIP3   OH226742   1.640   1.411  16.297 -0.3979 -0.3922 -0.5774
 1776TIP3    H126743   1.708   1.475  16.275  0.1950 -0.5945  0.6207
 1776TIP3    H226744   1.591   1.399  16.216  0.6870  0.1304 -1.3186
 1777TIP3   OH226745   0.581   5.946  12.334 -0.2907 -0.8165 -0.1355
 1777TIP3    H126746   0.622   5.971  12.250 -0.6232 -1.3427 -0.4558
 1777TIP3    H226747   0.567   5.852  12.326 -1.3430 -0.6761  0.0723
 1778TIP3   OH226748   0.062   2.649   2.928 -0.2430 -0.3790 -0.1071
 1778TIP3    H126749   0.020   2.712   2.869 -0.3328 -0.0818  0.2742
 1778TIP3    H226750   0.023   2.565   2.905 -0.0190 -0.3240 -0.7193
 1779TIP3   OH226751   2.934   2.969  14.353 -0.0921  0.3372  0.2181
 1779TIP3    H126752   2.981   3.045  14.318 -0.3267  0.4127  0.0661
 1779TIP3    H226753   3.000   2.920  14.401 -0.2859  1.4761  1.6927
 1780TIP3   OH226754   0.052   3.180   1.397 -0.1408  0.0490 -0.4140
 1780TIP3    H126755   0.004   3.160   1.316  2.9904 -0.3931 -2.2268
 1780TIP3    H226756   0.061   3.275   1.397 -1.7143  0.2069  0.3593
 1781TIP3   OH226757   0.197   2.566   1.379  1.0223  0.4494  0.0806
 1781TIP3    H126758   0.209   2.535   1.469 -0.6093 -0.9145 -0.1453
 1781TIP3    H226759   0.140   2.642   1.387 -0.1001 -0.3845  0.1127
 1782TIP3   OH226760   3.165   5.307   5.178 -0.2494 -0.2892  0.4936
 1782TIP3    H126761   3.189   5.398   5.162 -1.3639 -0.4587 -2.3493
 1782TIP3    H226762   3.085   5.294   5.126 -0.0191 -2.9222  0.7541
 1783TIP3   OH226763   3.617   1.184  14.848  0.3316 -0.0725 -0.3424
 1783TIP3    H126764   3.645   1.093  14.837  1.7481  0.3225 -0.1008
 1783TIP3    H226765   3.678   1.234  14.795  0.9333  0.9440  1.2747
 1784TIP3   OH226766   0.608   3.409   3.233  0.1685  0.4558 -0.1148
 1784TIP3    H126767   0.528   3.404   3.181 -1.0549  2.3673  1.5153
 1784TIP3    H226768   0.620   3.320   3.267 -0.6551 -0.1018 -1.2285
 1785TIP3   OH226769   1.543   4.853   2.945  0.1419 -0.3774  0.2293
 1785TIP3    H126770   1.592   4.771   2.945  1.0538  0.1643 -0.2277
 1785TIP3    H226771   1.549   4.885   3.035 -1.9793 -1.8419  0.9350
 1786TIP3   OH226772   3.323   2.686  15.746 -0.7313  0.1430 -0.4179
 1786TIP3    H126773   3.237   2.722  15.768 -0.6650  0.4060 -0.5860
 1786TIP3    H226774   3.377   2.705  15.823 -1.3660 -1.8874  0.5676
 1787TIP3   OH226775   0.368   5.158  14.526  0.3310  0.3003 -0.0986
 1787TIP3    H126776   0.432   5.097  14.491  0.2690  1.3021 -2.0279
 1787TIP3    H226777   0.361   5.227  14.460 -0.3796  1.8613  1.5293
 1788TIP3   OH226778   4.992   2.997   5.724  0.5103 -0.1121  0.1951
 1788TIP3    H126779   4.946   3.081   5.716 -1.3923 -0.9702  1.6372
 1788TIP3    H226780   4.993   2.961   5.635  0.8659  1.1995 -0.3312
 1789TIP3   OH226781   4.982   2.690   0.032 -0.2525  0.4701  0.5969
 1789TIP3    H126782   5.061   2.732   0.067  0.1850  0.5745 -0.5103
 1789TIP3    H226783   4.986   2.600   0.066 -0.2325  0.7804  1.4401
 1790TIP3   OH226784   1.259   4.672   3.044 -0.2157 -0.2066  0.1835
 1790TIP3    H126785   1.291   4.737   2.981 -0.1624 -0.0002  0.4244
 1790TIP3    H226786   1.262   4.589   2.996 -0.3024 -0.0293 -0.1318
 1791TIP3   OH226787   3.772   6.397  12.630 -0.3214  0.7712  0.0541
 1791TIP3    H126788   3.852   6.359  12.594  0.5224  2.4193  0.1342
 1791TIP3    H226789   3.709   6.390  12.558 -0.6343 -2.0801  0.5668
 1792TIP3   OH226790   4.062   2.824   0.315  0.1069 -0.1504 -0.4631
 1792TIP3    H126791   3.999   2.754   0.297  0.8403 -0.8871 -0.1804
 1792TIP3    H226792   4.008   2.899   0.340 -0.6631 -0.7415 -0.3530
 1793TIP3   OH226793   4.171   6.168   1.231  0.1163 -0.3461  0.1202
 1793TIP3    H126794   4.175   6.081   1.191  0.8849 -0.4716  0.4529
 1793TIP3    H226795   4.166   6.151   1.325 -2.0420 -0.0571  0.0666
 1794TIP3   OH226796   0.263   2.883   5.510  0.3076 -0.2558 -0.3767
 1794TIP3    H126797   0.184   2.875   5.458 -0.0279 -0.0949  0.1023
 1794TIP3    H226798   0.290   2.793   5.526  0.1328 -0.3141 -0.4086
 1795TIP3   OH226799   2.102   5.771   3.096  0.6665  0.2869 -0.5171
 1795TIP3    H126800   2.043   5.804   3.163  1.2004 -0.4639  0.3287
 1795TIP3    H226801   2.048   5.769   3.016  0.1407  1.5093 -0.1978
 1796TIP3   OH226802   3.472   1.632   2.918  0.2698  0.1912  0.5801
 1796TIP3    H126803   3.428   1.614   2.835  1.2119 -0.3655  0.1984
 1796TIP3    H226804   3.406   1.676   2.971  0.0786  1.7897 -0.9478
 1797TIP3   OH226805   0.785   3.880   5.469 -0.4694 -0.1776 -1.0427
 1797TIP3    H126806   0.711   3.881   5.408 -0.8883 -1.1834 -0.5597
 1797TIP3    H226807   0.745   3.874   5.556  0.1834 -2.0779 -0.8441
 1798TIP3   OH226808   0.342   4.343   4.215 -0.0568  0.2542  0.3469
 1798TIP3    H126809   0.247   4.345   4.206  0.0252 -0.9935 -0.9526
 1798TIP3    H226810   0.364   4.250   4.217  1.2800  0.5190 -1.0560
 1799TIP3   OH226811   4.190   0.690   0.166  0.2008 -0.0595 -0.4652
 1799TIP3    H126812   4.147   0.769   0.200  1.2349  1.0703 -1.7117
 1799TIP3    H226813   4.143   0.618   0.207 -2.8947  1.1125 -1.8237
 1800TIP3   OH226814   3.597   4.609   4.002  0.2604 -0.1530 -0.3548
 1800TIP3    H126815   3.509   4.570   4.000  0.7293 -1.3477  0.7508
 1800TIP3    H226816   3.583   4.702   3.987 -0.9903 -0.6299 -2.2930
 1801TIP3   OH226817   0.582   6.532  11.104  1.2467  0.1439 -0.0053
 1801TIP3    H126818   0.496   6.514  11.142  0.8694 -0.4570 -1.1161
 1801TIP3    H226819   0.605   6.452  11.058  2.1549  0.5051 -0.1767
 1802TIP3   OH226820   0.950   3.411   2.904 -0.0068  0.5707  0.2021
 1802TIP3    H126821   0.927   3.466   2.978  0.1058 -0.6965  1.1956
 1802TIP3    H226822   0.899   3.331   2.917 -2.1828  1.4017 -2.5995
 1803TIP3   OH226823   0.553   2.458   2.645 -0.4313 -0.2585 -0.0246
 1803TIP3    H126824   0.625   2.494   2.698 -0.3342  0.7693 -0.8246
 1803TIP3    H226825   0.589   2.377   2.609  0.4427  0.3817 -0.6313
 1804TIP3   OH226826   3.070   3.951   5.849 -0.0638  0.0525  0.2205
 1804TIP3    H126827   3.006   3.917   5.912 -0.1714 -2.4370 -1.2095
 1804TIP3    H226828   3.022   4.018   5.801 -1.3524 -1.1733 -0.2364
 1805TIP3   OH226829   4.668   2.863  13.429  0.5942 -0.5996  0.1810
 1805TIP3    H126830   4.614   2.894  13.357  0.5169 -3.2437 -0.9763
 1805TIP3    H226831   4.606   2.844  13.499  0.5447  0.8041  0.5355
 1806TIP3   OH226832   3.132   3.195  15.715 -0.5009  0.0127 -0.5704
 1806TIP3    H126833   3.205   3.143  15.683  0.2473  1.3365 -1.0635
 1806TIP3    H226834   3.146   3.282  15.677 -2.0621  0.4062 -0.2740
 1807TIP3   OH226835   5.990   4.106   4.869  0.2439  0.1190 -0.4647
 1807TIP3    H126836   5.978   4.012   4.858  0.8452  0.2850 -2.6052
 1807TIP3    H226837   6.000   4.141   4.781  0.0919  2.2012  0.2916
 1808TIP3   OH226838   1.095   5.070   4.193  0.0620  0.2928 -0.1173
 1808TIP3    H126839   1.039   5.145   4.213 -2.3226 -0.9731 -1.6988
 1808TIP3    H226840   1.074   5.006   4.261  1.5711  0.7834  0.8226
 1809TIP3   OH226841   1.208   5.253  15.096 -0.2715  0.3942  0.3596
 1809TIP3    H126842   1.129   5.306  15.103 -1.3828 -1.3021  0.7619
 1809TIP3    H226843   1.177   5.165  15.077  1.5457 -0.2175  0.1014
 1810TIP3   OH226844   6.544   2.410   5.770  0.2588 -0.2889 -0.5307
 1810TIP3    H126845   6.533   2.392   5.864  3.3260 -1.4769 -0.3343
 1810TIP3    H226846   6.552   2.506   5.765 -1.4624 -0.0837  0.1997
 1811TIP3   OH226847   6.142   3.003   0.896  0.1165  0.1102  0.4618
 1811TIP3    H126848   6.175   2.986   0.808 -0.6062 -0.5488  0.3086
 1811TIP3    H226849   6.165   3.094   0.914  0.9797  0.0042 -0.0900
 1812TIP3   OH226850   5.997   1.174   4.888  0.2049  0.0545  0.3655
 1812TIP3    H126851   5.975   1.265   4.908  0.6615  0.8300 -2.5474
 1812TIP3    H226852   5.991   1.129   4.973 -3.2234  2.1144  1.3176
 1813TIP3   OH226853   6.595   3.635   4.374 -0.5380 -0.0636 -0.7662
 1813TIP3    H126854   6.592   3.641   4.470  1.4362 -0.2297 -0.6705
 1813TIP3    H226855   6.662   3.698   4.348  2.4247 -3.4208 -1.6473
 1814TIP3   OH226856   5.074   5.473  16.012 -0.2443 -0.0605  0.2953
 1814TIP3    H126857   5.067   5.544  16.075 -2.7741  0.0620 -0.0815
 1814TIP3    H226858   5.064   5.393  16.064 -0.4520 -0.0252  0.3107
 1815TIP3   OH226859   4.669   0.619  14.287 -0.1375 -0.0034  0.0499
 1815TIP3    H126860   4.707   0.609  14.200  0.2680 -1.6180  0.4019
 1815TIP3    H226861   4.728   0.679  14.332  2.0775 -2.5189  0.6025
 1816TIP3   OH226862   1.008   0.242  11.296  0.0422  0.4668 -0.2941
 1816TIP3    H126863   1.062   0.271  11.369 -1.1140 -0.3280  0.9019
 1816TIP3    H226864   1.010   0.315  11.234  0.0617  1.6496  1.0657
 1817TIP3   OH226865   0.084   4.293  14.665 -0.1313 -0.9489 -0.0462
 1817TIP3    H126866  -0.009   4.279  14.650 -0.2766 -0.4347  0.3350
 1817TIP3    H226867   0.087   4.364  14.729  0.5356 -0.4830 -0.5852
 1818TIP3   OH226868   1.231   3.384   3.536 -0.4907  0.4308  0.4819
 1818TIP3    H126869   1.161   3.448   3.531 -1.3481 -0.4876  0.5178
 1818TIP3    H226870   1.282   3.396   3.456 -1.4977  0.1907 -0.2041
 1819TIP3   OH226871   4.212   4.598  14.588  0.1123  0.3192 -0.1735
 1819TIP3    H126872   4.299   4.626  14.558  1.3163 -0.4913  2.3359
 1819TIP3    H226873   4.206   4.506  14.562 -0.7048  0.8283 -1.8153
 1820TIP3   OH226874   1.350   3.026  16.569 -0.0967  0.2636  0.7350
 1820TIP3    H126875   1.274   3.017  16.511  0.0015 -0.6996  0.7491
 1820TIP3    H226876   1.400   3.098  16.531 -0.2001 -0.1442 -0.2119
 1821TIP3   OH226877   0.729   5.937   5.634  0.1512  0.4277 -0.1037
 1821TIP3    H126878   0.779   5.856   5.642  0.1735  0.4522 -0.0044
 1821TIP3    H226879   0.785   6.004   5.673 -1.0696  0.0233  2.4316
 1822TIP3   OH226880   1.071   0.758   5.080  0.0193 -0.3058 -1.0041
 1822TIP3    H126881   1.003   0.707   5.124  0.7071 -1.3715 -1.1397
 1822TIP3    H226882   1.032   0.844   5.066  0.1142  0.4179  2.6342
 1823TIP3   OH226883   0.166   1.089  14.482  0.1350 -0.1204 -1.0613
 1823TIP3    H126884   0.214   1.159  14.527 -0.3795  0.9025 -2.0439
 1823TIP3    H226885   0.189   1.009  14.529 -0.8957  0.9855  1.4064
 1824TIP3   OH226886   2.877   2.003  14.957 -0.0131 -0.1616 -0.4693
 1824TIP3    H126887   2.807   2.031  15.016  1.6989  1.9773  0.5927
 1824TIP3    H226888   2.834   1.994  14.872 -1.8173 -0.0154  0.4075
 1825TIP3   OH226889   3.774   3.251   1.471  0.1885  0.0551 -0.0461
 1825TIP3    H126890   3.765   3.177   1.531  1.0949  0.2181  0.2870
 1825TIP3    H226891   3.703   3.311   1.497 -1.4265 -1.3001 -1.2143
 1826TIP3   OH226892   2.366   3.495  16.762 -0.5349 -0.1416 -0.1402
 1826TIP3    H126893   2.294   3.553  16.740 -0.0745  0.3275 -0.4227
 1826TIP3    H226894   2.325   3.410  16.775 -0.9974 -0.1177 -1.3931
 1827TIP3   OH226895   6.690   4.471   1.513  0.0227  0.8464 -0.3611
 1827TIP3    H126896   6.762   4.473   1.576 -0.2808 -0.0347  0.0301
 1827TIP3    H226897   6.683   4.379   1.488 -0.6978  0.9917 -0.7170
 1828TIP3   OH226898   2.742   4.060  14.520  0.3334 -0.5972 -0.2376
 1828TIP3    H126899   2.662   4.047  14.469 -0.6162  0.5214  0.9323
 1828TIP3    H226900   2.805   4.096  14.457  0.2154 -2.3120 -1.3782
 1829TIP3   OH226901   5.690   1.378  13.713 -0.2933  0.3389  0.3367
 1829TIP3    H126902   5.751   1.310  13.686 -0.2164  0.4333  0.2711
 1829TIP3    H226903   5.685   1.369  13.808 -0.3449  0.1900  0.3192
 1830TIP3   OH226904   5.733   2.504   3.224 -0.2510 -0.0365 -0.7270
 1830TIP3    H126905   5.804   2.441   3.234 -0.3325  0.2729  2.3208
 1830TIP3    H226906   5.773   2.589   3.245 -0.9315  0.4844 -1.5121
 1831TIP3   OH226907   1.742   3.532  15.229 -0.0342  0.3523  0.0008
 1831TIP3    H126908   1.793   3.597  15.180 -1.2073  0.7323 -0.7324
 1831TIP3    H226909   1.712   3.579  15.306  0.2907  0.2755  0.1751
 1832TIP3   OH226910   0.015   3.155   5.090  0.0427 -0.0997 -1.0678
 1832TIP3    H126911   0.067   3.135   5.012  0.1850  0.3912 -1.0945
 1832TIP3    H226912   0.069   3.215   5.141 -0.5649  0.5351 -1.1744
 1833TIP3   OH226913   0.936   1.717  12.932  0.0333  0.0737 -0.1997
 1833TIP3    H126914   0.891   1.801  12.942  0.3619  0.3629 -1.0871
 1833TIP3    H226915   1.028   1.739  12.921  0.2164 -0.4452  0.2295
 1834TIP3   OH226916   1.365   4.757   0.068 -0.2250 -0.7072  0.7318
 1834TIP3    H126917   1.290   4.713   0.028 -0.5216  0.6829 -0.2569
 1834TIP3    H226918   1.439   4.732   0.013 -0.1793 -0.9901  0.9195
 1835TIP3   OH226919   0.681   0.754  11.593 -0.4843 -0.1083 -0.1274
 1835TIP3    H126920   0.678   0.709  11.677  0.1056 -0.6597 -0.3925
 1835TIP3    H226921   0.735   0.831  11.608 -2.7196  1.3390  0.7023
 1836TIP3   OH226922   6.477   2.054   1.521 -0.3905  0.4312  0.2386
 1836TIP3    H126923   6.467   2.109   1.443  0.8921  0.0788 -0.2004
 1836TIP3    H226924   6.412   2.087   1.583 -0.7768  1.3391 -0.6354
 1837TIP3   OH226925   2.861   1.154   4.551 -0.1851 -0.6135  0.0519
 1837TIP3    H126926   2.895   1.171   4.638 -2.4942  0.3359  0.8083
 1837TIP3    H226927   2.854   1.059   4.546  1.2902 -0.7431  0.3691
 1838TIP3   OH226928   1.108   4.151  15.427 -0.0611 -0.6933 -0.3462
 1838TIP3    H126929   1.077   4.077  15.376  1.6294 -1.8319  0.2115
 1838TIP3    H226930   1.052   4.152  15.505  0.6088 -2.0884  0.1730
 1839TIP3   OH226931   1.221   5.988   3.407 -0.0834 -0.2969  0.0281
 1839TIP3    H126932   1.186   5.973   3.495  1.9047 -1.6526  0.6367
 1839TIP3    H226933   1.191   5.913   3.356 -2.0686  0.9849 -0.7529
 1840TIP3   OH226934   2.805   4.470   1.496 -0.6193  0.1984 -0.7583
 1840TIP3    H126935   2.788   4.385   1.454  0.7313 -0.9514  0.9607
 1840TIP3    H226936   2.797   4.452   1.590  0.0775  1.8991 -0.3617
 1841TIP3   OH226937   2.675   5.162  13.832  0.0753 -0.0163 -0.8716
 1841TIP3    H126938   2.670   5.250  13.794  2.6536  0.1689 -0.9036
 1841TIP3    H226939   2.720   5.110  13.765 -1.1900 -1.3049 -0.7423
 1842TIP3   OH226940   4.232   5.888  13.681 -0.0212 -0.4066 -0.3046
 1842TIP3    H126941   4.141   5.914  13.699 -0.2604  1.2419 -3.4979
 1842TIP3    H226942   4.285   5.943  13.739 -0.9159  1.8899 -1.5641
 1843TIP3   OH226943   1.027   5.450  14.545 -0.2086 -0.2028  0.8293
 1843TIP3    H126944   1.003   5.504  14.620  3.0377 -1.8688  3.1889
 1843TIP3    H226945   1.097   5.394  14.577  1.0405 -1.2410 -3.3817
 1844TIP3   OH226946   0.089   6.448  16.907  0.4621 -0.6889  0.8145
 1844TIP3    H126947   0.078   6.461  17.001 -0.7901  0.1581  0.5618
 1844TIP3    H226948   0.041   6.520  16.867  0.4616 -1.3944 -0.4876
 1845TIP3   OH226949   0.497   3.481  15.843  0.7314 -0.2481  0.3604
 1845TIP3    H126950   0.544   3.550  15.797  2.7736 -1.8166  0.0140
 1845TIP3    H226951   0.499   3.508  15.935  2.6256 -0.4536  0.3921
 1846TIP3   OH226952   4.416   4.143  14.269  0.4487  0.2902  0.5972
 1846TIP3    H126953   4.338   4.107  14.312  0.9471 -1.5277  0.0163
 1846TIP3    H226954   4.488   4.122  14.329  0.7854  0.0360  0.1118
 1847TIP3   OH226955   4.227   4.144  12.856  0.0292 -0.1122 -0.1687
 1847TIP3    H126956   4.178   4.096  12.790 -1.4084  1.2512 -0.1251
 1847TIP3    H226957   4.296   4.084  12.883 -0.6627 -1.4778 -1.3685
 1848TIP3   OH226958   1.686   2.955  12.339  0.0405 -0.4162  0.5372
 1848TIP3    H126959   1.730   3.032  12.302 -0.9348 -0.1104  0.0017
 1848TIP3    H226960   1.756   2.906  12.382  0.8553  0.2108 -0.0637
 1849TIP3   OH226961   2.732   3.976   2.490  0.2620 -0.0706 -0.1848
 1849TIP3    H126962   2.659   3.959   2.550  0.1325  0.9576 -0.0444
 1849TIP3    H226963   2.743   4.071   2.492 -0.5458  0.1163 -2.7380
 1850TIP3   OH226964   6.732   2.555  13.014  0.5465  0.2526 -0.0688
 1850TIP3    H126965   6.787   2.508  12.951  1.9527  1.0798  0.5131
 1850TIP3    H226966   6.794   2.606  13.067 -0.3262 -2.7043  4.0059
 1851TIP3   OH226967   3.316   3.416  11.743 -0.4263 -0.1529  0.1985
 1851TIP3    H126968   3.405   3.384  11.756  0.0418  1.1507  0.2548
 1851TIP3    H226969   3.262   3.337  11.748  1.0259 -1.5059 -3.1763
 1852TIP3   OH226970   0.960   2.665  11.636  0.1582  0.0886 -0.4273
 1852TIP3    H126971   0.939   2.739  11.692 -1.0060  0.8995 -1.8919
 1852TIP3    H226972   0.932   2.692  11.548 -0.4707 -2.1479 -0.9708
 1853TIP3   OH226973   6.639   0.545   4.543  0.8313 -0.4865 -0.1968
 1853TIP3    H126974   6.662   0.570   4.633  0.4821  3.3833 -1.1042
 1853TIP3    H226975   6.719   0.559   4.493  0.5705 -1.0512 -0.7777
 1854TIP3   OH226976   4.881   1.103   6.022  0.5606 -0.4281  0.4099
 1854TIP3    H126977   4.853   1.086   6.112 -2.5227 -2.9771 -0.9687
 1854TIP3    H226978   4.814   1.159   5.986  0.0356 -2.0904 -1.2709
 1855TIP3   OH226979   0.878   4.285  10.424  0.4257  0.1056 -0.0494
 1855TIP3    H126980   0.788   4.253  10.424  0.5814 -0.3363  0.2839
 1855TIP3    H226981   0.930   4.211  10.394  0.7091  0.2737  0.0243
 1856TIP3   OH226982   0.866   4.192  11.697 -0.4736 -0.0128  0.9463
 1856TIP3    H126983   0.830   4.104  11.682 -0.3641 -0.1804  1.6235
 1856TIP3    H226984   0.800   4.251  11.663 -0.1111 -0.3808 -0.4050
 1857TIP3   OH226985   4.860   4.898  16.324 -0.2684 -0.4482 -0.5147
 1857TIP3    H126986   4.846   4.826  16.386 -1.4861  1.1249  1.0783
 1857TIP3    H226987   4.940   4.874  16.277 -1.6493 -3.7310 -1.3089
 1858TIP3   OH226988   6.080   5.430   5.095 -0.0585  0.2014 -0.0918
 1858TIP3    H126989   6.060   5.452   5.186  1.5943  0.2730  0.2599
 1858TIP3    H226990   6.086   5.514   5.050  1.5122  0.2700  0.2429
 1859TIP3   OH226991   4.908   5.017   1.884  0.4755 -0.1143 -0.1489
 1859TIP3    H126992   4.979   4.977   1.834  1.0703 -0.9001  1.2980
 1859TIP3    H226993   4.889   4.954   1.954 -1.5368  0.1649 -0.4155
 1860TIP3   OH226994   2.798   1.402   5.482  0.4737 -0.3163  0.0406
 1860TIP3    H126995   2.744   1.379   5.406  1.2584  1.1189 -0.9815
 1860TIP3    H226996   2.740   1.388   5.557 -0.5566 -1.0380 -0.8699
 1861TIP3   OH226997   1.284   1.608  10.854  0.0495  0.3214  0.3478
 1861TIP3    H126998   1.330   1.688  10.826 -0.3820 -0.0106 -1.3641
 1861TIP3    H226999   1.204   1.639  10.894  0.0291  0.7740 -0.0343
 1862TIP3   OH227000   2.522   1.683  13.635  0.5081 -0.4466  0.4326
 1862TIP3    H127001   2.578   1.690  13.712  0.2464  0.0087  0.5830
 1862TIP3    H227002   2.435   1.664  13.671  0.9509 -3.3090  0.1081
 1863TIP3   OH227003   6.061   4.840  15.094 -0.1523 -0.0768  0.4877
 1863TIP3    H127004   6.011   4.869  15.018 -3.4543 -3.1660  1.3370
 1863TIP3    H227005   6.138   4.796  15.057 -0.3149  0.8151 -0.9544
 1864TIP3   OH227006   5.672   3.736  17.170  0.2204  0.2971 -0.7523
 1864TIP3    H127007   5.594   3.681  17.162 -0.4375  0.8438  1.4671
 1864TIP3    H227008   5.661   3.804  17.104 -0.3881 -0.5520 -1.5368
 1865TIP3   OH227009   1.139   4.999  11.775  0.2294  0.8846  0.4244
 1865TIP3    H127010   1.061   4.984  11.829  0.6314 -1.9566  0.3207
 1865TIP3    H227011   1.122   4.950  11.694  1.1109  2.2160 -0.5865
 1866TIP3   OH227012   5.598   2.426   0.742  0.0538  0.1653 -0.5701
 1866TIP3    H127013   5.613   2.504   0.689  1.0153  0.8060  0.5996
 1866TIP3    H227014   5.507   2.431   0.769 -0.2050  0.2686 -1.4615
 1867TIP3   OH227015   2.932   0.921   1.940  0.3236  0.4058 -0.8307
 1867TIP3    H127016   2.908   1.000   1.988  0.6303  0.9571 -1.5641
 1867TIP3    H227017   3.028   0.922   1.939  0.3272 -0.0830 -0.6548
 1868TIP3   OH227018   5.146   6.273   3.605 -0.2261  0.0965 -0.5680
 1868TIP3    H127019   5.144   6.189   3.558 -1.1822  0.6661 -1.5801
 1868TIP3    H227020   5.234   6.307   3.590  0.6943 -1.4654  1.1968
 1869TIP3   OH227021   2.108   3.543  15.526 -0.3150  0.4654 -0.1781
 1869TIP3    H127022   2.034   3.552  15.465  0.5434 -1.1866 -1.4943
 1869TIP3    H227023   2.180   3.589  15.483  0.0281  0.1583  0.0680
 1870TIP3   OH227024   4.235   4.031   3.862  0.5751 -0.0675  0.6504
 1870TIP3    H127025   4.173   4.045   3.791  0.2386  0.0832  0.9773
 1870TIP3    H227026   4.317   4.068   3.829  0.5684 -0.5271  0.1071
 1871TIP3   OH227027   2.665   2.113  12.433  0.1269  0.0911  0.7407
 1871TIP3    H127028   2.709   2.177  12.488 -0.0916  0.5730  0.3577
 1871TIP3    H227029   2.683   2.142  12.343  0.4010 -0.6309  0.5547
 1872TIP3   OH227030   5.179   3.497  15.381 -0.1938 -0.2327 -0.1957
 1872TIP3    H127031   5.143   3.411  15.362 -3.8657  1.2416 -0.3589
 1872TIP3    H227032   5.191   3.538  15.295 -1.0783  0.4143 -0.0143
 1873TIP3   OH227033   0.894   6.667  11.742 -0.0397  0.1509  0.7494
 1873TIP3    H127034   0.870   6.606  11.673 -0.7245  0.5399  0.6341
 1873TIP3    H227035   0.942   6.736  11.697 -0.4433  0.3789  0.6635
 1874TIP3   OH227036   5.782   2.647   3.756  0.7094  0.8311  0.0147
 1874TIP3    H127037   5.705   2.694   3.724 -0.0399  0.6733  1.5787
 1874TIP3    H227038   5.855   2.687   3.708 -0.3051  1.0741 -1.3780
 1875TIP3   OH227039   0.678   1.274   2.484  0.3394 -0.4707 -0.0781
 1875TIP3    H127040   0.704   1.187   2.516  0.8404  0.2200  1.4205
 1875TIP3    H227041   0.586   1.263   2.459  0.0534 -1.1439  1.2193
 1876TIP3   OH227042   1.819   3.459  12.353  0.5310  0.9265 -0.1489
 1876TIP3    H127043   1.887   3.481  12.289  0.9959  1.8338  0.6356
 1876TIP3    H227044   1.866   3.452  12.436 -0.1804  0.5001  0.2179
 1877TIP3   OH227045   0.782   5.048   5.435 -0.0540 -0.2059 -0.1649
 1877TIP3    H127046   0.828   4.996   5.501  0.1471 -0.8077 -0.7642
 1877TIP3    H227047   0.835   5.126   5.424 -0.2603  0.0511  0.6170
 1878TIP3   OH227048   4.278   4.886  15.744  0.1212 -0.2351  0.5804
 1878TIP3    H127049   4.373   4.882  15.738  0.0609 -0.9228  0.0061
 1878TIP3    H227050   4.258   4.860  15.834  0.5130  0.7413  0.9590
 1879TIP3   OH227051   1.349   1.190  12.880 -0.4138 -0.1331  0.3573
 1879TIP3    H127052   1.395   1.167  12.961 -1.3474 -2.3034  0.2873
 1879TIP3    H227053   1.345   1.109  12.831 -2.4343  0.5218 -0.5932
 1880TIP3   OH227054   1.593   3.145   5.272  0.3476 -0.0572 -0.0019
 1880TIP3    H127055   1.574   3.070   5.329  1.2768 -1.0625 -0.9829
 1880TIP3    H227056   1.687   3.139   5.255  0.2105  0.6297 -1.0602
 1881TIP3   OH227057   2.761   2.564  13.381  0.0567 -0.2162 -0.4485
 1881TIP3    H127058   2.793   2.532  13.465  0.1730  0.9360 -0.0424
 1881TIP3    H227059   2.744   2.485  13.330  2.7060 -0.8873 -0.3774
 1882TIP3   OH227060   4.920   2.577   5.701  0.0682  0.4337  0.3230
 1882TIP3    H127061   4.980   2.644   5.733  1.2189 -0.6406  0.4976
 1882TIP3    H227062   4.955   2.495   5.738 -1.1689 -0.2762 -0.0670
 1883TIP3   OH227063   1.364   2.747  16.635  0.1091 -0.5224 -0.0931
 1883TIP3    H127064   1.373   2.837  16.604 -3.1366  0.2456  0.9908
 1883TIP3    H227065   1.383   2.751  16.729  0.1371 -1.0022 -0.0731
 1884TIP3   OH227066   5.765   0.147   2.116 -0.1906  0.1240  0.4542
 1884TIP3    H127067   5.737   0.176   2.203  0.8692  2.2546  0.1186
 1884TIP3    H227068   5.784   0.228   2.069  0.7372 -1.0717 -1.2707
 1885TIP3   OH227069   6.205   5.697  13.811  0.1190 -0.0905 -0.1885
 1885TIP3    H127070   6.120   5.653  13.802 -0.0411  0.0776  0.5160
 1885TIP3    H227071   6.224   5.729  13.722  0.6086 -2.2356 -0.8902
 1886TIP3   OH227072   5.342   2.289   5.918 -0.8457  0.5149  0.1547
 1886TIP3    H127073   5.286   2.363   5.942 -0.4993  0.5988  0.6982
 1886TIP3    H227074   5.286   2.213   5.928 -1.0732  0.6639  0.0216
 1887TIP3   OH227075   2.433   1.259  15.874  0.5386 -0.3072 -0.7186
 1887TIP3    H127076   2.524   1.287  15.866  0.8599 -1.2271 -0.3234
 1887TIP3    H227077   2.428   1.216  15.959 -0.1113 -0.8452 -1.0246
 1888TIP3   OH227078   3.814   4.293  15.533 -0.0724  0.3003  0.2385
 1888TIP3    H127079   3.823   4.218  15.591 -0.2505 -0.4551 -0.7025
 1888TIP3    H227080   3.720   4.305  15.524 -0.0472  0.3664  0.0544
 1889TIP3   OH227081   0.126   0.499  10.612  0.2104 -0.7145  0.3971
 1889TIP3    H127082   0.213   0.507  10.651  0.4711  0.6494 -0.4735
 1889TIP3    H227083   0.140   0.448  10.532  0.4375  0.8070 -0.5307
 1890TIP3   OH227084   6.416   3.880   0.355 -0.5392  0.7406 -0.2002
 1890TIP3    H127085   6.427   3.890   0.260 -0.5754  0.1113 -0.2728
 1890TIP3    H227086   6.443   3.790   0.373  2.2901  1.7316  0.8175
 1891TIP3   OH227087   3.039   1.024   3.041 -0.6291 -0.2041  0.0458
 1891TIP3    H127088   3.006   0.935   3.050 -1.8069  0.4038  2.0028
 1891TIP3    H227089   3.107   1.032   3.108 -0.0862  0.1602 -0.5467
 1892TIP3   OH227090   5.593   6.109  14.443 -0.2255 -0.1999 -0.1528
 1892TIP3    H127091   5.599   6.087  14.536 -0.7748  0.9562  0.1614
 1892TIP3    H227092   5.655   6.049  14.401  2.0005  1.0192  1.2438
 1893TIP3   OH227093   5.628   2.334   3.599 -0.3550  0.5356  0.1796
 1893TIP3    H127094   5.538   2.307   3.615 -0.8147  1.5357 -0.6879
 1893TIP3    H227095   5.670   2.328   3.685 -1.2500  0.0792  0.5903
 1894TIP3   OH227096   1.511   1.728  14.964 -0.6401 -0.0341  0.2583
 1894TIP3    H127097   1.437   1.667  14.961  0.5667 -1.5103  0.0671
 1894TIP3    H227098   1.516   1.755  15.055 -1.2384 -0.1476  0.3264
 1895TIP3   OH227099   1.924   1.405   0.111 -1.1632  0.5975  0.1067
 1895TIP3    H127100   1.960   1.432   0.026 -1.2567 -0.7457 -0.3629
 1895TIP3    H227101   1.978   1.452   0.175 -0.4037  0.7983 -0.6623
 1896TIP3   OH227102   5.681   1.931   4.816 -0.1823 -0.0724 -0.1895
 1896TIP3    H127103   5.745   2.000   4.797 -1.4005  0.9164 -0.7648
 1896TIP3    H227104   5.707   1.858   4.760  0.8485  0.0585  0.0922
 1897TIP3   OH227105   2.081   1.274  14.400 -0.1153  0.1975 -0.3578
 1897TIP3    H127106   2.118   1.330  14.468 -1.1242 -0.2983  0.6103
 1897TIP3    H227107   1.995   1.312  14.381  0.9507  1.4987 -2.7838
 1898TIP3   OH227108   4.753   2.009   0.901 -0.7028  0.8931  0.2503
 1898TIP3    H127109   4.790   2.084   0.949 -0.6945 -0.1152  1.8570
 1898TIP3    H227110   4.748   1.939   0.966  2.3676 -1.5402 -1.9849
 1899TIP3   OH227111   1.348   5.626   2.136 -0.1491  0.5931  0.0332
 1899TIP3    H127112   1.271   5.584   2.172  0.1496 -0.4144 -0.4937
 1899TIP3    H227113   1.408   5.554   2.116  1.1507  1.3975  0.9699
 1900TIP3   OH227114   2.132   5.399   1.137  0.0048  0.7441  0.4339
 1900TIP3    H127115   2.212   5.349   1.157  0.6123  1.2451 -0.6662
 1900TIP3    H227116   2.102   5.363   1.054 -2.0131 -0.7500  1.7707
 1901TIP3   OH227117   1.835   3.321  16.787 -0.0018 -0.5032 -0.4081
 1901TIP3    H127118   1.917   3.367  16.804 -0.7590  1.1143 -1.0740
 1901TIP3    H227119   1.783   3.336  16.866 -0.2023 -0.3484 -0.5756
 1902TIP3   OH227120   1.831   0.279   5.381  0.9348  0.0513 -0.4999
 1902TIP3    H127121   1.746   0.259   5.421  1.4697  1.0226  1.1569
 1902TIP3    H227122   1.810   0.300   5.289 -0.6934  0.9192  0.0491
 1903TIP3   OH227123   5.606   0.129  14.390  0.1437  0.0660 -0.8246
 1903TIP3    H127124   5.527   0.128  14.336  0.0179  0.7658 -0.6650
 1903TIP3    H227125   5.656   0.053  14.361 -0.8445 -0.7036 -0.5302
 1904TIP3   OH227126   2.517   5.295   1.666 -0.2027 -0.2286  0.9475
 1904TIP3    H127127   2.525   5.355   1.592 -3.4390  1.0162  1.4883
 1904TIP3    H227128   2.505   5.209   1.627 -0.3939  0.2074  0.0284
 1905TIP3   OH227129   6.110   2.935  16.320 -0.5629 -0.3686 -0.0008
 1905TIP3    H127130   6.070   2.852  16.347  0.9156 -0.0788  3.2960
 1905TIP3    H227131   6.135   2.977  16.402  0.2156  2.6128 -1.7030
 1906TIP3   OH227132   1.540   6.569  14.061 -0.0581 -0.5781  0.5556
 1906TIP3    H127133   1.559   6.624  13.985 -0.7607 -1.2009 -0.0851
 1906TIP3    H227134   1.609   6.503  14.061 -1.1536 -1.7537 -0.7044
 1907TIP3   OH227135   5.500   5.417  14.028 -0.3335 -0.2026  0.3144
 1907TIP3    H127136   5.511   5.398  14.122  0.3749  1.7143  0.6404
 1907TIP3    H227137   5.463   5.505  14.026 -0.7189 -0.3920 -1.2166
 1908TIP3   OH227138   0.940   4.382  11.265 -0.0652  0.7941 -0.0411
 1908TIP3    H127139   0.958   4.296  11.302  0.4491  0.1102 -1.8303
 1908TIP3    H227140   0.991   4.384  11.184 -2.4076  1.6204 -1.5442
 1909TIP3   OH227141   5.753   1.054   5.537  0.9491 -0.1621  0.6489
 1909TIP3    H127142   5.751   1.002   5.456 -1.3098 -1.0342  1.2241
 1909TIP3    H227143   5.734   0.991   5.606  0.3897  1.0272  1.5988
 1910TIP3   OH227144   4.383   0.863  14.333  0.1430 -0.3287 -0.0903
 1910TIP3    H127145   4.337   0.888  14.413 -1.9724  2.4159 -2.0583
 1910TIP3    H227146   4.462   0.918  14.332 -0.2661  0.2559 -0.3035
 1911TIP3   OH227147   1.361   1.083   4.311 -0.1344 -0.0012  0.0138
 1911TIP3    H127148   1.394   1.173   4.301 -0.5144  0.2741  1.1108
 1911TIP3    H227149   1.409   1.048   4.386 -1.8383  0.1953  1.2539
 1912TIP3   OH227150   1.155   4.294   4.355 -0.1100 -0.2129 -0.1022
 1912TIP3    H127151   1.192   4.207   4.365  2.7334  1.0281  0.4871
 1912TIP3    H227152   1.201   4.332   4.281 -0.4257  1.2552  0.4394
 1913TIP3   OH227153   2.277   1.969   2.373  0.4185  0.2595  0.2188
 1913TIP3    H127154   2.190   2.008   2.378  0.3979  0.0736  1.3118
 1913TIP3    H227155   2.327   2.029   2.317  0.7222  2.4857  2.8047
 1914TIP3   OH227156   2.698   4.531   3.741  0.6701  0.0212 -0.2843
 1914TIP3    H127157   2.684   4.564   3.652  2.3462 -1.0272 -0.9630
 1914TIP3    H227158   2.793   4.521   3.748  0.6918  1.3762  2.1163
 1915TIP3   OH227159   2.675   2.723   0.940 -0.3760  0.1223 -0.4621
 1915TIP3    H127160   2.760   2.685   0.916  0.1316  0.7336  0.3290
 1915TIP3    H227161   2.617   2.648   0.951  0.6460 -0.4486  1.1816
 1916TIP3   OH227162   3.242   3.526  15.337 -0.9354  0.5313 -0.2795
 1916TIP3    H127163   3.276   3.601  15.386 -0.0049 -0.1029  0.0637
 1916TIP3    H227164   3.220   3.461  15.404 -1.3117  0.3297 -0.5973
 1917TIP3   OH227165   0.904   2.682  10.474 -0.5048 -0.0300 -0.3706
 1917TIP3    H127166   0.884   2.671  10.567 -0.6856  0.2312 -0.3756
 1917TIP3    H227167   0.843   2.623  10.430 -1.2304  0.7160 -0.3821
 1918TIP3   OH227168   4.032   3.212   2.952  0.0466 -0.8038 -0.3924
 1918TIP3    H127169   4.004   3.123   2.930 -1.7267 -0.6273  0.9611
 1918TIP3    H227170   4.007   3.264   2.876  1.9527 -1.6024 -1.5842
 1919TIP3   OH227171   6.052   6.527  12.601  0.1716 -0.1214 -0.1759
 1919TIP3    H127172   5.974   6.523  12.656  0.4977 -2.0973  0.1640
 1919TIP3    H227173   6.051   6.445  12.552  1.1537  0.5710 -1.3904
 1920TIP3   OH227174   0.461   0.180   2.610 -0.2914 -0.3342  0.0480
 1920TIP3    H127175   0.420   0.244   2.668 -0.1066  0.3715 -0.5988
 1920TIP3    H227176   0.407   0.181   2.531  1.8201  1.7084 -1.4165
 1921TIP3   OH227177   4.265   3.948  15.784 -0.0489  0.0025 -0.5996
 1921TIP3    H127178   4.262   3.967  15.878 -0.2882  0.3052 -0.6677
 1921TIP3    H227179   4.357   3.963  15.760 -0.0758  0.3355 -0.4980
 1922TIP3   OH227180   5.002   6.600  12.166  0.3637 -0.1812  0.4462
 1922TIP3    H127181   5.049   6.571  12.088 -0.0341  1.1468 -0.3017
 1922TIP3    H227182   5.069   6.606  12.234  0.5995 -1.9918  0.3993
 1923TIP3   OH227183   4.589   6.390  16.271  0.1734  0.5530 -0.0936
 1923TIP3    H127184   4.600   6.405  16.365 -0.4391 -0.2083  0.1031
 1923TIP3    H227185   4.530   6.460  16.242  1.3807  1.5663 -0.1702
 1924TIP3   OH227186   3.636   4.518  16.653 -0.3041  0.6688  0.6602
 1924TIP3    H127187   3.553   4.524  16.700 -1.2024 -1.0796 -0.6302
 1924TIP3    H227188   3.637   4.429  16.617  1.7033  0.9721 -0.1138
 1925TIP3   OH227189   1.671   4.815   5.750 -0.4555 -0.4600  0.0527
 1925TIP3    H127190   1.666   4.726   5.786 -0.7161 -0.7382 -0.6674
 1925TIP3    H227191   1.582   4.833   5.718 -0.6801  0.4758  1.1618
 1926TIP3   OH227192   1.828   3.144   4.027  0.3252 -0.6021  0.5039
 1926TIP3    H127193   1.795   3.206   4.092 -2.0355 -1.4272  0.1359
 1926TIP3    H227194   1.883   3.084   4.077 -0.9939 -0.8762  1.6452
 1927TIP3   OH227195   1.564   3.159  15.755  0.2716 -0.1584 -0.0813
 1927TIP3    H127196   1.626   3.191  15.689  0.1112  1.9503  0.7354
 1927TIP3    H227197   1.526   3.081  15.716  0.4704  0.8280 -2.3430
 1928TIP3   OH227198   1.757   1.024   0.027 -0.3206  0.2326  0.1923
 1928TIP3    H127199   1.760   0.957   0.096  1.2609  1.6527  1.5655
 1928TIP3    H227200   1.848   1.051   0.016 -1.0254  2.8514  0.3942
 1929TIP3   OH227201   4.304   3.435  11.490 -0.2896 -0.2353  0.5520
 1929TIP3    H127202   4.225   3.433  11.436 -1.1909  1.4297  1.7657
 1929TIP3    H227203   4.284   3.497  11.559  0.8364 -2.3456  2.8571
 1930TIP3   OH227204   3.799   6.139   4.405  0.3239  0.5999 -0.2603
 1930TIP3    H127205   3.811   6.140   4.500  1.6587 -1.6090 -0.3653
 1930TIP3    H227206   3.884   6.165   4.370  0.5644 -0.9076 -0.8512
 1931TIP3   OH227207   4.091   3.798   0.040 -0.1517 -0.6699  0.1359
 1931TIP3    H127208   4.080   3.718   0.091  1.4149 -1.6217 -0.9806
 1931TIP3    H227209   4.166   3.781  -0.016 -0.4513  1.1946 -0.8845
 1932TIP3   OH227210   0.181   5.602  16.629 -0.3451  0.3039 -0.3411
 1932TIP3    H127211   0.106   5.660  16.627 -0.9753 -0.4476  0.6608
 1932TIP3    H227212   0.143   5.515  16.641  0.5654 -0.3492 -2.0657
 1933TIP3   OH227213   2.202   3.145   2.179  0.5838 -0.8118  0.1928
 1933TIP3    H127214   2.229   3.222   2.128 -0.2653 -1.3697 -1.1434
 1933TIP3    H227215   2.118   3.121   2.141  0.2393 -1.6247  1.4817
 1934TIP3   OH227216   5.056   0.114  11.541 -0.6409  0.2686 -0.1365
 1934TIP3    H127217   4.988   0.168  11.582 -0.5698  1.1634 -1.1925
 1934TIP3    H227218   5.135   0.167  11.546 -0.1407 -0.5164  0.5159
 1935TIP3   OH227219   6.543   5.164  15.802 -0.4274 -0.1985 -0.1903
 1935TIP3    H127220   6.494   5.082  15.798  3.2178 -2.4629 -0.7942
 1935TIP3    H227221   6.495   5.218  15.865 -1.5032 -3.7579  2.1916
 1936TIP3   OH227222   4.298   0.222  11.668  0.3688 -0.0501  0.2131
 1936TIP3    H127223   4.329   0.157  11.605  1.9779  0.3540  0.5827
 1936TIP3    H227224   4.293   0.304  11.618 -1.4224 -0.3813 -0.1906
 1937TIP3   OH227225   4.281   5.241  13.745 -0.5140 -0.8436 -0.3027
 1937TIP3    H127226   4.243   5.163  13.706  1.4589 -0.5278 -2.9850
 1937TIP3    H227227   4.362   5.211  13.786  0.3524 -0.1947 -1.5180
 1938TIP3   OH227228   2.902   1.597   1.033  0.1584  0.4244  0.8259
 1938TIP3    H127229   2.979   1.609   0.977 -0.5167  0.5912 -0.0843
 1938TIP3    H227230   2.922   1.647   1.112  0.6983  1.0365  0.3097
 1939TIP3   OH227231   4.160   1.723   5.435  0.4681 -0.0197 -0.4865
 1939TIP3    H127232   4.154   1.635   5.398 -0.8492 -0.8977  1.7254
 1939TIP3    H227233   4.069   1.748   5.451  0.6727  2.6832 -3.1258
 1940TIP3   OH227234   1.993   2.773   5.245 -0.0254 -0.1369  0.2718
 1940TIP3    H127235   1.995   2.707   5.175 -0.2288  1.7885 -1.5986
 1940TIP3    H227236   2.044   2.734   5.316  3.5003 -0.6015 -2.3793
 1941TIP3   OH227237   4.656   6.623   2.903  0.0665  0.1488  0.0031
 1941TIP3    H127238   4.657   6.622   2.807 -0.4390  0.2310 -0.0048
 1941TIP3    H227239   4.745   6.599   2.928 -0.0981 -0.9930 -0.4746
 1942TIP3   OH227240   0.826   3.416   4.067  0.4025 -0.6409  0.1012
 1942TIP3    H127241   0.739   3.381   4.047  0.1075 -0.2016  0.5964
 1942TIP3    H227242   0.811   3.509   4.087  1.0596 -0.4311 -0.3645
 1943TIP3   OH227243   1.709   4.384  13.073  0.2688 -0.4619  0.0610
 1943TIP3    H127244   1.748   4.303  13.105 -0.0329 -0.3108  0.8160
 1943TIP3    H227245   1.617   4.378  13.100  0.4180  0.4715  0.7740
 1944TIP3   OH227246   2.807   4.120  14.038  0.3059  0.1105 -0.2752
 1944TIP3    H127247   2.756   4.041  14.020 -0.2951  0.0359  1.5735
 1944TIP3    H227248   2.745   4.191  14.026  0.0012  0.0827  1.0379
 1945TIP3   OH227249   3.947   0.264  13.520 -0.3257  0.0593 -0.4888
 1945TIP3    H127250   4.024   0.297  13.568  0.3045 -0.9829 -0.7559
 1945TIP3    H227251   3.918   0.338  13.468  0.8614  0.3139 -0.8180
 1946TIP3   OH227252   4.733   6.186  13.375 -0.1269  0.6161  0.6261
 1946TIP3    H127253   4.775   6.133  13.442  2.1638  1.7776  0.1463
 1946TIP3    H227254   4.733   6.275  13.411 -1.2523  0.8180  0.1699
 1947TIP3   OH227255   5.003   5.659  12.137  0.2597  0.1294 -0.1616
 1947TIP3    H127256   5.069   5.692  12.076 -0.2813  0.7554 -0.4150
 1947TIP3    H227257   5.028   5.696  12.222  0.7487 -0.3647 -0.0897
 1948TIP3   OH227258   4.047   6.754  13.448 -0.3936 -0.0636 -0.2341
 1948TIP3    H127259   3.985   6.720  13.512 -0.4748 -0.0337 -0.2972
 1948TIP3    H227260   4.122   6.695  13.455  0.0049  0.5202  0.5918
 1949TIP3   OH227261   6.343   1.814  10.616 -0.4036 -0.5031 -0.1197
 1949TIP3    H127262   6.422   1.786  10.569  1.6871 -0.1051  3.0200
 1949TIP3    H227263   6.322   1.740  10.673 -1.7755 -0.2481 -0.2900
 1950TIP3   OH227264   4.737   4.741  17.133  0.0516 -0.1131 -0.2553
 1950TIP3    H127265   4.809   4.695  17.176  0.4810  2.2021  1.6154
 1950TIP3    H227266   4.754   4.730  17.039  1.4946 -1.6323  0.1730
 1951TIP3   OH227267   0.431   2.030   4.014 -0.5112 -0.9249  0.1019
 1951TIP3    H127268   0.476   1.983   3.944  1.5103 -0.3845  1.0064
 1951TIP3    H227269   0.384   2.101   3.968  2.4412  0.6791 -0.5680
 1952TIP3   OH227270   0.756   4.224   3.708  0.2856 -0.3843  0.7806
 1952TIP3    H127271   0.817   4.176   3.764 -0.8952 -1.6678  0.9863
 1952TIP3    H227272   0.683   4.163   3.694 -0.0492  0.3961 -1.0650
 1953TIP3   OH227273   5.413   5.314  17.152  0.4150  0.1072  0.8757
 1953TIP3    H127274   5.449   5.271  17.075 -2.2455  2.2427 -1.7061
 1953TIP3    H227275   5.481   5.376  17.179 -0.0795  2.2083 -2.2976
 1954TIP3   OH227276   1.217   3.973  13.236 -0.6859  0.4832 -0.0888
 1954TIP3    H127277   1.242   3.988  13.327  1.2552  0.7381 -0.6268
 1954TIP3    H227278   1.203   3.878  13.230  1.7648  0.0785 -0.0953
 1955TIP3   OH227279   5.227   4.358  14.144 -0.7665  0.6784 -0.6200
 1955TIP3    H127280   5.228   4.282  14.203 -0.6697  1.3926  0.3171
 1955TIP3    H227281   5.227   4.433  14.203  2.3226  1.4489 -1.5406
 1956TIP3   OH227282   5.648   2.621   4.023 -0.1380  0.0787  0.2417
 1956TIP3    H127283   5.655   2.534   4.061  0.6331  0.2359  0.4665
 1956TIP3    H227284   5.720   2.625   3.960 -0.9725  0.0743 -0.7269
 1957TIP3   OH227285   3.186   5.326   5.691  0.1026  0.7699  0.0344
 1957TIP3    H127286   3.206   5.262   5.622 -1.6415  0.4558 -0.2084
 1957TIP3    H227287   3.165   5.272   5.767  1.6846  1.1142  0.7368
 1958TIP3   OH227288   5.502   1.029   1.271 -0.0899  0.2437  0.7665
 1958TIP3    H127289   5.455   0.962   1.221  0.4652  0.4756 -0.0903
 1958TIP3    H227290   5.446   1.107   1.265  0.4456  0.5563 -0.3624
 1959TIP3   OH227291   6.385   1.117   2.244 -0.7325  0.1627 -0.5290
 1959TIP3    H127292   6.415   1.030   2.217 -0.1510  0.5974 -1.2863
 1959TIP3    H227293   6.463   1.172   2.241 -0.7327  0.3200  1.6432
 1960TIP3   OH227294   1.644   0.260  11.901  0.2280 -0.1209 -0.1388
 1960TIP3    H127295   1.674   0.189  11.957  0.8488 -0.7949 -1.3240
 1960TIP3    H227296   1.717   0.277  11.842 -0.1944  1.0009 -0.3586
 1961TIP3   OH227297   3.132   5.734  13.453 -0.1230 -0.0025  0.3749
 1961TIP3    H127298   3.212   5.686  13.473  1.0998  1.6745 -0.4027
 1961TIP3    H227299   3.137   5.752  13.359 -1.2362  0.4403  0.3895
 1962TIP3   OH227300   3.922   0.782   1.626  0.0989 -0.0048 -0.1349
 1962TIP3    H127301   3.960   0.771   1.713  0.2973  1.6821  0.0063
 1962TIP3    H227302   3.974   0.852   1.586 -0.6108 -0.1046 -1.2508
 1963TIP3   OH227303   5.771   4.671  12.570 -0.0451 -0.0560  0.6484
 1963TIP3    H127304   5.692   4.643  12.523  0.5917 -1.4634  0.3712
 1963TIP3    H227305   5.739   4.712  12.650 -1.0670 -0.5507  0.4949
 1964TIP3   OH227306   5.973   2.433   4.624  0.1513 -0.0660 -0.6972
 1964TIP3    H127307   5.987   2.519   4.662 -1.8206 -0.3117  0.6852
 1964TIP3    H227308   6.047   2.381   4.654  0.9731  0.9465 -0.9425
 1965TIP3   OH227309   4.015   1.250  12.638 -0.9580  0.4020  0.3661
 1965TIP3    H127310   3.939   1.196  12.659 -1.0109  0.0222 -0.7834
 1965TIP3    H227311   3.990   1.339  12.663 -0.9853 -0.0488  1.9751
 1966TIP3   OH227312   4.748   3.860  10.614  0.2883  0.4348  0.1967
 1966TIP3    H127313   4.767   3.778  10.659  2.3255  1.2987  0.9727
 1966TIP3    H227314   4.656   3.853  10.589  0.1159 -1.5768  1.3012
 1967TIP3   OH227315   6.419   2.278   0.961  0.4521 -0.3868 -0.0263
 1967TIP3    H127316   6.442   2.203   1.016  0.5726 -1.6035 -1.7002
 1967TIP3    H227317   6.422   2.244   0.871 -0.6672  1.3149 -0.7353
 1968TIP3   OH227318   4.708   3.821  15.553 -0.6327 -0.3183 -0.1711
 1968TIP3    H127319   4.785   3.785  15.509 -0.5012 -1.0024  0.6151
 1968TIP3    H227320   4.636   3.803  15.492  0.0251  1.6867 -1.6208
 1969TIP3   OH227321   3.862   3.905  14.946  0.6465  0.0239 -0.1678
 1969TIP3    H127322   3.834   3.851  15.021  1.2671  2.3493  1.8126
 1969TIP3    H227323   3.783   3.949  14.917  0.2179 -1.5951 -1.5317
 1970TIP3   OH227324   4.995   4.700   2.655  0.0160 -0.0635 -0.3881
 1970TIP3    H127325   5.000   4.794   2.635  0.1586 -0.0471 -0.2711
 1970TIP3    H227326   4.921   4.669   2.602  0.2416  0.0292 -0.7648
 1971TIP3   OH227327   1.474   2.717   0.349  0.2287  0.0865  0.1467
 1971TIP3    H127328   1.545   2.765   0.307 -1.2457  1.7114 -0.5611
 1971TIP3    H227329   1.429   2.783   0.402 -2.5676 -0.1649 -1.7946
 1972TIP3   OH227330   2.054   5.015   4.871  0.2174 -0.1326 -0.5354
 1972TIP3    H127331   2.063   5.107   4.845  0.1966  0.1899  0.5674
 1972TIP3    H227332   2.069   5.015   4.966 -1.2955 -1.0263 -0.2695
 1973TIP3   OH227333   4.644   5.403  12.178  0.0066 -0.2998 -0.4518
 1973TIP3    H127334   4.737   5.414  12.157  0.0510 -0.6118 -0.4290
 1973TIP3    H227335   4.626   5.471  12.243  0.7689 -1.6110  1.1795
 1974TIP3   OH227336   6.388   6.676   3.207 -0.2196  0.1163  0.1910
 1974TIP3    H127337   6.443   6.720   3.142  1.3092 -1.0179  0.6794
 1974TIP3    H227338   6.371   6.590   3.171  0.9988 -0.6786  1.4474
 1975TIP3   OH227339   5.893   2.457  16.354  0.4725  0.1815  0.0812
 1975TIP3    H127340   5.856   2.491  16.436 -1.8955  2.5527 -1.8721
 1975TIP3    H227341   5.950   2.527  16.322 -1.6557  0.9483 -2.1951
 1976TIP3   OH227342   1.785   0.222   0.196 -0.0183 -0.6158  0.1014
 1976TIP3    H127343   1.710   0.263   0.152 -0.1023  0.3221  1.0985
 1976TIP3    H227344   1.859   0.242   0.139  0.5595  3.9830  2.2397
 1977TIP3   OH227345   3.935   6.523  15.878 -0.1499  0.1946  0.4489
 1977TIP3    H127346   3.908   6.613  15.899 -0.8452 -0.1523  1.0719
 1977TIP3    H227347   3.990   6.496  15.951 -0.2599 -0.0285  0.4499
 1978TIP3   OH227348   2.927   1.660  16.083  0.1130 -0.0525  0.0757
 1978TIP3    H127349   2.970   1.581  16.118 -0.3381 -1.7661 -3.0910
 1978TIP3    H227350   2.995   1.703  16.031 -0.4648  0.0851 -0.5678
 1979TIP3   OH227351   0.028   6.236  11.625  0.1820 -0.5656 -0.0554
 1979TIP3    H127352   0.066   6.321  11.604  0.0434 -0.2252  1.0408
 1979TIP3    H227353   0.035   6.229  11.720 -1.4801 -0.9776  0.0621
 1980TIP3   OH227354   4.559   1.136   2.914  0.3724  0.4830  0.6057
 1980TIP3    H127355   4.533   1.113   3.003 -1.7351  2.4474  0.5153
 1980TIP3    H227356   4.533   1.227   2.903 -0.0348  0.0853 -2.2547
 1981TIP3   OH227357   6.653   2.744   6.865  0.2939 -0.2081 -0.0946
 1981TIP3    H127358   6.688   2.664   6.826  0.0897 -0.2062 -0.2821
 1981TIP3    H227359   6.633   2.801   6.790  0.2290 -0.0695  0.0270
 1982TIP3   OH227360   1.439   2.114   5.305 -0.1897 -0.7863 -0.2098
 1982TIP3    H127361   1.523   2.156   5.287 -0.6511  0.4228  0.4153
 1982TIP3    H227362   1.460   2.042   5.364  0.5702 -1.2934 -1.0808
 1983TIP3   OH227363   5.586   1.947   2.787  0.2550 -0.4357  0.4530
 1983TIP3    H127364   5.603   1.920   2.877 -0.8426 -2.2691  0.1489
 1983TIP3    H227365   5.498   1.985   2.789  0.3770 -0.1414  0.2224
 1984TIP3   OH227366   6.143   6.344  13.875  0.1172 -0.4677 -0.2178
 1984TIP3    H127367   6.235   6.349  13.846  0.6913 -3.1868  0.9400
 1984TIP3    H227368   6.141   6.395  13.956  0.9656 -1.5262  0.4925
 1985TIP3   OH227369   5.601   2.844   0.268 -0.0110 -0.1409  0.4853
 1985TIP3    H127370   5.599   2.895   0.349 -0.9002  0.6735 -0.0362
 1985TIP3    H227371   5.538   2.773   0.283 -0.5948  0.3320  0.3106
 1986TIP3   OH227372   2.004   3.902  16.375  0.1508  0.0400 -0.7866
 1986TIP3    H127373   1.999   3.808  16.359  0.6898 -0.0627 -0.3805
 1986TIP3    H227374   2.093   3.926  16.349 -0.2339  0.5771 -1.6129
 1987TIP3   OH227375   4.865   2.007  11.911  0.2885  0.0914 -0.0689
 1987TIP3    H127376   4.795   2.030  11.972  1.2885 -1.2819  1.6178
 1987TIP3    H227377   4.945   2.015  11.962  1.1782 -0.7800 -1.2940
 1988TIP3   OH227378   3.861   3.353  15.187 -0.3216  0.5706 -0.2439
 1988TIP3    H127379   3.947   3.389  15.208 -0.7056  1.2945  0.1386
 1988TIP3    H227380   3.839   3.298  15.263  0.6121 -1.1355 -1.1911
 1989TIP3   OH227381   2.619   1.983  12.702 -0.2100  0.2145 -0.3550
 1989TIP3    H127382   2.673   2.051  12.742  0.0951 -0.8576  1.0856
 1989TIP3    H227383   2.630   1.996  12.608 -1.6216  3.3366 -0.1466
 1990TIP3   OH227384   1.661   6.104   4.048 -0.1723 -0.0536 -0.3416
 1990TIP3    H127385   1.655   6.112   3.952  0.1543 -1.3779 -0.4811
 1990TIP3    H227386   1.753   6.083   4.065  0.2921  2.5131  0.4562
 1991TIP3   OH227387   4.623   3.326   0.843 -0.2828 -0.2530 -0.4071
 1991TIP3    H127388   4.544   3.359   0.886 -0.0088 -0.0560 -0.0511
 1991TIP3    H227389   4.669   3.278   0.912  1.7212  2.7076  0.3922
 1992TIP3   OH227390   2.216   5.063   1.297  0.2668 -0.0176 -0.8371
 1992TIP3    H127391   2.138   5.065   1.243 -0.7744  1.6147  0.6703
 1992TIP3    H227392   2.215   4.977   1.338 -0.5813 -0.1224 -1.0766
 1993TIP3   OH227393   1.702   4.973  13.321 -0.0442 -0.1732 -0.2789
 1993TIP3    H127394   1.764   5.046  13.319  0.4888 -0.5724  1.2067
 1993TIP3    H227395   1.732   4.917  13.393 -0.5769 -1.7482 -1.2425
 1994TIP3   OH227396   0.027   6.245  14.227 -0.0666  0.2055 -0.4407
 1994TIP3    H127397  -0.048   6.188  14.208  0.6045 -1.2388  1.1668
 1994TIP3    H227398   0.091   6.224  14.159 -0.7233  0.7686 -1.2560
 1995TIP3   OH227399   2.089   1.478   5.391 -0.2990 -0.1273 -0.2370
 1995TIP3    H127400   2.129   1.403   5.345 -0.8916  0.5855 -1.9471
 1995TIP3    H227401   2.072   1.445   5.479  1.1662 -1.4262 -0.4067
 1996TIP3   OH227402   2.079   5.949   4.645 -0.1199 -0.8607  0.1912
 1996TIP3    H127403   2.174   5.940   4.638 -0.1249 -0.4379 -0.4861
 1996TIP3    H227404   2.045   5.909   4.565 -0.5422 -1.3761  0.6172
 1997TIP3   OH227405   2.578   5.017   0.808 -0.2119  0.5452  0.0339
 1997TIP3    H127406   2.490   4.983   0.827  0.3551 -1.4584 -0.8060
 1997TIP3    H227407   2.624   4.944   0.768  1.3921  2.0388 -0.9244
 1998TIP3   OH227408   5.549   5.266  11.048  0.6383  0.0685  0.1852
 1998TIP3    H127409   5.488   5.296  10.981  0.2239 -3.0496 -0.9353
 1998TIP3    H227410   5.634   5.263  11.004  0.6350 -0.5565  0.2124
 1999TIP3   OH227411   1.918   6.635  12.476 -0.3977 -0.5995  0.0697
 1999TIP3    H127412   1.987   6.654  12.411 -0.1553 -0.8110  0.2645
 1999TIP3    H227413   1.837   6.656  12.431 -0.1474  0.7165  0.2159
 2000TIP3   OH227414   0.347   6.017  13.633  0.1670 -0.7171  0.0989
 2000TIP3    H127415   0.396   5.952  13.683  0.3561 -0.3167  0.4387
 2000TIP3    H227416   0.393   6.023  13.550  2.6450  2.0053  1.5971
 2001TIP3   OH227417   5.563   1.586   2.449  0.4100 -0.2812  0.2079
 2001TIP3    H127418   5.501   1.623   2.386  1.7310  0.4212 -0.7129
 2001TIP3    H227419   5.542   1.630   2.532 -1.4186 -1.3022  0.3065
 2002TIP3   OH227420   0.732   4.090  14.531  0.3329  0.1680 -0.1898
 2002TIP3    H127421   0.666   4.124  14.471  0.0807 -1.1452 -0.6697
 2002TIP3    H227422   0.732   4.152  14.604  1.4560  2.4149 -2.0383
 2003TIP3   OH227423   6.693   0.610   2.399  0.4432 -0.1072 -0.3218
 2003TIP3    H127424   6.606   0.632   2.364  0.5077  0.2749 -0.2490
 2003TIP3    H227425   6.683   0.615   2.494  0.8971  1.3660 -0.3343
 2004TIP3   OH227426   1.160   6.617  14.870 -0.2362  0.0852  0.0693
 2004TIP3    H127427   1.191   6.653  14.787 -1.7049  0.1130 -0.4774
 2004TIP3    H227428   1.102   6.545  14.844 -0.0114 -0.4691  1.0950
 2005TIP3   OH227429   5.856   5.477   4.471  0.4877  0.2303 -0.2137
 2005TIP3    H127430   5.883   5.448   4.558  0.9300  0.9139 -0.1178
 2005TIP3    H227431   5.770   5.518   4.486 -0.9322 -2.5102 -0.6212
 2006TIP3   OH227432   1.817   4.137  12.487 -0.1014  0.1654 -0.3553
 2006TIP3    H127433   1.874   4.088  12.547 -0.8404  1.0751  1.0951
 2006TIP3    H227434   1.754   4.072  12.455  1.7509 -0.8713 -2.0282
 2007TIP3   OH227435   6.611   6.044   1.224  0.4375 -0.0973 -0.0171
 2007TIP3    H127436   6.676   5.974   1.214  0.0931 -0.4892  0.4575
 2007TIP3    H227437   6.598   6.050   1.319  1.0269  1.1264 -0.0059
 2008TIP3   OH227438   4.938   6.455  13.294 -0.7327  0.4176 -0.2809
 2008TIP3    H127439   5.019   6.504  13.281 -0.4066  0.1548  0.6649
 2008TIP3    H227440   4.942   6.427  13.386 -1.4916 -0.3284 -0.4667
 2009TIP3   OH227441   1.698   3.832  16.468 -0.0516 -0.0260  0.3207
 2009TIP3    H127442   1.762   3.852  16.537  1.0805 -2.0252 -0.0909
 2009TIP3    H227443   1.614   3.826  16.514  0.6209 -0.9091  1.4757
 2010TIP3   OH227444   6.692   1.023  12.305 -0.6999  0.4934  0.4617
 2010TIP3    H127445   6.643   1.091  12.352 -0.5144  1.2563 -0.4307
 2010TIP3    H227446   6.642   1.009  12.225  0.5040  1.2479 -0.4345
 2011TIP3   OH227447   6.297   2.996  14.398 -0.2759 -0.2145 -0.2554
 2011TIP3    H127448   6.377   2.952  14.370  0.3005  0.0601  0.9615
 2011TIP3    H227449   6.290   3.072  14.340  0.3371 -0.2433 -0.3672
 2012TIP3   OH227450   0.169   6.766   5.768 -0.0899 -0.2203 -0.4952
 2012TIP3    H127451   0.218   6.824   5.827  0.2720  0.0614 -1.0650
 2012TIP3    H227452   0.118   6.710   5.826  0.3552 -0.0234  0.0910
 2013TIP3   OH227453   3.982   4.625   3.265 -0.2541 -0.2714 -0.1250
 2013TIP3    H127454   4.062   4.595   3.308 -0.7056  0.0020  0.9198
 2013TIP3    H227455   4.010   4.652   3.178  0.6605 -0.8936 -0.0321
 2014TIP3   OH227456   4.919   3.504   2.619  0.0931  0.5570  0.1185
 2014TIP3    H127457   4.882   3.572   2.563 -0.1698  0.2244 -0.1161
 2014TIP3    H227458   4.943   3.434   2.559 -0.1108  0.2325  0.4158
 2015TIP3   OH227459   6.342   6.707  15.896 -0.3715 -0.1713  0.4255
 2015TIP3    H127460   6.251   6.723  15.871 -0.6787 -1.7228  0.5106
 2015TIP3    H227461   6.392   6.772  15.847 -1.5503  0.9197  0.6469
 2016TIP3   OH227462   2.735   2.043  16.617 -0.1164 -0.8492  0.4360
 2016TIP3    H127463   2.776   2.084  16.694  0.6975 -1.8669  0.5541
 2016TIP3    H227464   2.724   2.115  16.555 -0.6681 -0.0371  1.4511
 2017TIP3   OH227465   0.875   0.422  13.861 -0.1542  0.1614  0.4160
 2017TIP3    H127466   0.815   0.374  13.804 -0.6790  0.0446  1.0655
 2017TIP3    H227467   0.875   0.373  13.943  0.8498  0.1454  0.4121
 2018TIP3   OH227468   1.593   3.602   4.740  0.2903 -0.3534 -0.3109
 2018TIP3    H127469   1.605   3.674   4.678  0.8380 -0.0170  0.1752
 2018TIP3    H227470   1.502   3.576   4.730 -0.8214  2.5473  1.7939
 2019TIP3   OH227471   0.861   2.447   4.406 -0.6405 -0.0425 -0.1459
 2019TIP3    H127472   0.884   2.484   4.321 -2.1281 -0.0629 -0.5731
 2019TIP3    H227473   0.826   2.521   4.456  0.6584  0.0715  0.6334
 2020TIP3   OH227474   4.155   2.118  15.824 -0.2149  0.1116  0.3565
 2020TIP3    H127475   4.227   2.056  15.839  0.0516  0.4419  0.4320
 2020TIP3    H227476   4.159   2.178  15.898 -0.3036  0.3833  0.1421
 2021TIP3   OH227477   5.011   2.739  16.309 -0.3748 -0.3160  0.6476
 2021TIP3    H127478   5.008   2.831  16.282 -0.7715 -0.3108  0.7079
 2021TIP3    H227479   5.019   2.742  16.404  1.7367 -0.3254  0.5042
 2022TIP3   OH227480   5.148   1.513   5.456  0.3219 -0.3979 -0.4501
 2022TIP3    H127481   5.131   1.450   5.386 -0.6443 -1.6659  0.9107
 2022TIP3    H227482   5.244   1.521   5.458  0.3926 -0.9895 -1.3573
 2023TIP3   OH227483   4.806   4.504  16.520 -0.0080 -0.1156 -0.1162
 2023TIP3    H127484   4.859   4.425  16.514 -0.6416 -0.6324  0.9477
 2023TIP3    H227485   4.716   4.474  16.507 -0.2565  0.4134  0.3262
 2024TIP3   OH227486   5.442   1.642  15.636 -0.2811  0.2214  0.6085
 2024TIP3    H127487   5.528   1.601  15.626 -0.8279 -0.7273 -0.2557
 2024TIP3    H227488   5.404   1.639  15.548 -1.6948 -0.4393  1.2363
 2025TIP3   OH227489   0.807   0.958   6.003  0.3540  0.1700  0.5405
 2025TIP3    H127490   0.885   0.990   6.048  0.6550  0.3964 -0.1313
 2025TIP3    H227491   0.734   1.003   6.044  0.8129  2.2231 -0.8085
 2026TIP3   OH227492   0.524   3.711  13.655  0.0018  0.2817  0.3399
 2026TIP3    H127493   0.526   3.615  13.657  1.7025  0.2994  0.4687
 2026TIP3    H227494   0.477   3.735  13.735 -1.3068 -0.4414 -0.1847
 2027TIP3   OH227495   4.089   0.799  15.304 -0.4176  0.2448  0.3922
 2027TIP3    H127496   4.089   0.885  15.262 -1.9405  0.6213  1.1095
 2027TIP3    H227497   4.016   0.803  15.366 -0.0459 -1.3171  0.9529
 2028TIP3   OH227498   6.268   6.400  11.247  0.4231  0.1382 -0.4747
 2028TIP3    H127499   6.292   6.448  11.167  0.5219 -1.1625 -1.2384
 2028TIP3    H227500   6.341   6.416  11.307  0.8345  0.2840 -1.0059
 2029TIP3   OH227501   2.480   5.408  14.395 -0.2397  0.2786 -0.0389
 2029TIP3    H127502   2.519   5.365  14.318  0.1433  0.8855 -0.1860
 2029TIP3    H227503   2.455   5.335  14.452  3.9313 -0.1133  1.4643
 2030TIP3   OH227504   6.659   5.612   2.229  0.5060  0.1321  0.4221
 2030TIP3    H127505   6.716   5.647   2.160  0.9836  1.6108  1.5436
 2030TIP3    H227506   6.716   5.604   2.306 -0.6755  1.2709  1.4530
 2031TIP3   OH227507   3.634   0.594  14.201  0.0164 -0.1407  0.2026
 2031TIP3    H127508   3.659   0.676  14.159  2.1952 -0.7662  0.2348
 2031TIP3    H227509   3.632   0.529  14.131  0.8087 -0.5835  0.5796
 2032TIP3   OH227510   0.089   4.521   2.090  0.1015 -0.6647 -0.0012
 2032TIP3    H127511   0.022   4.502   2.155  0.1691  0.2349  0.3351
 2032TIP3    H227512   0.099   4.616   2.093  3.2254 -0.9766  1.7842
 2033TIP3   OH227513   2.728   1.840  15.501  0.3754 -0.0519  0.6226
 2033TIP3    H127514   2.771   1.925  15.504  0.7325 -0.2475  1.0878
 2033TIP3    H227515   2.717   1.815  15.593  0.6120 -0.6776  0.4868
 2034TIP3   OH227516   4.494   3.663  11.873  0.2604  0.1031  0.0404
 2034TIP3    H127517   4.553   3.735  11.850 -0.3349  1.1797  1.7979
 2034TIP3    H227518   4.542   3.614  11.941 -0.6126  0.6826  1.0987
 2035TIP3   OH227519   6.097   1.560   5.823 -0.1451 -0.4875 -0.6763
 2035TIP3    H127520   6.008   1.544   5.855 -0.7305 -0.0351 -2.0410
 2035TIP3    H227521   6.120   1.480   5.776 -0.0752 -0.3694 -0.8447
 2036TIP3   OH227522   2.688   1.026  15.242 -0.4369 -0.1210 -0.4004
 2036TIP3    H127523   2.718   1.038  15.152 -3.0193 -1.5655 -1.4900
 2036TIP3    H227524   2.748   0.962  15.280  0.5894  0.4090 -1.1212
 2037TIP3   OH227525   5.170   6.785   1.026  0.2882  0.4869 -0.1026
 2037TIP3    H127526   5.184   6.774   1.120 -0.7338 -0.3357 -0.0335
 2037TIP3    H227527   5.202   6.703   0.988  1.3510  1.1023 -0.5480
 2038TIP3   OH227528   5.017   3.929  12.071  0.4117 -0.6004  0.1454
 2038TIP3    H127529   5.012   3.871  11.995  0.3847  0.5576 -0.7504
 2038TIP3    H227530   5.090   3.988  12.051 -0.0631  0.1701  0.6877
 2039TIP3   OH227531   0.177   5.046  13.888  0.2495  0.2910 -0.4578
 2039TIP3    H127532   0.231   4.979  13.929 -1.8434 -0.8411  0.5147
 2039TIP3    H227533   0.129   5.000  13.819  1.6492  1.6078 -2.3582
 2040TIP3   OH227534   4.421   3.536   4.009  0.2421 -0.2419 -0.0506
 2040TIP3    H127535   4.423   3.487   4.092  0.7070  0.2915  0.2526
 2040TIP3    H227536   4.394   3.624   4.033 -2.2568 -0.7621 -0.8195
 2041TIP3   OH227537   2.731   1.617  11.255  0.3796 -0.2781  0.1908
 2041TIP3    H127538   2.707   1.527  11.274  2.5074 -1.1293 -1.0197
 2041TIP3    H227539   2.822   1.613  11.227  0.5836  2.2790  0.3075
 2042TIP3   OH227540   3.255   5.335  11.204  0.1339 -0.7095 -0.2697
 2042TIP3    H127541   3.191   5.364  11.138 -1.4331 -0.5920  1.2630
 2042TIP3    H227542   3.292   5.416  11.238  0.0106 -0.7246 -0.0994
 2043TIP3   OH227543   0.128   6.184  12.514 -0.3912 -0.0948  0.0860
 2043TIP3    H127544   0.138   6.279  12.520  0.5647 -0.2795  1.4643
 2043TIP3    H227545   0.202   6.148  12.563 -1.1334 -1.5492  0.1773
 2044TIP3   OH227546   6.501   5.565  10.912  0.9713 -0.4719 -0.8650
 2044TIP3    H127547   6.483   5.570  10.818 -0.0734 -0.2575 -0.6585
 2044TIP3    H227548   6.567   5.495  10.920 -0.6584 -2.1091 -1.5298
 2045TIP3   OH227549   4.311   0.701  14.104  0.4695 -0.0591 -0.0250
 2045TIP3    H127550   4.322   0.618  14.150 -0.6506 -1.6498 -2.4924
 2045TIP3    H227551   4.346   0.766  14.164  2.7087 -2.4571  1.3917
 2046TIP3   OH227552   2.005   5.968  17.128  0.1862 -0.2747 -0.4679
 2046TIP3    H127553   2.029   5.928  17.044  0.9874  2.0859 -1.4217
 2046TIP3    H227554   2.088   6.003  17.161 -0.4751  0.5085  0.3705
 2047TIP3   OH227555   1.822   5.465  11.339  0.4056 -0.1159 -1.0322
 2047TIP3    H127556   1.849   5.514  11.262  1.0187 -0.2909 -0.9377
 2047TIP3    H227557   1.790   5.381  11.305 -1.2358  0.5807 -1.2394
 2048TIP3   OH227558   5.314   0.883  13.728 -0.0034 -0.1675  0.0079
 2048TIP3    H127559   5.282   0.971  13.746 -0.5493 -0.4425  0.3966
 2048TIP3    H227560   5.298   0.834  13.809 -1.9677 -1.2556 -0.9901
 2049TIP3   OH227561   3.286   1.678  16.533  0.4151 -0.4518 -0.5287
 2049TIP3    H127562   3.199   1.640  16.545 -0.0769  0.9242  0.3798
 2049TIP3    H227563   3.346   1.615  16.572 -0.2675 -0.9061 -0.2037
 2050TIP3   OH227564   3.933   2.243   0.492 -0.2098  0.1938 -0.3255
 2050TIP3    H127565   3.959   2.153   0.470 -0.8048  0.2213 -1.1519
 2050TIP3    H227566   4.008   2.296   0.463 -0.9261  0.2140 -2.1918
 2051TIP3   OH227567   5.249   0.616  16.389 -0.5165  0.0196 -0.2920
 2051TIP3    H127568   5.190   0.678  16.345 -0.4909  0.2770  0.0272
 2051TIP3    H227569   5.198   0.584  16.464  0.2334  1.2886  0.7784
 2052TIP3   OH227570   2.131   4.239   4.637 -0.0003 -0.1065 -0.0800
 2052TIP3    H127571   2.088   4.235   4.551 -0.9184 -0.3387  0.3871
 2052TIP3    H227572   2.097   4.319   4.677 -0.2112 -0.4368  0.4075
 2053TIP3   OH227573   6.175   4.476  11.248  0.1382  0.3553  0.0142
 2053TIP3    H127574   6.264   4.495  11.278  0.6462 -0.6245 -0.8391
 2053TIP3    H227575   6.129   4.559  11.254  1.5666  1.2330 -1.0682
 2054TIP3   OH227576   1.981   3.652   5.300  0.0714 -0.1927  0.0895
 2054TIP3    H127577   2.053   3.715   5.303  0.1299 -0.1554 -1.9217
 2054TIP3    H227578   1.918   3.690   5.239 -0.5389 -1.4076 -0.0490
 2055TIP3   OH227579   2.994   3.586  13.045  0.4029  0.0650  0.0298
 2055TIP3    H127580   3.054   3.612  12.975 -1.6190  1.4278 -1.2734
 2055TIP3    H227581   2.913   3.563  13.000 -0.7239  0.2885  1.8598
 2056TIP3   OH227582   0.398   3.157  11.926  0.1023 -0.0581 -0.0379
 2056TIP3    H127583   0.487   3.146  11.959  1.3192 -0.8798 -3.3928
 2056TIP3    H227584   0.358   3.070  11.937 -0.5190  0.4576  1.9965
 2057TIP3   OH227585   2.437   5.936  13.171 -0.3462 -0.0188 -0.3397
 2057TIP3    H127586   2.417   5.936  13.078 -0.1867 -1.3321 -0.3880
 2057TIP3    H227587   2.351   5.926  13.214 -0.4684  1.0216 -0.3165
 2058TIP3   OH227588   1.178   5.111  12.476  0.3777  0.3372  0.2052
 2058TIP3    H127589   1.215   5.024  12.491  1.1388  0.6394  0.0973
 2058TIP3    H227590   1.251   5.163  12.442 -0.1114  0.9774  0.1183
 2059TIP3   OH227591   1.709   4.563  14.582  0.1565 -0.3642  0.5952
 2059TIP3    H127592   1.660   4.640  14.610  0.1048 -0.3277  0.4068
 2059TIP3    H227593   1.643   4.493  14.576  0.3111 -0.5757  1.3735
 2060TIP3   OH227594   4.257   4.150   1.756  0.0989 -0.3960 -0.2399
 2060TIP3    H127595   4.246   4.148   1.661 -2.3515  1.2784 -0.0324
 2060TIP3    H227596   4.306   4.231   1.773 -2.1820  0.9369  0.1302
 2061TIP3   OH227597   3.369   6.131  13.601  0.5084 -0.2451 -0.4775
 2061TIP3    H127598   3.333   6.136  13.690  0.5254 -1.3641 -0.4104
 2061TIP3    H227599   3.401   6.041  13.592 -1.5997 -0.8522 -2.4088
 2062TIP3   OH227600   0.910   0.884  13.867 -0.0710 -0.6991  0.3124
 2062TIP3    H127601   0.865   0.929  13.938  0.0753  0.2524 -0.1842
 2062TIP3    H227602   0.987   0.938  13.849 -0.4560 -0.5719 -0.9994
 2063TIP3   OH227603   0.048   5.075  16.141  0.1672 -0.0461  1.0609
 2063TIP3    H127604  -0.010   5.142  16.105 -0.4890  0.9141  3.7945
 2063TIP3    H227605   0.128   5.122  16.166  0.4540 -0.6114  1.2370
 2064TIP3   OH227606   1.528   4.784   0.746  0.0771 -0.3732  0.5676
 2064TIP3    H127607   1.564   4.845   0.681  0.3762 -1.1024  0.0399
 2064TIP3    H227608   1.605   4.751   0.792 -0.0865 -0.3349  0.8675
 2065TIP3   OH227609   4.551   3.040  14.811 -0.0690  0.3545 -0.2601
 2065TIP3    H127610   4.643   3.027  14.786 -0.5324 -2.7827 -0.5477
 2065TIP3    H227611   4.530   2.962  14.862 -2.2263  1.6674  0.9136
 2066TIP3   OH227612   0.722   6.173  15.550  0.0082  0.2396  0.2941
 2066TIP3    H127613   0.780   6.249  15.559 -0.2428  0.8976 -2.9141
 2066TIP3    H227614   0.778   6.105  15.513 -0.5370 -0.1130  0.1290
 2067TIP3   OH227615   2.259   3.321   1.986 -0.4283 -0.1670 -0.0384
 2067TIP3    H127616   2.269   3.268   1.907 -0.3502 -1.4115  0.8001
 2067TIP3    H227617   2.319   3.395   1.973 -0.5049 -0.3017 -1.1866
 2068TIP3   OH227618   0.440   3.063   3.482  0.0601  0.0878  0.8420
 2068TIP3    H127619   0.383   3.089   3.554 -0.3638 -0.8911  0.8696
 2068TIP3    H227620   0.384   3.009   3.426  0.5721  0.2952  0.1297
 2069TIP3   OH227621   2.816   0.788  11.855  0.5934 -0.1594 -0.3215
 2069TIP3    H127622   2.799   0.721  11.789 -0.8520  0.3647 -0.4929
 2069TIP3    H227623   2.797   0.745  11.939 -0.7195  0.1357 -0.4545
 2070TIP3   OH227624   5.483   6.322   5.198  0.2382  0.3161 -0.5460
 2070TIP3    H127625   5.477   6.277   5.282 -1.5465  1.1930 -0.1743
 2070TIP3    H227626   5.458   6.256   5.133  1.9900 -0.4703 -0.4471
 2071TIP3   OH227627   1.460   5.708   4.320  0.2263 -0.2546  0.4806
 2071TIP3    H127628   1.497   5.685   4.234  0.0604 -1.7160  0.7739
 2071TIP3    H227629   1.473   5.802   4.327 -0.8154  0.0861 -1.6566
 2072TIP3   OH227630   5.173   5.728  12.331  0.4977 -0.5463 -0.4625
 2072TIP3    H127631   5.268   5.743  12.334  0.4189 -0.3858  1.1422
 2072TIP3    H227632   5.135   5.802  12.378 -0.3152 -1.6451  0.6363
 2073TIP3   OH227633   5.113   0.523  11.152 -0.3469  0.2793  0.2468
 2073TIP3    H127634   5.096   0.429  11.149 -1.8536  0.4091  3.4196
 2073TIP3    H227635   5.134   0.546  11.061  0.6968 -3.2000 -0.4794
 2074TIP3   OH227636   5.187   4.530   2.600  0.2201  0.1851 -0.8522
 2074TIP3    H127637   5.115   4.583   2.634  0.9503  0.3888  0.4114
 2074TIP3    H227638   5.158   4.439   2.612 -0.2949  0.2763 -1.3919
 2075TIP3   OH227639   3.836   5.016   2.321 -0.1329 -0.2083  0.3842
 2075TIP3    H127640   3.860   4.925   2.337  1.7534 -0.0449 -1.4023
 2075TIP3    H227641   3.740   5.017   2.330 -0.0141 -1.9761  2.2014
 2076TIP3   OH227642   2.460   6.021  15.862  0.2029 -0.0342  0.6257
 2076TIP3    H127643   2.427   6.101  15.821 -2.1281  0.2850  2.9691
 2076TIP3    H227644   2.502   6.051  15.943  0.9460 -1.0397  0.6244
 2077TIP3   OH227645   5.164   0.646   1.761 -0.0695  0.3087 -0.3809
 2077TIP3    H127646   5.154   0.551   1.761  0.4980  0.2477 -0.1091
 2077TIP3    H227647   5.081   0.679   1.726 -1.5988 -0.1466  2.7179
 2078TIP3   OH227648   6.592   2.732  10.776  0.0851  0.6119 -0.8768
 2078TIP3    H127649   6.622   2.805  10.723 -0.0959  1.3027 -0.0459
 2078TIP3    H227650   6.502   2.716  10.746 -0.5221  1.9347  0.1805
 2079TIP3   OH227651   5.692   2.559  16.005  0.5099  0.6129  0.0011
 2079TIP3    H127652   5.641   2.602  15.936 -1.5979  1.1739  1.8438
 2079TIP3    H227653   5.775   2.537  15.963 -1.0213  0.1492 -2.9665
 2080TIP3   OH227654   5.088   6.180  13.168 -0.0694  0.0261  0.4228
 2080TIP3    H127655   5.097   6.088  13.194 -0.2651 -0.2243 -0.3904
 2080TIP3    H227656   5.078   6.227  13.251  2.0635 -0.4361  0.9822
 2081TIP3   OH227657   5.571   5.675   4.891 -0.1187 -0.6285 -0.5090
 2081TIP3    H127658   5.632   5.748   4.903  0.2559 -0.8682 -0.9482
 2081TIP3    H227659   5.544   5.682   4.799 -0.1887 -0.9619 -0.5123
 2082TIP3   OH227660   0.920   2.187   5.272  0.2757 -0.3786 -0.0482
 2082TIP3    H127661   0.904   2.280   5.287  0.3309 -0.4061  0.1792
 2082TIP3    H227662   0.957   2.156   5.354 -0.9734 -0.8915  0.3222
 2083TIP3   OH227663   4.827   4.594   2.438  0.2094  0.1124 -0.2179
 2083TIP3    H127664   4.785   4.513   2.409  0.8618 -0.2950 -0.0206
 2083TIP3    H227665   4.757   4.643   2.480 -0.4995  0.2319 -1.5140
 2084TIP3   OH227666   5.320   2.493  16.055 -0.1058 -0.7704 -0.4390
 2084TIP3    H127667   5.234   2.469  16.021 -0.1259  0.3973 -1.2250
 2084TIP3    H227668   5.362   2.542  15.984  0.4613  0.3095  0.6190
 2085TIP3   OH227669   5.847   5.730   5.857 -0.5033  0.6373 -0.0030
 2085TIP3    H127670   5.878   5.778   5.780  1.3840 -0.8353 -0.1828
 2085TIP3    H227671   5.855   5.794   5.928 -0.5903  1.4623 -0.7222
 2086TIP3   OH227672   0.347   5.461  15.920 -0.0767  0.6339 -0.7904
 2086TIP3    H127673   0.439   5.436  15.930  0.2226  1.9144 -0.2086
 2086TIP3    H227674   0.349   5.541  15.867 -0.9390  0.0770 -1.7010
 2087TIP3   OH227675   6.603   6.621   1.647  0.1508  0.6453 -0.0993
 2087TIP3    H127676   6.661   6.545   1.640  1.0019  1.1703  1.0081
 2087TIP3    H227677   6.663   6.695   1.661 -0.8029  1.1208  1.5797
 2088TIP3   OH227678   6.467   3.500  16.298 -0.0599  0.4003 -0.3538
 2088TIP3    H127679   6.373   3.489  16.282 -0.5737  1.7502  1.5396
 2088TIP3    H227680   6.491   3.575  16.245  0.4469 -1.2406 -2.5095
 2089TIP3   OH227681   6.206   2.705  14.297  0.7873 -0.4185 -0.3510
 2089TIP3    H127682   6.244   2.732  14.381  0.5501  0.4822 -0.5184
 2089TIP3    H227683   6.214   2.783  14.242  0.1234 -0.7189 -0.8738
 2090TIP3   OH227684   3.419   5.212   2.637 -0.4368 -0.0982 -0.7481
 2090TIP3    H127685   3.428   5.124   2.673  2.4635  0.5569  0.2302
 2090TIP3    H227686   3.369   5.199   2.556 -0.9740 -2.4819 -0.0890
 2091TIP3   OH227687   1.527   2.799  14.873  0.3240 -0.1693 -0.1519
 2091TIP3    H127688   1.469   2.787  14.948 -0.8818  1.2403 -0.8396
 2091TIP3    H227689   1.543   2.894  14.870  2.8837 -0.5428  0.1741
 2092TIP3   OH227690   2.139   2.893   4.333  0.8637 -0.3686 -0.7738
 2092TIP3    H127691   2.093   2.808   4.333  0.1401  0.0138  0.1936
 2092TIP3    H227692   2.188   2.893   4.415 -0.6296  0.9221  0.1495
 2093TIP3   OH227693   2.427   3.948   1.423  0.0279 -0.0040 -0.3495
 2093TIP3    H127694   2.366   3.875   1.423 -2.7205  2.1855  0.7912
 2093TIP3    H227695   2.392   4.010   1.358  0.2351  1.8692  1.2585
 2094TIP3   OH227696   0.266   1.325   5.192 -0.2202 -0.1366  0.6204
 2094TIP3    H127697   0.353   1.287   5.198 -0.1424 -0.1774 -0.6311
 2094TIP3    H227698   0.232   1.322   5.282 -0.2020 -3.1043  0.5701
 2095TIP3   OH227699   0.659   6.461   1.996 -0.1731  0.0421  0.0411
 2095TIP3    H127700   0.572   6.426   1.976 -1.3989  2.7615  0.4814
 2095TIP3    H227701   0.719   6.390   1.970 -2.5265 -2.2916  0.7240
 2096TIP3   OH227702   6.007   6.137  15.999 -0.4047  0.3442 -0.1878
 2096TIP3    H127703   6.022   6.230  16.018 -2.6182  0.6314  0.2623
 2096TIP3    H227704   5.991   6.134  15.905 -2.3557  0.7043  0.1275
 2097TIP3   OH227705   1.341   4.248  12.203  0.6125 -0.0827  0.2699
 2097TIP3    H127706   1.355   4.168  12.153  1.7919  0.7878 -0.8360
 2097TIP3    H227707   1.428   4.289  12.209 -0.0102  1.2459  0.5780
 2098TIP3   OH227708   5.538   5.795  12.927 -0.7338 -0.0608 -0.0408
 2098TIP3    H127709   5.475   5.728  12.903 -0.5948  0.4794 -1.9963
 2098TIP3    H227710   5.494   5.878  12.908  0.9461  0.3073 -2.5803
 2099TIP3   OH227711   2.402   1.665   1.899  0.3944  0.1635  0.0769
 2099TIP3    H127712   2.394   1.571   1.884 -0.1804  0.0022  1.2735
 2099TIP3    H227713   2.423   1.672   1.993 -0.4783  1.2538  0.2027
 2100TIP3   OH227714   5.825   6.222   0.725  0.3946 -0.2213  0.3312
 2100TIP3    H127715   5.897   6.246   0.782  0.8675  0.4798 -0.5448
 2100TIP3    H227716   5.781   6.150   0.770  1.4888 -0.4872  0.9824
 2101TIP3   OH227717   2.237   6.564   1.598  0.3985  0.0107  0.4073
 2101TIP3    H127718   2.155   6.520   1.576  0.8739 -0.0955 -1.2353
 2101TIP3    H227719   2.212   6.631   1.661 -0.9355 -0.1151  0.0303
 2102TIP3   OH227720   3.793   6.027   5.413 -0.1683  0.0942 -0.0333
 2102TIP3    H127721   3.859   6.049   5.479 -0.4957  1.1783 -0.0590
 2102TIP3    H227722   3.798   5.932   5.405  2.6363  0.2886 -1.3397
 2103TIP3   OH227723   3.762   2.157  16.477 -0.1066 -0.3625 -0.1702
 2103TIP3    H127724   3.709   2.230  16.508  0.3761 -0.4675  0.9177
 2103TIP3    H227725   3.839   2.156  16.534  1.8051  0.6848 -2.6188
 2104TIP3   OH227726   1.334   6.209  16.341  0.1204  0.5598  0.6318
 2104TIP3    H127727   1.273   6.191  16.413  0.1911  0.4568  0.6663
 2104TIP3    H227728   1.286   6.270  16.284 -0.3020 -0.1078  0.2658
 2105TIP3   OH227729   6.682   0.743  12.469 -0.1589  0.1868  0.2441
 2105TIP3    H127730   6.648   0.712  12.553 -1.0140 -0.4074 -0.3129
 2105TIP3    H227731   6.659   0.674  12.407 -0.4223  1.0763 -0.6683
 2106TIP3   OH227732   4.279   2.401  16.769 -0.2221  0.0000 -0.4137
 2106TIP3    H127733   4.219   2.438  16.834 -0.0286  1.7357 -1.1942
 2106TIP3    H227734   4.227   2.396  16.689  0.6507  1.5257 -1.0961
 2107TIP3   OH227735   0.388   5.124  15.631  0.0403  0.0454 -0.3604
 2107TIP3    H127736   0.332   5.050  15.655  1.8575 -0.9371  1.0084
 2107TIP3    H227737   0.328   5.191  15.599 -1.8159 -1.3180  0.2135
 2108TIP3   OH227738   6.339   3.523  14.805 -0.4109  0.1472 -0.2081
 2108TIP3    H127739   6.301   3.436  14.795 -1.7764  0.8691 -1.5619
 2108TIP3    H227740   6.263   3.581  14.817  0.4990  1.0973  1.0695
 2109TIP3   OH227741   2.481   0.486   3.010 -0.3553  0.0703 -0.3880
 2109TIP3    H127742   2.549   0.439   2.963 -0.7284 -1.7776  0.8514
 2109TIP3    H227743   2.512   0.488   3.101 -1.5041  0.0346  0.0146
 2110TIP3   OH227744   2.728   6.697  13.805  0.0164 -0.3518  0.2227
 2110TIP3    H127745   2.651   6.693  13.862 -1.5182  2.5611 -1.5549
 2110TIP3    H227746   2.712   6.631  13.738 -0.4880 -0.3864  0.3785
 2111TIP3   OH227747   1.394   1.671  14.555 -0.4121 -0.2499 -0.5356
 2111TIP3    H127748   1.383   1.755  14.510 -0.4415 -0.1176 -0.2867
 2111TIP3    H227749   1.306   1.649  14.585 -0.0290  0.8112  1.4637
 2112TIP3   OH227750   5.050   1.618   1.810  0.8071  0.2968 -0.6049
 2112TIP3    H127751   4.977   1.659   1.856  1.0520 -1.0579  1.0176
 2112TIP3    H227752   5.114   1.688   1.798 -0.5012  1.3602 -1.5439
 2113TIP3   OH227753   4.613   1.615   1.938 -0.8162  0.1107 -0.3550
 2113TIP3    H127754   4.556   1.600   1.863 -0.9837  1.2559 -0.4665
 2113TIP3    H227755   4.679   1.677   1.906  1.8405 -2.8599 -0.8904
 2114TIP3   OH227756   6.143   5.726   6.145  0.0265  0.1897 -0.0044
 2114TIP3    H127757   6.235   5.746   6.159 -0.5151  2.5682  0.3515
 2114TIP3    H227758   6.109   5.800   6.095 -1.8510 -0.3593  0.3969
 2115TIP3   OH227759   6.335   2.988   2.365 -0.1853 -0.4676  0.1410
 2115TIP3    H127760   6.359   3.064   2.420  0.4500 -1.3120  1.0454
 2115TIP3    H227761   6.319   2.918   2.428 -2.1853 -0.7075 -0.6272
 2116TIP3   OH227762   4.346   4.350   0.714  0.2137  0.0461  0.3001
 2116TIP3    H127763   4.412   4.355   0.644  2.8098  1.1254  2.7009
 2116TIP3    H227764   4.298   4.433   0.706  0.2263 -0.0134 -0.4592
 2117TIP3   OH227765   3.542   1.770   2.167 -0.0013  0.2315 -0.7224
 2117TIP3    H127766   3.554   1.857   2.129 -0.0533 -0.6136 -2.7311
 2117TIP3    H227767   3.605   1.766   2.239  0.7479  1.5339 -1.2968
 2118TIP3   OH227768   4.267   4.997   4.148 -0.5663  0.1819  0.5305
 2118TIP3    H127769   4.176   5.028   4.147 -0.4566  0.4697 -0.9434
 2118TIP3    H227770   4.272   4.936   4.075  0.7217  0.9813 -0.0584
 2119TIP3   OH227771   2.722   2.788  14.364  0.0115 -0.2132 -0.2437
 2119TIP3    H127772   2.788   2.857  14.375 -1.8535  1.3757  1.5003
 2119TIP3    H227773   2.655   2.828  14.308 -0.5515 -0.9786 -0.1249
 2120TIP3   OH227774   0.261   5.369   5.202 -0.1108  0.5923 -0.0547
 2120TIP3    H127775   0.354   5.370   5.226 -0.0879 -2.4532  0.1512
 2120TIP3    H227776   0.261   5.375   5.107  0.3507 -0.1813 -0.1099
 2121TIP3   OH227777   0.457   1.110   1.602 -0.3785 -0.8385 -0.2579
 2121TIP3    H127778   0.487   1.108   1.512  1.4226 -0.3319  0.3113
 2121TIP3    H227779   0.365   1.138   1.596 -0.4608 -1.4183 -1.9560
 2122TIP3   OH227780   0.589   5.600  16.057  0.0485  0.0326 -0.1702
 2122TIP3    H127781   0.575   5.509  16.031 -2.0635  0.3346 -0.1690
 2122TIP3    H227782   0.662   5.596  16.119 -1.3232 -1.9173  1.3871
 2123TIP3   OH227783   3.052   2.424  13.859 -0.0870  0.1593  0.5664
 2123TIP3    H127784   2.956   2.419  13.858 -0.0938 -0.2571  1.9371
 2123TIP3    H227785   3.081   2.335  13.840  0.0209  0.1154  0.9347
 2124TIP3   OH227786   1.863   3.254  11.102 -0.4294 -0.2916 -0.1915
 2124TIP3    H127787   1.924   3.292  11.039  1.0454 -1.7801  0.3046
 2124TIP3    H227788   1.856   3.162  11.076 -0.8597 -0.6059  1.0002
 2125TIP3   OH227789   0.192   5.095  15.146  0.5360 -0.3370  0.1079
 2125TIP3    H127790   0.153   5.152  15.080  0.0578 -1.7322 -0.8531
 2125TIP3    H227791   0.276   5.136  15.168  1.0714 -0.2874 -1.9698
 2126TIP3   OH227792   2.774   5.436  15.244  0.0074 -0.9160  0.6640
 2126TIP3    H127793   2.860   5.444  15.204 -0.5482  1.5519 -0.1033
 2126TIP3    H227794   2.717   5.406  15.173 -0.3312  0.3129  0.4033
 2127TIP3   OH227795   0.663   1.064  14.982 -0.2897 -0.2246 -0.4274
 2127TIP3    H127796   0.622   1.150  14.987  1.8033  0.7476  0.2722
 2127TIP3    H227797   0.668   1.034  15.072 -1.1065 -1.1505 -0.6752
 2128TIP3   OH227798   0.861   1.992  10.573  0.2960 -0.3177  0.2346
 2128TIP3    H127799   0.924   2.063  10.582 -0.7925  0.5673  0.9663
 2128TIP3    H227800   0.892   1.924  10.633  0.4234  0.1959  0.7483
 2129TIP3   OH227801   6.292   4.682   4.680  0.1393  0.3942  0.1333
 2129TIP3    H127802   6.268   4.694   4.771 -1.0206  0.3375 -0.1652
 2129TIP3    H227803   6.211   4.657   4.636  0.5238  1.1948 -1.0564
 2130TIP3   OH227804   4.137   3.145  11.955  0.4366  0.0460 -0.2154
 2130TIP3    H127805   4.229   3.120  11.959  0.2900 -0.2547  2.8231
 2130TIP3    H227806   4.136   3.226  11.906  2.5410  0.8486  1.0072
 2131TIP3   OH227807   5.968   4.986   1.082  0.5435 -0.0529 -0.3003
 2131TIP3    H127808   5.979   4.900   1.041  4.2655 -0.1593  0.7527
 2131TIP3    H227809   5.988   5.049   1.013  0.0842 -0.0953 -0.4697
 2132TIP3   OH227810   0.320   0.957  11.552  0.1373  0.6230  0.0198
 2132TIP3    H127811   0.398   1.010  11.534  1.1571 -0.5902  0.8025
 2132TIP3    H227812   0.268   1.010  11.612 -0.2660  1.9845 -1.4928
 2133TIP3   OH227813   3.090   3.582  11.331 -0.6597 -0.0097 -0.2333
 2133TIP3    H127814   3.013   3.604  11.383 -0.1120  0.8886  0.2001
 2133TIP3    H227815   3.062   3.597  11.241 -0.9691  0.3841 -0.0763
 2134TIP3   OH227816   1.557   1.773   1.929  0.1405 -0.4776  0.0039
 2134TIP3    H127817   1.572   1.816   2.013 -0.2093  1.5600 -0.9168
 2134TIP3    H227818   1.628   1.805   1.873 -1.3536  0.6219 -1.3126
 2135TIP3   OH227819   6.220   5.308  16.970  0.2409 -0.5927  0.5090
 2135TIP3    H127820   6.151   5.248  16.940  0.3425 -0.9858  1.0577
 2135TIP3    H227821   6.301   5.269  16.936 -0.0118  1.2570 -2.3887
 2136TIP3   OH227822   3.681   0.617   3.541 -0.4140  0.0727 -0.2167
 2136TIP3    H127823   3.693   0.522   3.537  0.2585  0.2378 -2.8213
 2136TIP3    H227824   3.763   0.650   3.578 -1.1582 -0.4173  1.9771
 2137TIP3   OH227825   0.196   3.636  12.516  0.4668  0.1610  0.0846
 2137TIP3    H127826   0.181   3.554  12.470 -1.9772  0.8309 -0.3642
 2137TIP3    H227827   0.245   3.690  12.454 -0.5789  0.1310 -0.7767
 2138TIP3   OH227828   4.902   6.384  15.808  0.2958  0.3558  0.3031
 2138TIP3    H127829   4.839   6.392  15.880 -1.6543 -1.6153 -1.1275
 2138TIP3    H227830   4.936   6.295  15.816 -0.4935 -0.1343 -1.6284
 2139TIP3   OH227831   0.698   0.999   4.086  0.0911 -0.2194  0.0021
 2139TIP3    H127832   0.650   0.930   4.131 -0.1432  0.3609  0.6411
 2139TIP3    H227833   0.637   1.072   4.082  1.1612  0.7766  1.4755
 2140TIP3   OH227834   3.642   1.575  11.411  0.1303  0.2607 -0.4293
 2140TIP3    H127835   3.631   1.481  11.395  1.0204 -0.1965  1.5790
 2140TIP3    H227836   3.692   1.606  11.335 -0.2442 -0.8528 -1.1422
 2141TIP3   OH227837   3.382   5.848   2.684 -0.5646 -0.2001 -0.1312
 2141TIP3    H127838   3.422   5.901   2.754  0.1187 -2.0767  0.9207
 2141TIP3    H227839   3.453   5.832   2.622 -0.4686 -0.9240  0.1679
 2142TIP3   OH227840   5.255   5.291   1.323 -0.2809  0.6799  0.7108
 2142TIP3    H127841   5.311   5.214   1.314  1.5267  2.1699 -1.5135
 2142TIP3    H227842   5.263   5.316   1.415  1.2386 -0.2443  0.8528
 2143TIP3   OH227843   5.295   1.018  16.524 -0.2318 -0.4267 -0.9392
 2143TIP3    H127844   5.300   1.111  16.545  1.8407 -0.7773  0.3048
 2143TIP3    H227845   5.212   0.988  16.560  1.2487 -0.0518  2.9540
 2144TIP3   OH227846   1.290   4.524   2.541  0.3929 -0.0767  0.2504
 2144TIP3    H127847   1.196   4.510   2.534  0.3814 -1.3801  2.4353
 2144TIP3    H227848   1.306   4.606   2.494 -2.2235  1.5291  2.0023
 2145TIP3   OH227849   5.080   0.480  16.076  0.1436  0.3010  0.4106
 2145TIP3    H127850   5.018   0.531  16.127  1.3348  0.6415  1.5400
 2145TIP3    H227851   5.119   0.543  16.015 -1.3173 -0.1156 -1.0130
 2146TIP3   OH227852   0.383   0.522   2.870  0.2748  0.1434  0.4684
 2146TIP3    H127853   0.383   0.427   2.859  0.2917  0.0647  1.1346
 2146TIP3    H227854   0.297   0.550   2.840  0.6888  0.0490 -0.8339
 2147TIP3   OH227855   6.283   6.477   2.753  0.2559 -0.3267 -0.0933
 2147TIP3    H127856   6.207   6.528   2.779  1.1865  1.1853 -0.2705
 2147TIP3    H227857   6.317   6.442   2.835 -0.4223 -0.7139  0.0226
 2148TIP3   OH227858   3.955   1.465   1.934 -0.4633  0.1465  1.0132
 2148TIP3    H127859   4.021   1.425   1.991 -1.1205 -0.2706  1.4949
 2148TIP3    H227860   3.974   1.430   1.847  0.2920  0.4626  1.0509
 2149TIP3   OH227861   6.302   0.418   3.759 -0.0352  0.0947 -0.2722
 2149TIP3    H127862   6.286   0.350   3.825  1.4177 -0.5693 -0.5822
 2149TIP3    H227863   6.222   0.421   3.707 -0.5118 -0.6400  0.4135
 2150TIP3   OH227864   2.910   2.543   0.501 -0.7077 -0.5180 -0.2175
 2150TIP3    H127865   2.828   2.514   0.542 -1.1662 -0.8224 -1.3389
 2150TIP3    H227866   2.900   2.520   0.409  1.4015 -2.2647 -0.0492
 2151TIP3   OH227867   6.405   2.688   4.992  0.0075  0.3386 -0.3493
 2151TIP3    H127868   6.361   2.716   4.912 -1.7491 -0.2305  0.3899
 2151TIP3    H227869   6.341   2.633   5.037  1.3844 -0.2971  0.8986
 2152TIP3   OH227870   2.565   1.935   3.707 -0.6233 -0.2069 -0.4282
 2152TIP3    H127871   2.595   1.895   3.788 -1.7423  1.7139  0.9702
 2152TIP3    H227872   2.584   1.870   3.639  2.6508 -0.8096  0.9819
 2153TIP3   OH227873   1.118   0.843   0.596  0.1785  0.2429 -0.6304
 2153TIP3    H127874   1.103   0.832   0.690  1.7848  2.8756 -0.0051
 2153TIP3    H227875   1.032   0.827   0.556 -0.6817 -0.1889  1.3483
 2154TIP3   OH227876   6.092   1.951  15.325  0.0113 -0.4522  0.4180
 2154TIP3    H127877   6.035   1.912  15.258  0.4297 -2.3932  1.1419
 2154TIP3    H227878   6.168   1.982  15.277 -1.1767  1.2361 -0.4305
 2155TIP3   OH227879   1.892   3.381  11.811  1.1028  0.0706 -0.0638
 2155TIP3    H127880   1.976   3.391  11.856  2.1167  1.7369 -2.1916
 2155TIP3    H227881   1.914   3.332  11.731  0.5017  2.5435 -1.7915
 2156TIP3   OH227882   4.909   3.453  15.537  0.0414 -0.3328  0.4852
 2156TIP3    H127883   4.947   3.432  15.622 -1.5151  0.2083  1.3431
 2156TIP3    H227884   4.845   3.384  15.521 -0.2052 -0.0211  0.1062
 2157TIP3   OH227885   1.680   6.626  11.220 -0.2799 -0.5805  0.0785
 2157TIP3    H127886   1.607   6.615  11.280 -0.6239  0.5243 -0.1296
 2157TIP3    H227887   1.665   6.561  11.151 -1.0029 -0.4364  0.0965
 2158TIP3   OH227888   4.198   1.208  14.220 -0.2505 -0.3793  0.8029
 2158TIP3    H127889   4.275   1.184  14.169  0.8869  1.3104  1.6609
 2158TIP3    H227890   4.217   1.177  14.308 -0.7688 -0.3994  0.9082
 2159TIP3   OH227891   1.064   0.452  16.859 -0.4922  0.2883 -0.2480
 2159TIP3    H127892   1.108   0.369  16.878  0.8345  1.1199  0.3888
 2159TIP3    H227893   1.115   0.490  16.787  0.4825  1.7237  1.1615
 2160TIP3   OH227894   1.156   0.561  14.914  0.1727  0.0730  0.0271
 2160TIP3    H127895   1.197   0.586  14.831 -0.0323  0.6319  0.0895
 2160TIP3    H227896   1.199   0.617  14.979  0.3964 -0.4261  0.3141
 2161TIP3   OH227897   4.549   5.295   2.703 -0.3170 -0.5732 -0.1797
 2161TIP3    H127898   4.487   5.358   2.738  1.8388  1.4951  0.0539
 2161TIP3    H227899   4.603   5.270   2.778  0.5128 -0.6894 -0.8077
 2162TIP3   OH227900   0.047   3.779   2.730 -0.0789 -0.4602  0.0453
 2162TIP3    H127901   0.110   3.819   2.670  2.0144 -3.2042  0.2812
 2162TIP3    H227902   0.031   3.845   2.797  2.4883  0.3623 -0.1042
 2163TIP3   OH227903   1.409   1.030   0.213  0.2747 -0.1484  0.5993
 2163TIP3    H127904   1.496   1.043   0.250  1.0612  1.2012 -1.6745
 2163TIP3    H227905   1.424   0.983   0.131 -1.1161  0.3024  0.0666
 2164TIP3   OH227906   5.223   6.668   1.794  0.1259  0.2427 -0.1381
 2164TIP3    H127907   5.282   6.619   1.851  2.9232  0.8655 -2.3500
 2164TIP3    H227908   5.201   6.747   1.843  0.4074 -0.4188  1.0675
 2165TIP3   OH227909   4.129   3.794   3.346 -0.0803  0.1068 -0.0098
 2165TIP3    H127910   4.078   3.869   3.375 -2.4981 -2.0373  1.4369
 2165TIP3    H227911   4.203   3.791   3.408  0.7779  1.9947 -0.8706
 2166TIP3   OH227912   5.918   6.038   5.132  0.3051  0.0719 -0.4453
 2166TIP3    H127913   5.851   6.003   5.074 -0.0580 -0.4047  0.2453
 2166TIP3    H227914   5.996   5.984   5.115  0.4043  0.3897 -0.9865
 2167TIP3   OH227915   4.446   3.349  13.118  0.0709 -0.2471 -0.1899
 2167TIP3    H127916   4.378   3.395  13.169 -1.6107 -0.6253 -2.0520
 2167TIP3    H227917   4.506   3.418  13.091  1.5337 -0.1573  3.0756
 2168TIP3   OH227918   3.858   1.801   2.031 -0.7264 -0.0281 -0.3900
 2168TIP3    H127919   3.936   1.772   1.984 -1.2257  0.2753 -1.4204
 2168TIP3    H227920   3.791   1.811   1.963 -1.4114  0.5911  0.3610
 2169TIP3   OH227921   2.991   3.188  15.112  0.6115 -0.1655 -0.2124
 2169TIP3    H127922   3.012   3.137  15.033  0.9733 -0.1967 -0.0966
 2169TIP3    H227923   3.071   3.186  15.164  0.4320  0.0151  0.0718
 2170TIP3   OH227924   5.215   4.840   4.045  0.6001  0.1788  0.5101
 2170TIP3    H127925   5.186   4.817   4.133  1.2872  1.1050  0.9797
 2170TIP3    H227926   5.165   4.919   4.023 -0.3064 -0.6090 -0.3274
 2171TIP3   OH227927   1.468   1.429  16.057 -0.2797  0.2382 -0.0465
 2171TIP3    H127928   1.516   1.501  16.016 -0.7202  0.8777  0.5534
 2171TIP3    H227929   1.513   1.350  16.027  0.0216  0.7485 -0.9507
 2172TIP3   OH227930   1.460   4.337   1.176  0.2792 -0.4770  0.1531
 2172TIP3    H127931   1.413   4.319   1.095  0.3996  0.0302 -0.0358
 2172TIP3    H227932   1.455   4.432   1.186  0.2504 -0.5366  0.7503
 2173TIP3   OH227933   1.632   0.585   3.934  0.2397  0.3102  0.0476
 2173TIP3    H127934   1.680   0.505   3.913 -2.4855 -0.9530 -1.6953
 2173TIP3    H227935   1.585   0.606   3.853 -0.4075  2.7394  1.0227
 2174TIP3   OH227936   2.916   4.008  11.571 -0.0092 -0.2091 -0.3868
 2174TIP3    H127937   2.971   4.086  11.562 -0.1879 -0.1235 -0.7266
 2174TIP3    H227938   2.827   4.040  11.562 -0.1045 -0.3837 -0.0524
 2175TIP3   OH227939   2.392   2.553   3.875  0.3659 -0.2642  0.8150
 2175TIP3    H127940   2.398   2.483   3.810 -2.6732  0.5671 -0.4710
 2175TIP3    H227941   2.299   2.555   3.898  0.6198  2.5805  1.7075
 2176TIP3   OH227942   4.452   1.352   3.141 -0.3874  0.4629 -0.9128
 2176TIP3    H127943   4.364   1.337   3.175  0.3642 -0.4612  0.6640
 2176TIP3    H227944   4.438   1.405   3.062 -2.4500 -0.8869 -1.4999
 2177TIP3   OH227945   4.984   2.492   0.458  0.2249  0.1933  0.4315
 2177TIP3    H127946   4.906   2.527   0.501  0.1885 -0.4884  0.9354
 2177TIP3    H227947   4.951   2.449   0.379  0.0803 -0.2042  0.7106
 2178TIP3   OH227948   2.933   6.753  15.371 -0.2588 -0.2115 -0.0517
 2178TIP3    H127949   3.018   6.796  15.382 -1.1932  1.5515  0.4804
 2178TIP3    H227950   2.934   6.683  15.436  0.1372  0.8797  1.1635
 2179TIP3   OH227951   1.984   0.911   2.405  0.1878  0.1110 -0.0321
 2179TIP3    H127952   1.938   0.983   2.362  0.5205  1.2323  1.4561
 2179TIP3    H227953   1.920   0.839   2.406 -0.7953  0.9782  0.1286
 2180TIP3   OH227954   4.765   5.431  14.657  0.2189  0.1596  0.3710
 2180TIP3    H127955   4.786   5.343  14.687  0.1569 -0.1327 -0.4340
 2180TIP3    H227956   4.849   5.475  14.648  0.2226  0.3583  1.2759
 2181TIP3   OH227957   0.634   1.347  15.113 -0.7986  0.0220  0.1752
 2181TIP3    H127958   0.618   1.302  15.196 -0.5693 -0.1315  0.1383
 2181TIP3    H227959   0.729   1.362  15.113 -0.6407 -0.9465 -0.5619
 2182TIP3   OH227960   0.907   5.854  12.637  0.1549  0.5441  0.5246
 2182TIP3    H127961   0.908   5.882  12.728  0.7237  0.6868  0.4758
 2182TIP3    H227962   0.907   5.935  12.587 -2.0740  0.5046  0.3912
 2183TIP3   OH227963   6.015   5.272   2.302 -0.7044  0.6780  0.4105
 2183TIP3    H127964   5.920   5.282   2.291 -0.5093  0.1684 -1.9824
 2183TIP3    H227965   6.024   5.208   2.372 -2.1417 -0.0647 -0.0556
 2184TIP3   OH227966   5.487   1.712  11.638  0.2770  0.6930 -0.9301
 2184TIP3    H127967   5.395   1.699  11.617 -0.2533  3.2876 -0.4060
 2184TIP3    H227968   5.496   1.807  11.648  2.8172  0.4029 -0.1098
 2185TIP3   OH227969   1.456   2.747  14.447 -0.2181 -0.0123 -0.3014
 2185TIP3    H127970   1.523   2.691  14.408 -0.5940 -1.9763  1.7627
 2185TIP3    H227971   1.490   2.836  14.437  1.2197 -0.7218 -2.0539
 2186TIP3   OH227972   4.115   4.537   6.042 -0.7718 -0.1971  0.0011
 2186TIP3    H127973   4.132   4.628   6.067 -0.7915 -0.3641  0.6425
 2186TIP3    H227974   4.049   4.506   6.105  0.2838 -1.0800  0.7023
 2187TIP3   OH227975   2.003   5.176   6.135 -0.1106  0.0189 -0.7514
 2187TIP3    H127976   1.962   5.114   6.195  1.8198 -2.8481 -2.3389
 2187TIP3    H227977   2.063   5.226   6.191  1.5829 -2.5356 -0.2034
 2188TIP3   OH227978   4.663   3.968  16.277  0.2200 -0.4163  0.2042
 2188TIP3    H127979   4.659   4.040  16.214  3.3331 -3.4410 -3.7673
 2188TIP3    H227980   4.575   3.933  16.280 -1.0322  2.6630  1.1903
 2189TIP3   OH227981   4.194   3.072   1.764 -0.0593  0.4921  0.0204
 2189TIP3    H127982   4.120   3.084   1.823  0.6754  0.6743  0.9186
 2189TIP3    H227983   4.163   3.009   1.698 -0.7562 -0.0011  0.8124
 2190TIP3   OH227984   2.495   1.541   5.163  0.3266 -0.3025  0.0340
 2190TIP3    H127985   2.504   1.466   5.221  0.0704 -0.4007 -0.0482
 2190TIP3    H227986   2.526   1.616   5.213  1.4312 -0.6013 -0.2034
 2191TIP3   OH227987   3.849   4.054  15.682 -0.1076  0.3678  0.2914
 2191TIP3    H127988   3.817   3.979  15.731 -1.6608  0.9386  0.1585
 2191TIP3    H227989   3.920   4.018  15.628 -2.1716 -1.4874 -1.3181
 2192TIP3   OH227990   3.655   2.418  16.527 -0.1517  0.5327  0.8901
 2192TIP3    H127991   3.674   2.500  16.572 -0.9056  1.0983  0.1791
 2192TIP3    H227992   3.573   2.434  16.481 -0.1526 -0.5271  0.5118
 2193TIP3   OH227993   2.932   1.113  11.227 -0.3318 -0.3667 -0.1173
 2193TIP3    H127994   3.014   1.136  11.183 -0.4508  0.4713  0.0847
 2193TIP3    H227995   2.863   1.144  11.168 -0.5029  2.5731  1.5146
 2194TIP3   OH227996   1.729   5.830  16.612  0.0742 -0.0191 -0.2527
 2194TIP3    H127997   1.689   5.780  16.683 -1.4025  1.4810 -0.0053
 2194TIP3    H227998   1.784   5.766  16.567 -2.4296 -2.0979 -0.4888
 2195TIP3   OH227999   1.045   1.086   2.614  0.6811  0.0011  0.3977
 2195TIP3    H128000   0.955   1.106   2.590  0.2491 -0.6345  1.4526
 2195TIP3    H228001   1.070   1.012   2.558  0.4462 -0.0229  0.3253
 2196TIP3   OH228002   6.419   4.040   4.454 -0.3125 -0.1597  0.5068
 2196TIP3    H128003   6.344   4.006   4.406  1.3270 -1.3491 -1.3077
 2196TIP3    H228004   6.409   4.135   4.450 -0.0135 -0.1836 -2.6689
 2197TIP3   OH228005   0.722   3.557   6.569 -0.3137 -0.5909 -0.8035
 2197TIP3    H128006   0.666   3.518   6.637 -0.5445 -0.1953 -0.7654
 2197TIP3    H228007   0.719   3.494   6.497  1.1400 -1.7470  0.1199
 2198TIP3   OH228008   6.471   2.289  10.826  0.8314 -0.0436 -0.1692
 2198TIP3    H128009   6.536   2.354  10.798  0.2462  0.0167 -1.4333
 2198TIP3    H228010   6.523   2.210  10.844  1.2006 -0.2172 -1.8826
 2199TIP3   OH228011   5.813   3.856   1.893  0.4652 -0.0711 -0.2374
 2199TIP3    H128012   5.784   3.765   1.900  0.6793 -0.0825  0.5109
 2199TIP3    H228013   5.905   3.849   1.867  0.3771 -0.0587 -0.5611
 2200TIP3   OH228014   2.969   5.032   1.753  0.4775  0.1090 -0.5793
 2200TIP3    H128015   2.887   5.046   1.800  0.2074  1.7540 -1.5020
 2200TIP3    H228016   2.957   4.949   1.707  0.3337 -0.9756  1.3613
 2201TIP3   OH228017   0.551   5.796  11.120 -0.2653  0.4658  0.0945
 2201TIP3    H128018   0.589   5.713  11.093 -0.0369  0.7403 -0.4366
 2201TIP3    H228019   0.576   5.858  11.051  2.1180  1.6537  1.9240
 2202TIP3   OH228020   0.259   0.449  12.023 -0.5522 -0.6567  0.6865
 2202TIP3    H128021   0.205   0.436  11.945  2.3038 -1.5156 -1.2372
 2202TIP3    H228022   0.196   0.465  12.093 -3.2020  0.5496 -1.8485
 2203TIP3   OH228023   3.000   4.547  13.165 -0.1611 -0.0606 -0.0426
 2203TIP3    H128024   3.019   4.456  13.186 -1.6528 -0.1081  1.2006
 2203TIP3    H228025   3.061   4.569  13.095  0.2176 -2.0096 -0.3426
 2204TIP3   OH228026   0.158   0.617   2.748  0.3412 -0.6869 -0.0361
 2204TIP3    H128027   0.111   0.690   2.708  0.0145 -0.4473  0.7635
 2204TIP3    H228028   0.112   0.539   2.718  1.4391 -0.6395 -1.8709
 2205TIP3   OH228029   1.249   5.236  14.192  0.8082 -0.0330 -0.5158
 2205TIP3    H128030   1.227   5.324  14.160  0.4998  0.3938  0.8450
 2205TIP3    H228031   1.304   5.199  14.123  0.0271  0.8084 -1.6109
 2206TIP3   OH228032   3.596   6.266   4.264  0.0654 -0.1527 -0.1895
 2206TIP3    H128033   3.619   6.196   4.326  1.0058  0.4954  0.2056
 2206TIP3    H228034   3.666   6.331   4.275  0.0885  0.0961 -1.7318
 2207TIP3   OH228035   3.472   3.560   4.279 -0.0673 -0.4536 -0.4811
 2207TIP3    H128036   3.518   3.641   4.300 -0.4358  0.3301 -2.5376
 2207TIP3    H228037   3.540   3.503   4.243 -0.1784 -0.3075 -0.9282
 2208TIP3   OH228038   0.157   3.366   3.211  0.1033 -0.1229  0.2404
 2208TIP3    H128039   0.086   3.343   3.151  0.5063  0.9995 -0.6629
 2208TIP3    H228040   0.120   3.435   3.267 -0.4832 -1.5999  1.7263
 2209TIP3   OH228041   4.111   2.654   1.896  0.8564 -0.2037  0.0590
 2209TIP3    H128042   4.200   2.659   1.861  1.1711 -0.2524  0.8378
 2209TIP3    H228043   4.056   2.690   1.826  1.5217  0.1270 -0.3035
 2210TIP3   OH228044   6.221   3.575  13.647  0.2129  0.2003 -0.1053
 2210TIP3    H128045   6.248   3.667  13.647 -0.6226  0.4784  2.8310
 2210TIP3    H228046   6.297   3.528  13.610  0.5231  2.0525 -1.9360
 2211TIP3   OH228047   2.188   2.289  13.592 -0.0747  0.0678 -0.5007
 2211TIP3    H128048   2.283   2.292  13.590 -0.1054  1.4198 -0.3530
 2211TIP3    H228049   2.165   2.208  13.547  1.2194 -1.4274  1.4818
 2212TIP3   OH228050   0.706   0.725  11.871 -0.0515 -0.1359  0.4420
 2212TIP3    H128051   0.775   0.661  11.852  2.2354  1.6950  2.2044
 2212TIP3    H228052   0.645   0.678  11.928  0.9810 -1.0872  0.7883
 2213TIP3   OH228053   6.136   0.166   0.043  0.0098 -0.2281  0.1212
 2213TIP3    H128054   6.129   0.147  -0.050 -0.0128 -1.0650  0.2926
 2213TIP3    H228055   6.220   0.127   0.070 -0.6816 -1.3099  0.7620
 2214TIP3   OH228056   4.548   0.644   3.344  0.1883 -0.0796  0.1052
 2214TIP3    H128057   4.586   0.558   3.364  0.2163  0.2923  1.7557
 2214TIP3    H228058   4.456   0.635   3.367 -0.0650 -0.0276 -0.8837
 2215TIP3   OH228059   0.347   6.632  15.359 -0.5043  0.2296 -0.1094
 2215TIP3    H128060   0.442   6.637  15.366 -0.3004 -0.0930 -2.3373
 2215TIP3    H228061   0.321   6.570  15.427  0.7307  1.3651  1.4277
 2216TIP3   OH228062   0.305   3.783  15.502 -0.4999  0.4171  0.2763
 2216TIP3    H128063   0.329   3.697  15.536 -0.4945  0.4927  0.4667
 2216TIP3    H228064   0.328   3.780  15.410  0.1040  0.4391  0.4262
 2217TIP3   OH228065   2.881   4.519   0.618 -0.0800 -0.0857  0.3907
 2217TIP3    H128066   2.951   4.572   0.657 -0.5343  0.9578 -0.1871
 2217TIP3    H228067   2.832   4.485   0.693 -0.3789  1.1366  0.7565
 2218TIP3   OH228068   5.785   5.596   5.424  0.0456  0.0242  0.1371
 2218TIP3    H128069   5.732   5.675   5.411 -1.9016 -1.6015 -2.4707
 2218TIP3    H228070   5.758   5.563   5.509 -1.6791  0.3705 -0.2369
 2219TIP3   OH228071   1.100   4.778  16.540  0.0884  0.0128 -0.0952
 2219TIP3    H128072   1.038   4.735  16.481  0.5557 -1.2344  0.3053
 2219TIP3    H228073   1.124   4.710  16.603  2.4327  0.2849 -0.6714
 2220TIP3   OH228074   6.312   6.444   3.045 -0.8026  0.6277 -0.0400
 2220TIP3    H128075   6.228   6.480   3.016 -1.2722  0.1244  0.6604
 2220TIP3    H228076   6.288   6.368   3.099  0.1244  0.0384 -0.4442
 2221TIP3   OH228077   3.306   1.604   5.182  0.0759 -0.0400 -0.2203
 2221TIP3    H128078   3.277   1.658   5.256  0.1297  0.7148 -0.7406
 2221TIP3    H228079   3.252   1.633   5.109 -0.1070 -0.9215 -0.4335
 2222TIP3   OH228080   5.954   5.956   4.684  0.1626  0.2748  0.0571
 2222TIP3    H128081   5.982   5.936   4.595  1.1918 -0.8364  0.6174
 2222TIP3    H228082   6.031   5.992   4.727 -0.2534  0.5543  0.5901
 2223TIP3   OH228083   1.698   4.543  15.233 -0.5376 -0.1658 -0.1133
 2223TIP3    H128084   1.734   4.630  15.253 -1.4311 -0.0031  0.7997
 2223TIP3    H228085   1.610   4.544  15.270 -1.1370 -0.9228 -1.4769
 2224TIP3   OH228086   6.162   1.420   4.392  0.3412  0.1218 -0.4341
 2224TIP3    H128087   6.251   1.444   4.365  0.3518 -0.8038 -1.2146
 2224TIP3    H228088   6.171   1.394   4.484  0.6226  1.4208 -0.0734
 2225TIP3   OH228089   3.950   3.661  13.295  0.4692 -0.0355 -0.1883
 2225TIP3    H128090   3.962   3.710  13.377 -0.6467  0.0466 -0.0691
 2225TIP3    H228091   3.995   3.714  13.229  0.7366  0.2745  0.2372
 2226TIP3   OH228092   0.296   4.351  11.091  0.2171  0.4586  0.1785
 2226TIP3    H128093   0.282   4.323  11.000 -2.5285  1.9917  0.0737
 2226TIP3    H228094   0.376   4.403  11.088  1.4918 -1.5175 -0.8955
 2227TIP3   OH228095   5.562   0.948  12.599  0.2170  0.6311 -0.5787
 2227TIP3    H128096   5.648   0.989  12.593 -0.3579  1.6859 -2.0899
 2227TIP3    H228097   5.520   0.992  12.673  0.9302  0.1904  0.0960
 2228TIP3   OH228098   1.886   0.888  14.292  0.2254  0.0783  0.1277
 2228TIP3    H128099   1.940   0.875  14.370 -0.1545 -1.2092  0.1879
 2228TIP3    H228100   1.857   0.979  14.298  0.0470 -0.0678  1.6001
 2229TIP3   OH228101   1.514   4.104  16.316  0.2591  0.3054  0.6455
 2229TIP3    H128102   1.597   4.126  16.274 -0.6505  2.9805  0.1457
 2229TIP3    H228103   1.495   4.014  16.288  1.4305  0.7921 -1.7630
 2230TIP3   OH228104   6.063   1.339   4.144  0.0095  0.3178  0.2421
 2230TIP3    H128105   6.083   1.380   4.229  1.2880 -0.0860  0.1457
 2230TIP3    H228106   6.065   1.245   4.163  1.5638  0.1871 -0.4954
 2231TIP3   OH228107   0.907   4.246   2.694 -0.5093 -0.3959  0.4143
 2231TIP3    H128108   0.916   4.313   2.762 -0.1203  0.2850 -0.2969
 2231TIP3    H228109   0.892   4.165   2.742  0.3343 -0.0164  1.3370
 2232TIP3   OH228110   0.483   2.236   1.998 -0.2990 -0.1904  0.3381
 2232TIP3    H128111   0.420   2.238   2.070 -1.1406 -0.5005 -0.3858
 2232TIP3    H228112   0.515   2.326   1.991 -2.8335  0.6206 -1.2057
 2233TIP3   OH228113   0.923   3.870   0.471  0.0701  0.0069  0.1105
 2233TIP3    H128114   0.886   3.907   0.391 -0.5844 -0.5281  0.1663
 2233TIP3    H228115   0.847   3.851   0.526  0.3820 -1.5458  0.0286
 2234TIP3   OH228116   4.590   6.698  12.616 -0.5246  0.4116  0.0449
 2234TIP3    H128117   4.662   6.639  12.592 -0.1653  1.1426 -0.7027
 2234TIP3    H228118   4.571   6.677  12.708  0.0214 -0.4274 -0.0299
 2235TIP3   OH228119   0.559   4.797   0.600 -0.1969 -0.1499  0.0997
 2235TIP3    H128120   0.497   4.830   0.666 -0.4511  1.5074 -0.9484
 2235TIP3    H228121   0.630   4.861   0.599 -0.3796  0.0407 -1.5087
 2236TIP3   OH228122   3.315   2.304   0.168 -0.9477 -0.0254  0.7396
 2236TIP3    H128123   3.370   2.225   0.171 -1.2172 -0.2036  0.9661
 2236TIP3    H228124   3.320   2.332   0.077 -1.2114 -0.5624  0.5539
 2237TIP3   OH228125   6.546   5.599   2.537 -0.0661 -0.2354 -0.2690
 2237TIP3    H128126   6.533   5.539   2.463 -0.6621 -0.0297 -0.3340
 2237TIP3    H228127   6.570   5.682   2.497  0.2980 -0.3079 -0.2003
 2238TIP3   OH228128   3.840   3.362   3.887  0.2218 -0.2958 -0.9160
 2238TIP3    H128129   3.770   3.376   3.823 -1.5585  0.4335  1.1235
 2238TIP3    H228130   3.863   3.450   3.917 -0.7895 -0.7286  1.2824
 2239TIP3   OH228131   0.196   5.250  14.741 -0.2897 -0.0664 -0.0437
 2239TIP3    H128132   0.246   5.201  14.676 -1.1850 -2.5430  1.1146
 2239TIP3    H228133   0.114   5.203  14.749 -0.7995  1.0926  1.8035
 2240TIP3   OH228134   3.374   1.869   1.246  0.5832  0.1697 -0.4913
 2240TIP3    H128135   3.409   1.858   1.158 -0.5849  0.4188 -0.9915
 2240TIP3    H228136   3.366   1.964   1.256  0.0617  0.1123 -0.3715
 2241TIP3   OH228137   0.347   5.288  12.636 -0.2023  1.0270 -0.0336
 2241TIP3    H128138   0.345   5.242  12.552  1.7889  1.0401 -0.1086
 2241TIP3    H228139   0.278   5.247  12.687  1.7415 -2.3419  0.0226
 2242TIP3   OH228140   1.654   3.922   5.431  0.0918 -1.2058 -0.4665
 2242TIP3    H128141   1.613   4.004   5.461  1.2660 -0.0043 -2.0763
 2242TIP3    H228142   1.581   3.871   5.395 -1.0803 -2.0126  2.8835
 2243TIP3   OH228143   2.010   2.928   4.105  0.0018 -0.5608 -0.0263
 2243TIP3    H128144   2.085   2.901   4.051 -0.1179 -2.2973  0.6567
 2243TIP3    H228145   2.046   2.934   4.194 -0.4991 -0.6757  0.1823
 2244TIP3   OH228146   0.466   3.472  16.831 -0.2399  0.2324  0.5627
 2244TIP3    H128147   0.393   3.529  16.807 -0.8249 -0.9582 -0.5293
 2244TIP3    H228148   0.428   3.385  16.837  1.4322 -0.7391 -2.0372
 2245TIP3   OH228149   1.404   3.906   5.309  0.6127 -0.1532  0.3851
 2245TIP3    H128150   1.331   3.844   5.307  0.3634  0.1023  1.2099
 2245TIP3    H228151   1.369   3.984   5.266  0.4067 -0.0456  0.7417
 2246TIP3   OH228152   2.394   3.347  10.608  0.2459 -0.4512  0.6927
 2246TIP3    H128153   2.457   3.306  10.667 -0.3345 -1.8132  0.3863
 2246TIP3    H228154   2.319   3.367  10.664  0.2229 -0.5120  0.6829
 2247TIP3   OH228155   1.574   0.041  16.087 -0.1466  0.4513 -0.7122
 2247TIP3    H128156   1.496   0.076  16.128  1.1063  2.3175  0.1545
 2247TIP3    H228157   1.547  -0.043  16.051 -2.1284  0.3343  0.9729
 2248TIP3   OH228158   0.835   2.182  11.569  0.3179 -0.2786  0.0791
 2248TIP3    H128159   0.851   2.268  11.609 -1.8171  0.8239 -1.3499
 2248TIP3    H228160   0.887   2.184  11.489 -2.5212  1.1374 -1.7792
 2249TIP3   OH228161   0.245   1.480  15.331  0.4486 -0.9789 -0.1875
 2249TIP3    H128162   0.314   1.475  15.264  0.1063 -0.9198 -0.5452
 2249TIP3    H228163   0.212   1.570  15.325  0.5378 -0.9181  0.1874
 2250TIP3   OH228164   0.471   1.638  13.181  0.2241  0.0009  0.1759
 2250TIP3    H128165   0.399   1.580  13.159  0.5523 -0.2226 -0.3280
 2250TIP3    H228166   0.466   1.708  13.117 -0.4292  0.7628  1.0475
 2251TIP3   OH228167   1.623   5.487   6.603  0.6708 -0.0501 -0.6389
 2251TIP3    H128168   1.680   5.411   6.618 -0.5592 -0.9631 -0.5225
 2251TIP3    H228169   1.544   5.450   6.564 -0.7703  0.9226  1.2818
 2252TIP3   OH228170   2.624   0.456  13.405 -0.3105 -0.5061  0.5116
 2252TIP3    H128171   2.616   0.423  13.316 -1.0588 -0.9907  0.7595
 2252TIP3    H228172   2.579   0.541  13.403 -1.6632 -1.2149  0.8097
 2253TIP3   OH228173   3.827   0.625   5.601  0.2476 -0.4022 -0.1448
 2253TIP3    H128174   3.832   0.664   5.513 -0.9912  0.1219  0.0043
 2253TIP3    H228175   3.885   0.680   5.654  1.7471 -1.2958 -0.8268
 2254TIP3   OH228176   4.993   4.548   2.956  0.2224  0.6862  0.1248
 2254TIP3    H128177   4.930   4.562   3.026 -1.0790 -1.7320 -0.5107
 2254TIP3    H228178   4.989   4.454   2.939  3.0831  0.6964 -0.8031
 2255TIP3   OH228179   5.543   6.702  16.932  0.2903  0.5072  0.6711
 2255TIP3    H128180   5.629   6.663  16.918 -0.0412 -0.2966  0.8347
 2255TIP3    H228181   5.490   6.669  16.859 -0.0109  0.6106  0.8437
 2256TIP3   OH228182   0.597   5.520  11.669 -0.2958 -0.4530 -0.3938
 2256TIP3    H128183   0.575   5.581  11.598 -0.2994 -0.4429 -0.3845
 2256TIP3    H228184   0.677   5.477  11.640  0.3949  0.4483  0.1608
 2257TIP3   OH228185   5.439   1.331   1.584 -0.5775  0.5350  0.2401
 2257TIP3    H128186   5.461   1.242   1.610 -2.0085  0.1571  0.2150
 2257TIP3    H228187   5.382   1.363   1.653 -2.0819  0.5350 -0.9774
 2258TIP3   OH228188   0.170   4.270  12.672 -0.0617  0.3243  0.3575
 2258TIP3    H128189   0.229   4.344  12.660 -0.9002  0.8690 -0.4536
 2258TIP3    H228190   0.218   4.195  12.638  0.0861  0.8044 -0.5218
 2259TIP3   OH228191   6.580   4.893   0.196  0.1397 -0.5011  0.1162
 2259TIP3    H128192   6.642   4.921   0.129 -0.9667  0.9905 -0.3123
 2259TIP3    H228193   6.519   4.835   0.150 -1.3785  1.5182 -0.5295
 2260TIP3   OH228194   0.534   1.052   5.484 -0.2877 -0.0842 -0.5064
 2260TIP3    H128195   0.611   1.080   5.533 -0.7669  2.0925 -0.9521
 2260TIP3    H228196   0.514   0.964   5.518  1.1172  0.1987  1.0922
 2261TIP3   OH228197   1.675   6.171   2.076 -0.5477 -0.0514  0.0163
 2261TIP3    H128198   1.721   6.092   2.049  1.7888  0.4541  2.2946
 2261TIP3    H228199   1.613   6.141   2.142 -2.2320 -0.4668 -1.7233
 2262TIP3   OH228200   4.808   6.736   0.597 -0.0952 -0.2468 -0.2468
 2262TIP3    H128201   4.761   6.760   0.518 -1.5575 -2.7218 -0.1783
 2262TIP3    H228202   4.864   6.662   0.571  0.9308  0.2299  0.5590
 2263TIP3   OH228203   3.513   4.989   2.468  0.2192  0.1950  0.4030
 2263TIP3    H128204   3.518   4.965   2.561 -0.6788  1.8515  0.8922
 2263TIP3    H228205   3.420   4.978   2.445  0.4616 -0.3501 -0.3440
 2264TIP3   OH228206   1.457   4.874  13.587  0.0778  0.4732  0.2815
 2264TIP3    H128207   1.534   4.900  13.638  1.2194  0.0590 -1.2247
 2264TIP3    H228208   1.429   4.955  13.544 -0.1920  0.5723  0.6416
 2265TIP3   OH228209   0.938   0.187  15.854  0.7450 -0.3055 -0.4456
 2265TIP3    H128210   0.844   0.182  15.870  1.2309  0.1641  2.8105
 2265TIP3    H228211   0.949   0.266  15.802 -0.4178  1.0808  1.3500
 2266TIP3   OH228212   0.466   1.286  10.684  0.3709 -0.5086  0.0941
 2266TIP3    H128213   0.424   1.319  10.604  0.1883  0.3840  0.5545
 2266TIP3    H228214   0.394   1.272  10.745  0.6042 -0.3301  0.4074
 2267TIP3   OH228215   2.658   0.910   3.551 -0.3055  0.5845  0.1387
 2267TIP3    H128216   2.638   0.831   3.500 -0.0219 -0.0952  1.0660
 2267TIP3    H228217   2.754   0.913   3.554 -0.3261  0.3841  0.9946
 2268TIP3   OH228218   3.432   0.887  14.773 -0.1097  0.2015  0.4206
 2268TIP3    H128219   3.515   0.919  14.738  0.0495 -0.0142  0.6033
 2268TIP3    H228220   3.390   0.843  14.698 -0.6456  1.4320 -0.0263
 2269TIP3   OH228221   3.728   3.004  11.262  0.1958 -0.6757 -0.0076
 2269TIP3    H128222   3.747   3.075  11.201  1.5846  0.1424  1.3268
 2269TIP3    H228223   3.690   2.935  11.208  0.0944  0.5601 -1.5499
 2270TIP3   OH228224   5.723   0.735  16.961  0.1624  0.2786  0.4515
 2270TIP3    H128225   5.723   0.828  16.985  0.8191  0.4452 -0.1650
 2270TIP3    H228226   5.813   0.707  16.980  0.9832  0.6525 -2.7015
 2271TIP3   OH228227   1.722   1.087  11.251  0.2965 -0.9466 -0.0362
 2271TIP3    H128228   1.707   1.000  11.287  0.3554 -1.3815 -1.0616
 2271TIP3    H228229   1.738   1.073  11.158 -0.0028  0.1835 -0.2710
 2272TIP3   OH228230   6.633   0.593  11.799 -0.0016 -0.2856 -0.5184
 2272TIP3    H128231   6.624   0.671  11.744 -0.5744  1.6250  2.2166
 2272TIP3    H228232   6.701   0.616  11.862  2.1471 -3.2248 -1.6173
 2273TIP3   OH228233   2.484   5.655  11.420 -0.0099 -0.1904  0.3732
 2273TIP3    H128234   2.433   5.711  11.361  0.3284  0.1091  0.3621
 2273TIP3    H228235   2.523   5.589  11.362 -1.4899 -1.2655  0.5596
 2274TIP3   OH228236   1.982   4.327  14.727  0.0085  0.3238 -0.7710
 2274TIP3    H128237   1.961   4.285  14.810  0.7169 -0.0614 -0.7846
 2274TIP3    H228238   1.913   4.300  14.667 -0.3938  0.4445 -0.3615
 2275TIP3   OH228239   4.465   3.753  13.934  0.0414 -0.6095 -0.1272
 2275TIP3    H128240   4.389   3.783  13.884  0.6490  2.0908  0.4867
 2275TIP3    H228241   4.537   3.754  13.871 -0.2244 -2.2367 -0.4689
 2276TIP3   OH228242   2.648   5.378   5.474 -0.3465  0.2508  0.3988
 2276TIP3    H128243   2.583   5.439   5.509  1.1835  1.3948  1.3631
 2276TIP3    H228244   2.708   5.434   5.424  0.1157 -0.7257 -0.1582
 2277TIP3   OH228245   5.926   5.562  10.378  0.0693 -0.2610  0.2512
 2277TIP3    H128246   5.854   5.558  10.315 -1.1457 -0.1063  1.6007
 2277TIP3    H228247   5.997   5.604  10.331 -0.6629 -0.5898 -1.1687
 2278TIP3   OH228248   6.140   0.893   3.332 -0.2602 -0.1628  0.1462
 2278TIP3    H128249   6.050   0.884   3.300 -0.8995 -1.4625  2.2144
 2278TIP3    H228250   6.135   0.960   3.400 -0.2848 -2.3639  2.3805
 2279TIP3   OH228251   6.719   3.963   1.619 -0.1673 -0.1215 -0.3267
 2279TIP3    H128252   6.799   3.921   1.586 -0.6012 -0.5476 -0.8639
 2279TIP3    H228253   6.668   3.981   1.540 -0.1204  1.1477 -0.0672
 2280TIP3   OH228254   0.534   1.378  14.081 -0.1419  0.8314 -0.1265
 2280TIP3    H128255   0.487   1.455  14.049 -0.3634  0.7987  0.1167
 2280TIP3    H228256   0.507   1.307  14.023  0.9749  1.1811 -1.0860
 2281TIP3   OH228257   2.889   0.766   3.387 -0.2712  0.3543 -0.1309
 2281TIP3    H128258   2.853   0.732   3.305  0.7173 -0.7878 -0.1134
 2281TIP3    H228259   2.912   0.857   3.368 -1.6185  0.5940 -0.6171
 2282TIP3   OH228260   1.370   4.469  14.350  0.1844 -0.4336 -0.0468
 2282TIP3    H128261   1.329   4.391  14.388 -0.0223 -0.3387 -0.0749
 2282TIP3    H228262   1.336   4.474  14.261 -1.0505  0.5772  0.4555
 2283TIP3   OH228263   0.188   0.445  12.901  0.0067  0.3097  0.4365
 2283TIP3    H128264   0.220   0.500  12.973  1.2370 -1.1318  0.9930
 2283TIP3    H228265   0.241   0.366  12.905 -0.8886 -0.3919 -1.1762
 2284TIP3   OH228266   0.228   5.380   2.766 -0.0693  0.5867  0.9924
 2284TIP3    H128267   0.177   5.440   2.713  0.4516  0.2822  0.1229
 2284TIP3    H228268   0.317   5.415   2.762 -0.0779  0.7070  1.8852
 2285TIP3   OH228269   3.705   0.117  13.658 -0.2739  0.6715  0.1203
 2285TIP3    H128270   3.625   0.104  13.606 -1.7585  1.6740  2.0969
 2285TIP3    H228271   3.750   0.190  13.616  0.4895 -0.9440 -1.9909
 2286TIP3   OH228272   4.017   4.888   0.899 -0.0604  0.2749  0.2201
 2286TIP3    H128273   4.062   4.871   0.982  0.6462  0.1985 -0.1762
 2286TIP3    H228274   4.083   4.930   0.844 -1.1731  2.3687  0.4495
 2287TIP3   OH228275   4.314   6.720   0.068 -0.1406 -0.2165  0.0172
 2287TIP3    H128276   4.278   6.688  -0.015  0.0495  3.2349 -1.5194
 2287TIP3    H228277   4.407   6.735   0.049  0.3971 -1.5509  1.5558
 2288TIP3   OH228278   0.027   6.130  10.494 -0.2087  0.3394 -0.5827
 2288TIP3    H128279   0.106   6.109  10.444  0.5036  1.0821  0.2182
 2288TIP3    H228280   0.031   6.225  10.507 -0.6845  0.2270  0.3989
 2289TIP3   OH228281   1.746   3.189   5.630 -0.0131  0.0066 -0.2961
 2289TIP3    H128282   1.760   3.219   5.720 -2.9346  1.5516 -0.2999
 2289TIP3    H228283   1.768   3.265   5.576  1.4299 -0.8183 -0.9030
 2290TIP3   OH228284   0.327   3.990  14.288 -0.0509 -0.3035 -0.0274
 2290TIP3    H128285   0.264   3.925  14.255 -2.1785  1.9629 -0.5788
 2290TIP3    H228286   0.370   4.023  14.209 -0.8514  0.8237  0.0023
 2291TIP3   OH228287   3.693   6.755  16.547 -0.1868  0.0720  0.0309
 2291TIP3    H128288   3.728   6.777  16.633 -1.7365 -0.6737  0.8593
 2291TIP3    H228289   3.759   6.696  16.510 -0.3925 -1.0778  1.4551
 2292TIP3   OH228290   3.817   1.747   4.207  0.2683  0.6520 -0.3837
 2292TIP3    H128291   3.785   1.721   4.121 -0.0568 -0.4979  0.0650
 2292TIP3    H228292   3.912   1.755   4.196  0.3447 -0.4414 -0.6369
 2293TIP3   OH228293   1.978   4.575  12.235 -0.3714  0.0345 -0.0437
 2293TIP3    H128294   2.003   4.655  12.189  0.4834  0.4735  1.1355
 2293TIP3    H228295   1.981   4.506  12.169  3.8093  0.1201 -0.0695
 2294TIP3   OH228296   1.931   3.777  15.451  0.2192 -0.1735  0.0277
 2294TIP3    H128297   1.891   3.864  15.448  0.4294 -0.0035  1.3994
 2294TIP3    H228298   2.013   3.791  15.499 -0.8899 -1.5178  2.4298
 2295TIP3   OH228299   5.998   5.988   3.058  0.2510 -0.5411 -0.8803
 2295TIP3    H128300   5.923   5.928   3.065  1.8524 -2.2885  2.0124
 2295TIP3    H228301   5.958   6.074   3.046 -2.2970 -1.2251  2.2331
 2296TIP3   OH228302   2.684   6.654  15.414  0.3461  0.4568  0.1675
 2296TIP3    H128303   2.778   6.674  15.415  0.6332 -0.9378  2.0631
 2296TIP3    H228304   2.679   6.561  15.393 -0.6141  0.5067  0.1478
 2297TIP3   OH228305   6.093   5.995  12.411  0.5148  0.0638  0.4465
 2297TIP3    H128306   6.131   5.914  12.446 -0.0392 -0.4609 -0.1540
 2297TIP3    H228307   6.032   5.966  12.343  1.4885  1.0546 -0.8914
 2298TIP3   OH228308   3.615   0.929  11.600 -0.1337 -0.6386 -0.2857
 2298TIP3    H128309   3.664   0.849  11.618 -0.7311 -0.8765  0.3059
 2298TIP3    H228310   3.673   0.999  11.629 -0.5351 -0.9641  1.3744
 2299TIP3   OH228311   2.080   1.380   5.949  0.2707 -0.0826 -0.0574
 2299TIP3    H128312   2.108   1.288   5.949  1.9277  0.3945 -1.3852
 2299TIP3    H228313   2.162   1.430   5.948 -0.5847  1.3777 -1.8559
 2300TIP3   OH228314   2.263   1.267  13.912  0.0402  0.1585  0.3661
 2300TIP3    H128315   2.305   1.313  13.985 -1.6272  0.9728  0.8345
 2300TIP3    H228316   2.247   1.178  13.945 -3.9457  1.4914  2.3541
 2301TIP3   OH228317   0.067   0.931  15.355  0.3098 -0.9205  0.0790
 2301TIP3    H128318   0.103   0.919  15.268  1.8336 -0.4379  0.6209
 2301TIP3    H228319   0.082   1.023  15.375  0.3678 -1.1271  1.0246
 2302TIP3   OH228320   2.214   5.946   0.619  1.2711  0.1657  0.2736
 2302TIP3    H128321   2.252   5.889   0.686 -0.5263 -1.0708  0.2729
 2302TIP3    H228322   2.125   5.912   0.606  1.4369  0.6761 -2.4262
 2303TIP3   OH228323   0.287   4.092   1.764  0.4872  0.2986  0.2431
 2303TIP3    H128324   0.216   4.140   1.722 -0.1839 -0.5985  0.3287
 2303TIP3    H228325   0.326   4.040   1.694 -0.2518 -0.7455  0.5880
 2304TIP3   OH228326   3.629   5.388  11.343 -0.5573  0.9854 -0.2048
 2304TIP3    H128327   3.565   5.385  11.414 -0.7447 -1.0107 -0.4345
 2304TIP3    H228328   3.712   5.407  11.386 -0.3025 -2.2321  0.8527
 2305TIP3   OH228329   3.090   2.034  16.476  0.2017 -0.4053 -0.1785
 2305TIP3    H128330   3.038   2.114  16.486 -0.5731 -0.8596 -0.6030
 2305TIP3    H228331   3.036   1.976  16.423  0.4064 -1.5398  0.8404
 2306TIP3   OH228332   6.518   4.469  14.172  0.4522  0.0249 -0.3392
 2306TIP3    H128333   6.437   4.519  14.183  0.7340  0.0775  1.6419
 2306TIP3    H228334   6.492   4.378  14.187  1.0989  0.2339  2.4250
 2307TIP3   OH228335   1.609   4.696  17.169  0.1251 -0.2794 -0.1583
 2307TIP3    H128336   1.687   4.752  17.170  1.8069 -2.4911 -1.4989
 2307TIP3    H228337   1.637   4.616  17.213 -1.9099 -0.4838  0.7896
 2308TIP3   OH228338   3.344   3.262   4.428 -0.4575 -0.3259 -0.7919
 2308TIP3    H128339   3.343   3.283   4.334 -2.4519 -0.5285 -0.8421
 2308TIP3    H228340   3.301   3.177   4.434  2.3518 -1.7207  0.0254
 2309TIP3   OH228341   4.035   0.517  15.782  0.1277  0.4689  0.1163
 2309TIP3    H128342   4.045   0.611  15.799 -0.6709  0.3722  1.1452
 2309TIP3    H228343   4.114   0.494  15.732  1.5660  1.1680  2.0155
 2310TIP3   OH228344   2.660   6.250   5.646  0.2548 -0.1023  0.4404
 2310TIP3    H128345   2.634   6.291   5.563  2.4377  1.0065  0.2774
 2310TIP3    H228346   2.579   6.249   5.698 -1.1383 -0.7874 -1.6516
 2311TIP3   OH228347   1.594   2.164   2.271 -0.1245  0.2440 -0.4108
 2311TIP3    H128348   1.611   2.176   2.177 -0.7003 -0.4135 -0.6014
 2311TIP3    H228349   1.499   2.158   2.277 -0.1085  0.6620  0.2657
 2312TIP3   OH228350   3.732   0.600   2.782 -0.6482  0.2243 -0.6076
 2312TIP3    H128351   3.669   0.561   2.722  0.0865  0.0861 -1.2902
 2312TIP3    H228352   3.792   0.528   2.803 -0.9422  0.2446  0.3674
 2313TIP3   OH228353   1.943   5.600  16.988  0.2604  0.0821 -0.0862
 2313TIP3    H128354   1.852   5.589  17.016  0.0254 -0.6817 -1.1039
 2313TIP3    H228355   1.944   5.684  16.942  0.2373  0.4494  0.5808
 2314TIP3   OH228356   2.656   5.237  13.539  0.2071  1.1258 -0.3538
 2314TIP3    H128357   2.565   5.263  13.525  0.0567  0.6050 -0.3658
 2314TIP3    H228358   2.657   5.143  13.518  0.8745  1.2624 -0.9367
 2315TIP3   OH228359   6.669   5.011   5.824 -0.0671  0.1746 -0.2768
 2315TIP3    H128360   6.588   5.038   5.781 -0.0893  1.6094  0.6427
 2315TIP3    H228361   6.642   4.980   5.910  0.2816 -0.0371 -0.2415
 2316TIP3   OH228362   3.826   2.732   1.448  0.1082 -0.0611 -0.2237
 2316TIP3    H128363   3.779   2.763   1.524  0.9477 -0.2072  0.3643
 2316TIP3    H228364   3.779   2.653   1.421 -0.5537  0.3365 -0.2339
 2317TIP3   OH228365   4.945   1.427   2.965  0.5577  0.0706 -0.3417
 2317TIP3    H128366   4.939   1.350   2.908  0.9776  0.3530 -0.7733
 2317TIP3    H228367   4.901   1.401   3.046 -0.9448  0.0042 -1.1639
 2318TIP3   OH228368   4.499   6.433  12.702  0.1229  0.1805 -0.2827
 2318TIP3    H128369   4.463   6.436  12.791 -1.5598  0.0425 -0.9262
 2318TIP3    H228370   4.459   6.508  12.658 -0.1694 -0.5472 -1.2991
 2319TIP3   OH228371   3.191   0.323   1.532  0.1292 -0.1913 -0.1072
 2319TIP3    H128372   3.180   0.237   1.491 -0.3140 -0.7373  1.1412
 2319TIP3    H228373   3.121   0.376   1.494  0.4167 -0.3643 -0.8992
 2320TIP3   OH228374   2.767   0.313  14.321  0.2149 -0.4943 -0.0537
 2320TIP3    H128375   2.836   0.269  14.373  1.3481 -0.4863 -1.5212
 2320TIP3    H228376   2.813   0.385  14.278 -1.1125  0.5877  0.3206
 2321TIP3   OH228377   0.491   2.892   5.866  0.9277  0.1777  0.5339
 2321TIP3    H128378   0.400   2.901   5.894  1.7817  0.8177  3.2836
 2321TIP3    H228379   0.511   2.974   5.821  0.5096  0.5691  1.0586
 2322TIP3   OH228380   6.560   2.943  16.884 -0.1357 -0.8697  0.0698
 2322TIP3    H128381   6.625   2.938  16.815 -2.0677  1.6325 -2.0170
 2322TIP3    H228382   6.512   2.860  16.878 -0.7888 -0.3568 -2.1148
 2323TIP3   OH228383   6.515   4.534  15.751 -0.3010  0.2200  0.1042
 2323TIP3    H128384   6.507   4.475  15.827  0.0628 -1.3581 -1.0430
 2323TIP3    H228385   6.594   4.585  15.769  0.5942 -1.1358  0.1688
 2324TIP3   OH228386   2.972   3.431  11.975 -0.0171  0.6754 -0.1843
 2324TIP3    H128387   2.936   3.443  11.888  0.3967  3.0283 -0.0658
 2324TIP3    H228388   2.896   3.426  12.033 -0.2653  0.0919 -0.5578
 2325TIP3   OH228389   0.618   5.172   1.214 -0.6880 -0.2751 -0.1727
 2325TIP3    H128390   0.631   5.124   1.132 -1.5696 -0.5630 -0.1498
 2325TIP3    H228391   0.700   5.162   1.261 -0.6488 -1.2490 -0.4345
 2326TIP3   OH228392   5.023   4.035   0.696 -0.0450  0.1812 -0.5064
 2326TIP3    H128393   5.078   4.040   0.774 -0.8395 -0.2629  0.0899
 2326TIP3    H228394   5.051   3.954   0.653 -0.7031 -0.4057  0.1594
 2327TIP3   OH228395   4.304   0.331  13.385  0.2830 -0.4680  0.0553
 2327TIP3    H128396   4.251   0.263  13.343 -1.6393 -0.0040  1.5994
 2327TIP3    H228397   4.264   0.342  13.472 -0.4674  3.6756 -0.6782
 2328TIP3   OH228398   5.804   4.969  15.581 -0.1285 -0.5571 -0.4074
 2328TIP3    H128399   5.800   4.999  15.490  0.4897 -1.6994 -0.8200
 2328TIP3    H228400   5.897   4.977  15.605 -0.4339  0.6070  0.4253
 2329TIP3   OH228401   6.171   3.163   2.732  0.2154 -0.0300  0.0705
 2329TIP3    H128402   6.131   3.077   2.727  1.0551 -0.4669  0.5913
 2329TIP3    H228403   6.238   3.162   2.663 -0.4549  0.5802 -0.5969
 2330TIP3   OH228404   2.852   2.195  11.637  0.8013 -0.0023  0.0143
 2330TIP3    H128405   2.777   2.138  11.621  1.2344 -0.3192 -0.9223
 2330TIP3    H228406   2.858   2.251  11.559  2.3689 -0.9237 -0.5496
 2331TIP3   OH228407   1.446   1.563   4.625  0.3729 -0.1334  0.2539
 2331TIP3    H128408   1.423   1.638   4.679 -1.2787 -0.9107  0.6480
 2331TIP3    H228409   1.440   1.596   4.535 -0.6297  0.1228  0.4146
 2332TIP3   OH228410   2.884   4.902   3.051 -1.0402  0.3764 -0.4016
 2332TIP3    H128411   2.918   4.858   2.973 -0.4334  0.3773 -0.1429
 2332TIP3    H228412   2.960   4.910   3.108 -1.7386 -0.6852  0.6847
 2333TIP3   OH228413   0.947   2.270  15.432 -0.1678 -0.7823 -0.0447
 2333TIP3    H128414   1.023   2.239  15.481  0.1715  0.7698  0.4500
 2333TIP3    H228415   0.976   2.350  15.389 -1.5625 -0.0668  0.2978
 2334TIP3   OH228416   4.288   4.923  14.549 -0.2817 -0.9325 -0.4923
 2334TIP3    H128417   4.321   5.013  14.550  0.3893 -1.1082 -2.9209
 2334TIP3    H228418   4.255   4.908  14.637 -1.0405  1.9426 -0.2462
 2335TIP3   OH228419   6.505   5.445   3.670 -0.4628 -0.1140  0.0590
 2335TIP3    H128420   6.543   5.453   3.583 -1.3655  0.2816 -0.3056
 2335TIP3    H228421   6.572   5.482   3.729 -0.1493  0.2678 -0.5351
 2336TIP3   OH228422   4.702   5.963   3.497 -0.2359  0.3912 -0.1929
 2336TIP3    H128423   4.748   5.930   3.574  1.1156  1.5148 -0.4960
 2336TIP3    H228424   4.687   6.055   3.516 -1.4231  0.2799 -0.5596
 2337TIP3   OH228425   2.298   1.409   0.050 -0.4046  0.4790  0.1245
 2337TIP3    H128426   2.332   1.323   0.024  0.5585  0.5167  1.2170
 2337TIP3    H228427   2.303   1.462  -0.029 -0.0048 -0.1676 -0.2855
 2338TIP3   OH228428   2.963   2.137   0.967  0.1658  0.3734  0.4589
 2338TIP3    H128429   3.031   2.205   0.974 -1.5102  2.0659  0.6010
 2338TIP3    H228430   2.897   2.175   0.909 -1.4620 -0.5660  1.6552
 2339TIP3   OH228431   1.766   0.581  16.564 -0.1765 -0.4609  0.4900
 2339TIP3    H128432   1.819   0.655  16.594 -0.4702  0.3284 -0.8815
 2339TIP3    H228433   1.802   0.559  16.478 -0.4335 -1.5830  0.6628
 2340TIP3   OH228434   1.552   0.596   2.000  0.0783 -0.6065  0.1722
 2340TIP3    H128435   1.538   0.505   1.974 -0.7678 -0.1407 -1.0288
 2340TIP3    H228436   1.480   0.644   1.960  1.4634  0.8495 -0.6158
 2341TIP3   OH228437   4.078   0.848  16.926  0.5530  0.1153  0.0253
 2341TIP3    H128438   4.037   0.879  17.007 -0.3269  0.1480 -0.4292
 2341TIP3    H228439   4.155   0.904  16.916 -0.7138  1.8186 -0.4869
 2342TIP3   OH228440   1.653   5.034  14.468 -0.3040 -0.3342  0.1738
 2342TIP3    H128441   1.616   5.034  14.556  2.5083  1.6387  1.4216
 2342TIP3    H228442   1.603   5.101  14.421  0.5738  1.2439  1.4102
 2343TIP3   OH228443   6.724   2.331   6.425  0.0303 -0.1873  0.7065
 2343TIP3    H128444   6.739   2.245   6.386  1.0338 -0.9749  2.7844
 2343TIP3    H228445   6.733   2.317   6.519  1.6154  2.4664  1.0107
 2344TIP3   OH228446   2.473   6.114   6.521 -0.3274 -0.1007  0.2027
 2344TIP3    H128447   2.553   6.162   6.545  0.3243 -0.7220 -0.6967
 2344TIP3    H228448   2.457   6.056   6.595  0.1402 -0.0778  0.3274
 2345TIP3   OH228449   2.114   0.401   2.374  0.1050 -0.2008 -0.1945
 2345TIP3    H128450   2.202   0.397   2.334  0.2942  1.0296  0.0871
 2345TIP3    H228451   2.112   0.485   2.419 -0.7649 -0.7943  0.9012
 2346TIP3   OH228452   4.983   3.565   0.933 -0.1771 -0.2313  0.7278
 2346TIP3    H128453   4.970   3.539   0.842 -0.3841  1.7834  0.1500
 2346TIP3    H228454   5.049   3.504   0.967 -0.6804 -1.4913 -0.5239
 2347TIP3   OH228455   4.063   4.711  11.059  0.0481  0.3061  0.2236
 2347TIP3    H128456   4.091   4.774  10.993 -0.0211  0.3808  0.2658
 2347TIP3    H228457   4.037   4.634  11.010  1.1400 -0.0721  0.2290
 2348TIP3   OH228458   3.414   3.587  14.217 -0.1920 -0.5557 -0.4257
 2348TIP3    H128459   3.344   3.650  14.228  0.5829  0.4313 -1.0948
 2348TIP3    H228460   3.481   3.613  14.280  0.3993 -0.3241 -1.1426
 2349TIP3   OH228461   2.636   4.161   5.155 -0.2233 -0.0427  0.6577
 2349TIP3    H128462   2.575   4.172   5.082  1.7625 -2.1366 -1.3754
 2349TIP3    H228463   2.690   4.241   5.154 -0.6320  0.2322  0.2820
 2350TIP3   OH228464   6.364   3.239   2.515  0.3622 -0.2667  0.5814
 2350TIP3    H128465   6.426   3.293   2.562 -1.2240  1.1562  1.0848
 2350TIP3    H228466   6.343   3.289   2.436 -1.8344  0.3420  1.5105
 2351TIP3   OH228467   0.469   4.319   5.984 -1.0479  0.0022 -0.3138
 2351TIP3    H128468   0.554   4.283   5.958 -1.2242 -0.4015 -0.3306
 2351TIP3    H228469   0.418   4.243   6.012 -1.8022  0.1015 -1.3925
 2352TIP3   OH228470   4.730   0.672  15.322 -0.0426  0.1677  0.0631
 2352TIP3    H128471   4.790   0.728  15.273  0.0888  2.0452  2.2903
 2352TIP3    H228472   4.686   0.731  15.383 -1.5467 -1.7949  0.9593
 2353TIP3   OH228473   4.449   4.299  15.860 -0.2311 -0.2467 -0.0023
 2353TIP3    H128474   4.439   4.267  15.770 -0.7137  0.7106 -0.2946
 2353TIP3    H228475   4.415   4.388  15.858  0.9493  0.2387  0.8537
 2354TIP3   OH228476   0.111   3.630  15.722 -0.2742 -0.0866 -0.0648
 2354TIP3    H128477   0.082   3.582  15.799  0.7603  1.3164  1.2245
 2354TIP3    H228478   0.189   3.584  15.693 -0.8972 -0.8594 -0.5312
 2355TIP3   OH228479   6.672   2.188   1.323  0.0461 -0.0493  0.0071
 2355TIP3    H128480   6.742   2.141   1.277 -0.5608  0.1666 -1.1539
 2355TIP3    H228481   6.592   2.165   1.275 -0.3431  1.6506 -0.1760
 2356TIP3   OH228482   5.213   4.913   4.662 -0.1061  0.0286 -1.0632
 2356TIP3    H128483   5.203   4.872   4.577 -1.4052 -0.8380 -0.5158
 2356TIP3    H228484   5.123   4.923   4.694  0.3668  0.3945  0.1752
 2357TIP3   OH228485   2.898   1.874   0.773  0.3798 -0.0913  0.3177
 2357TIP3    H128486   2.977   1.824   0.792  0.0166 -0.1148  1.9014
 2357TIP3    H228487   2.929   1.952   0.727  0.9492 -1.7548 -2.2069
 2358TIP3   OH228488   2.568   3.906  16.752  0.0172 -0.2334 -0.8161
 2358TIP3    H128489   2.624   3.830  16.741 -0.2356 -0.4169 -0.8541
 2358TIP3    H228490   2.625   3.974  16.786 -0.4767 -1.4644  2.6937
 2359TIP3   OH228491   0.343   3.390   4.976  0.0711  1.2842  1.3883
 2359TIP3    H128492   0.261   3.404   4.929 -0.0323 -0.5986  0.9986
 2359TIP3    H228493   0.331   3.307   5.022  2.2948  0.2254  0.1510
 2360TIP3   OH228494   2.755   5.499  12.350  0.0014 -1.0096  0.1995
 2360TIP3    H128495   2.841   5.533  12.326 -0.6388  0.2531 -0.3164
 2360TIP3    H228496   2.710   5.487  12.267 -0.7913 -0.4095  0.5383
 2361TIP3   OH228497   0.085   4.100  12.038  0.2849  0.2172 -0.1576
 2361TIP3    H128498  -0.010   4.109  12.031  0.1403 -1.6449 -0.9338
 2361TIP3    H228499   0.105   4.120  12.129 -1.0195 -0.6337  0.3287
 2362TIP3   OH228500   6.331   3.018   4.152 -0.1519 -0.1383 -0.3428
 2362TIP3    H128501   6.348   2.930   4.186  1.4411  1.7979  4.2005
 2362TIP3    H228502   6.293   3.065   4.226 -1.3450  2.9397 -2.8258
 2363TIP3   OH228503   2.785   5.725  11.475  0.0608  0.1086 -0.1847
 2363TIP3    H128504   2.743   5.683  11.400  0.5610  0.4356 -0.6513
 2363TIP3    H228505   2.875   5.741  11.447  0.3031  0.0629  0.5542
 2364TIP3   OH228506   0.686   2.990   1.823 -0.2643  0.3579  0.6025
 2364TIP3    H128507   0.771   3.032   1.826 -0.1604  0.1813  0.1727
 2364TIP3    H228508   0.630   3.045   1.878 -0.3015  1.4300 -0.4932
 2365TIP3   OH228509   1.709   1.297  15.070 -0.0762 -0.3282  0.6770
 2365TIP3    H128510   1.664   1.320  15.151 -0.9682  1.2976 -0.2535
 2365TIP3    H228511   1.745   1.380  15.039 -1.7766 -0.4761 -1.8107
 2366TIP3   OH228512   0.538   1.259  13.259  0.1792  0.0785  0.7520
 2366TIP3    H128513   0.603   1.221  13.317 -1.5716 -1.2463  1.9127
 2366TIP3    H228514   0.525   1.348  13.291  0.6869  0.0103  1.1403
 2367TIP3   OH228515   6.126   0.281  14.278  0.1878 -0.4044 -0.0363
 2367TIP3    H128516   6.065   0.209  14.262  0.7946 -0.8516 -0.3810
 2367TIP3    H228517   6.213   0.240  14.275  0.5336  0.3161 -0.1182
 2368TIP3   OH228518   4.174   2.409  11.940  0.1799 -0.0452  0.3829
 2368TIP3    H128519   4.239   2.479  11.935  0.4674 -0.2338  1.4263
 2368TIP3    H228520   4.202   2.356  12.015  0.3171 -1.6136 -0.7527
 2369TIP3   OH228521   5.735   2.052   3.514  0.3947  0.0301 -0.4631
 2369TIP3    H128522   5.782   2.067   3.596 -1.2958 -0.9716  0.7225
 2369TIP3    H228523   5.660   2.112   3.519  0.5273  0.2750 -1.4738
 2370TIP3   OH228524   5.286   3.915  15.830 -0.3835 -0.2666  0.1490
 2370TIP3    H128525   5.241   3.830  15.820  0.8240 -0.7521 -1.5530
 2370TIP3    H228526   5.216   3.980  15.827 -1.2183 -1.1565  0.1546
 2371TIP3   OH228527   2.509   1.604   3.407  0.0846 -0.3822  0.0252
 2371TIP3    H128528   2.573   1.658   3.453  0.4466  0.0202 -0.9426
 2371TIP3    H228529   2.426   1.622   3.452  0.5255 -0.3959  0.8499
 2372TIP3   OH228530   6.459   4.613  16.831  0.7811  0.5789 -1.0215
 2372TIP3    H128531   6.400   4.541  16.812 -1.1479  1.4655  1.3492
 2372TIP3    H228532   6.541   4.571  16.857  0.0311 -0.7290 -0.7565
 2373TIP3   OH228533   2.713   4.485   4.349  0.2346  0.1609  0.0999
 2373TIP3    H128534   2.723   4.578   4.329  0.7241  0.6457  2.4099
 2373TIP3    H228535   2.628   4.478   4.392 -0.3085 -0.6457 -1.0963
 2374TIP3   OH228536   1.654   4.782  12.729  0.0036 -0.1148 -0.0846
 2374TIP3    H128537   1.722   4.830  12.777 -0.0850 -0.6544  0.5807
 2374TIP3    H228538   1.644   4.700  12.776 -1.4129  0.1373  0.0811
 2375TIP3   OH228539   3.059   2.894   2.731 -0.3526  0.6708  0.1233
 2375TIP3    H128540   3.128   2.950   2.695 -0.1163 -1.1240 -2.3557
 2375TIP3    H228541   2.991   2.955   2.761  0.6839  2.3242 -0.8229
 2376TIP3   OH228542   6.575   0.651  12.190 -0.0241  0.4251 -0.1905
 2376TIP3    H128543   6.498   0.596  12.181  0.1296  0.3458 -1.0562
 2376TIP3    H228544   6.648   0.589  12.201  0.0274  0.4819 -0.2095
 2377TIP3   OH228545   3.759   5.523   2.578  0.0638  0.5744  0.1644
 2377TIP3    H128546   3.712   5.567   2.507  0.4791 -0.4429 -0.7600
 2377TIP3    H228547   3.716   5.437   2.586  0.0178  0.6829  1.1504
 2378TIP3   OH228548   5.026   0.006  16.690  0.1123 -0.9376 -0.6892
 2378TIP3    H128549   4.990  -0.075  16.727 -0.6914  0.0167  0.7119
 2378TIP3    H228550   4.951   0.066  16.688  1.3697  0.7657  1.2731
 2379TIP3   OH228551   2.441   0.938  13.708  0.2650 -0.1553 -0.1189
 2379TIP3    H128552   2.482   0.994  13.774  0.0714  1.6825 -1.5214
 2379TIP3    H228553   2.356   0.978  13.692  0.5669 -0.2319 -1.9374
 2380TIP3   OH228554   4.361   4.008  16.572  0.8122  1.0390 -0.3886
 2380TIP3    H128555   4.405   3.940  16.623 -1.4835  0.6743  1.1680
 2380TIP3    H228556   4.355   4.083  16.632 -1.3883  0.8012 -0.2687
 2381TIP3   OH228557   0.131   4.841   5.146  0.3061  0.4666 -0.0835
 2381TIP3    H128558   0.175   4.854   5.230  0.5571  2.2548 -0.4633
 2381TIP3    H228559   0.039   4.855   5.165  0.2542 -0.1333  0.0973
 2382TIP3   OH228560   1.888   4.072   6.440 -0.0158 -0.0850 -0.2656
 2382TIP3    H128561   1.856   3.990   6.402  1.7401 -0.6696 -0.5243
 2382TIP3    H228562   1.866   4.066   6.533  0.2599 -0.9301 -0.2552
 2383TIP3   OH228563   4.291   6.277  12.578 -0.1296  0.0831 -0.2035
 2383TIP3    H128564   4.367   6.327  12.609 -0.5305 -0.6241  2.0543
 2383TIP3    H228565   4.216   6.330  12.604 -0.4606  0.0239 -1.0345
 2384TIP3   OH228566   3.525   5.305   5.229  0.9444 -0.6308 -0.0682
 2384TIP3    H128567   3.453   5.254   5.191  1.5892 -0.4995 -1.5225
 2384TIP3    H228568   3.490   5.393   5.238  0.3503 -0.9618  0.9185
 2385TIP3   OH228569   2.232   4.651   3.522  0.2924 -0.4319 -0.0645
 2385TIP3    H128570   2.283   4.682   3.596  0.8466 -2.5923  0.4820
 2385TIP3    H228571   2.283   4.676   3.445 -0.4147  2.0495  0.2198
 2386TIP3   OH228572   1.566   2.023   0.427 -0.6145  0.3417  0.4387
 2386TIP3    H128573   1.590   1.992   0.340 -2.0060 -0.0804  0.2052
 2386TIP3    H228574   1.587   1.950   0.485  2.0205  1.2640  0.7304
 2387TIP3   OH228575   4.045   5.715  14.687  0.0042 -0.3975  0.4079
 2387TIP3    H128576   4.028   5.655  14.615 -0.9003  0.1767  0.1327
 2387TIP3    H228577   3.980   5.784  14.677  0.8830  0.5130  0.8566
 2388TIP3   OH228578   5.774   2.796  14.269  0.9799 -0.7102 -0.3397
 2388TIP3    H128579   5.773   2.887  14.296  0.7620 -0.5027 -1.0310
 2388TIP3    H228580   5.859   2.785  14.225  1.3102 -1.0294  0.3711
 2389TIP3   OH228581   2.935   3.071   4.508 -0.3243 -0.4371  0.4940
 2389TIP3    H128582   2.860   3.017   4.485 -0.6310 -0.7471  2.1686
 2389TIP3    H228583   2.966   3.035   4.591  1.1639  0.2181  0.2395
 2390TIP3   OH228584   4.050   0.177  11.731  0.3918 -0.2365  0.2590
 2390TIP3    H128585   4.001   0.187  11.650 -0.2192  0.2416  0.6796
 2390TIP3    H228586   4.142   0.192  11.706  0.5422 -2.8153 -0.8502
 2391TIP3   OH228587   5.142   2.145   6.373 -0.0751  0.5931  0.2935
 2391TIP3    H128588   5.237   2.138   6.364 -0.0580  1.8797 -0.6614
 2391TIP3    H228589   5.117   2.068   6.423  1.4369  0.0838  0.2884
 2392TIP3   OH228590   2.874   5.169   5.513 -0.2652 -0.2415 -0.0355
 2392TIP3    H128591   2.869   5.130   5.600 -0.2343  1.1225  0.5850
 2392TIP3    H228592   2.798   5.226   5.507 -0.5672 -0.7271 -1.1177
 2393TIP3   OH228593   5.410   4.743  13.465  0.0969 -0.1341 -0.0778
 2393TIP3    H128594   5.397   4.830  13.504 -1.2183 -1.3805  2.4073
 2393TIP3    H228595   5.333   4.730  13.409 -0.3950 -0.2511  0.6242
 2394TIP3   OH228596   1.226   4.912  12.125  0.4384  0.2637  0.2470
 2394TIP3    H128597   1.251   4.965  12.049 -1.4826 -0.2296 -0.7410
 2394TIP3    H228598   1.303   4.856  12.140 -0.5802 -2.4602 -3.8440
 2395TIP3   OH228599   1.270   4.290  14.684  0.0463  0.2229 -0.4534
 2395TIP3    H128600   1.241   4.367  14.733  1.1633  0.9427 -0.8928
 2395TIP3    H228601   1.214   4.289  14.606 -0.8883 -0.2048  0.2169
 2396TIP3   OH228602   6.449   2.351  15.998  0.6254 -0.1101  0.1495
 2396TIP3    H128603   6.485   2.349  15.909 -0.7479  0.2740 -0.4337
 2396TIP3    H228604   6.446   2.444  16.020 -1.4432 -0.0240 -0.4194
 2397TIP3   OH228605   1.453   1.582  13.512  0.5346 -0.1618  0.1032
 2397TIP3    H128606   1.436   1.579  13.418 -0.8339  0.8847  0.2993
 2397TIP3    H228607   1.455   1.490  13.539  0.2468 -0.4471 -0.8345
 2398TIP3   OH228608   2.835   3.415   1.993 -0.1690  0.3988  0.9383
 2398TIP3    H128609   2.786   3.446   1.917  0.2677 -2.1665 -0.4473
 2398TIP3    H228610   2.924   3.401   1.960 -0.1946 -1.6267  1.6600
 2399TIP3   OH228611   2.032   4.881   3.694 -0.4395 -0.8028  0.5789
 2399TIP3    H128612   2.118   4.884   3.653 -1.2230 -0.0350 -1.0776
 2399TIP3    H228613   1.976   4.932   3.635 -1.7175 -0.0715  2.3853
 2400TIP3   OH228614   1.760   4.939   4.916  0.3984  0.0301  0.5449
 2400TIP3    H128615   1.739   4.851   4.884 -0.5895  1.0951 -1.8313
 2400TIP3    H228616   1.850   4.954   4.888  0.1478  0.2609 -0.1313
 2401TIP3   OH228617   2.475   0.579   4.592 -0.1038 -0.3590 -0.2275
 2401TIP3    H128618   2.538   0.623   4.649 -0.1456  0.6816 -0.9632
 2401TIP3    H228619   2.403   0.555   4.650  0.0650  0.2616  0.2466
 2402TIP3   OH228620   1.538   6.554   2.746  0.3752  0.0319 -0.5372
 2402TIP3    H128621   1.520   6.595   2.830 -2.1489 -2.1318  0.0605
 2402TIP3    H228622   1.537   6.626   2.683  0.4151  1.4259  1.0219
 2403TIP3   OH228623   3.733   6.432   2.339 -0.1383  0.2066 -0.2065
 2403TIP3    H128624   3.792   6.468   2.405 -1.7389  1.9128  0.3346
 2403TIP3    H228625   3.646   6.463   2.365 -1.2225 -1.8524 -1.2549
 2404TIP3   OH228626   6.399   3.993   0.111  0.3315 -0.2474  0.1613
 2404TIP3    H128627   6.380   4.086   0.095 -0.5516 -0.3437  0.5936
 2404TIP3    H228628   6.459   3.969   0.041 -1.6477 -0.0597 -1.6779
 2405TIP3   OH228629   5.277   3.850  15.057 -0.0147 -0.0953 -0.2306
 2405TIP3    H128630   5.362   3.845  15.012 -0.4424 -1.1327 -0.9207
 2405TIP3    H228631   5.216   3.879  14.990  0.0105  1.9492  0.5838
 2406TIP3   OH228632   4.903   0.642  11.317  0.3441  0.1988 -0.0369
 2406TIP3    H128633   4.964   0.649  11.243 -0.5225 -0.8559 -0.8675
 2406TIP3    H228634   4.952   0.593  11.383  0.7192  0.1297 -0.3610
 2407TIP3   OH228635   2.679   4.742  13.363 -0.7158 -0.2533 -0.6346
 2407TIP3    H128636   2.635   4.664  13.330  0.7481 -1.2131 -0.3643
 2407TIP3    H228637   2.760   4.709  13.402 -0.9251  1.1913  1.0983
 2408TIP3   OH228638   5.129   4.260  12.438  0.0747 -0.1089  0.0113
 2408TIP3    H128639   5.204   4.251  12.495 -0.6575  0.4467  1.0729
 2408TIP3    H228640   5.134   4.349  12.404  1.1652 -0.8187 -1.7408
 2409TIP3   OH228641   3.170   0.076   4.930 -0.2144  0.1236 -0.4328
 2409TIP3    H128642   3.214   0.047   4.850  0.4810  1.6902 -0.6352
 2409TIP3    H228643   3.158   0.170   4.919 -0.9863  0.2024  0.8968
 2410TIP3   OH228644   3.405   5.751  14.413 -0.0745  0.5744 -0.6995
 2410TIP3    H128645   3.435   5.719  14.498 -1.6939 -1.5933 -0.8997
 2410TIP3    H228646   3.310   5.760  14.422 -0.4390 -0.9296 -2.6208
 2411TIP3   OH228647   4.166   5.386  16.445 -0.4837 -0.5227  0.1926
 2411TIP3    H128648   4.082   5.418  16.477  0.1029  0.5083  0.7167
 2411TIP3    H228649   4.185   5.442  16.369  0.0591 -0.2856  0.5000
 2412TIP3   OH228650   3.356   6.766  12.977 -0.3083 -0.3134  0.1966
 2412TIP3    H128651   3.408   6.790  13.054  0.7948 -0.8491 -0.3655
 2412TIP3    H228652   3.265   6.766  13.008 -0.0992  1.7364  0.9206
 2413TIP3   OH228653   3.824   6.707  10.782 -0.1552 -0.2398 -0.8627
 2413TIP3    H128654   3.911   6.699  10.741  0.1295 -1.8220  0.0407
 2413TIP3    H228655   3.768   6.737  10.710  0.7710 -0.9376 -1.9065
 2414TIP3   OH228656   0.683   3.914   0.298  0.3181  0.2512 -0.0891
 2414TIP3    H128657   0.699   3.984   0.361  0.9343 -0.3788  0.4701
 2414TIP3    H228658   0.701   3.952   0.213 -0.1019  0.9885  0.1501
 2415TIP3   OH228659   3.600   0.621  15.643  0.1152  0.0318 -0.4747
 2415TIP3    H128660   3.696   0.615  15.641  0.1427  0.0025  0.5670
 2415TIP3    H228661   3.582   0.707  15.681 -0.2712 -0.2180 -0.0903
 2416TIP3   OH228662   1.262   3.061   1.217 -0.6112 -0.3346  0.2335
 2416TIP3    H128663   1.197   3.063   1.287  0.0475  0.3677  0.8301
 2416TIP3    H228664   1.262   3.150   1.181  0.3525 -0.1984  0.5499
 2417TIP3   OH228665   2.481   0.082   2.369  0.5568 -0.4784 -0.4545
 2417TIP3    H128666   2.423   0.021   2.415 -0.0073  0.7009  0.4056
 2417TIP3    H228667   2.566   0.037   2.366 -0.2238 -1.9402 -1.1624
 2418TIP3   OH228668   6.402   0.419  11.836 -0.3888  0.3923  0.2230
 2418TIP3    H128669   6.328   0.454  11.786 -0.0027  3.0666  1.4624
 2418TIP3    H228670   6.469   0.488  11.832  1.4833 -1.3598  0.3795
 2419TIP3   OH228671   4.516   0.696   3.059  0.0137  0.3421  0.2608
 2419TIP3    H128672   4.535   0.676   3.150  2.1190  0.5552 -0.0995
 2419TIP3    H228673   4.576   0.641   3.009 -2.2495 -1.0116 -1.0787
 2420TIP3   OH228674   3.792   2.225  11.250 -0.0765  0.3892  0.2778
 2420TIP3    H128675   3.776   2.251  11.159 -1.7336  1.5715  0.8657
 2420TIP3    H228676   3.742   2.144  11.261  1.7461 -0.8457 -0.4088
 2421TIP3   OH228677   0.251   0.045  16.147 -0.0895  0.1200  0.3177
 2421TIP3    H128678   0.308   0.118  16.125 -0.1621 -0.2050 -0.9402
 2421TIP3    H228679   0.199   0.030  16.069  1.8780 -3.0965 -0.4427
 2422TIP3   OH228680   2.834   5.036  13.322  0.4530  0.4014  0.5339
 2422TIP3    H128681   2.763   4.972  13.319  0.3881  0.2988  2.9735
 2422TIP3    H228682   2.857   5.042  13.415  2.2937  1.9125  0.0197
 2423TIP3   OH228683   0.149   6.752   0.233  0.5596  1.0358 -0.5829
 2423TIP3    H128684   0.146   6.845   0.213 -0.7564  0.6372 -2.3270
 2423TIP3    H228685   0.237   6.725   0.207  0.7648  1.6771 -0.5619
 2424TIP3   OH228686   1.311   2.498  15.517 -0.1029 -0.3643 -0.0987
 2424TIP3    H128687   1.330   2.466  15.429  1.8201 -1.4011  0.6544
 2424TIP3    H228688   1.316   2.593  15.510  1.0099 -0.4760 -0.9244
 2425TIP3   OH228689   5.601   1.278   4.709 -0.3906 -0.0773  0.3391
 2425TIP3    H128690   5.564   1.339   4.773 -0.6629 -0.3934  0.4788
 2425TIP3    H228691   5.595   1.326   4.626 -2.6178 -0.7476  0.0772
 2426TIP3   OH228692   1.914   5.894   1.581 -0.0623 -0.1209  0.1241
 2426TIP3    H128693   1.976   5.958   1.547 -0.4852 -0.8111 -1.9593
 2426TIP3    H228694   1.966   5.841   1.642  1.1327  0.0223 -0.7490
 2427TIP3   OH228695   4.595   0.168  15.295  0.2664  0.2525 -0.9564
 2427TIP3    H128696   4.569   0.076  15.298 -1.4255  0.7515  0.2819
 2427TIP3    H228697   4.591   0.197  15.386 -0.0629  1.7713 -1.4376
 2428TIP3   OH228698   0.724   0.691   0.975  0.0645  0.2661 -0.3628
 2428TIP3    H128699   0.649   0.738   0.938  1.4352  2.4592 -0.4227
 2428TIP3    H228700   0.688   0.646   1.052 -1.6431 -0.0073 -1.2875
 2429TIP3   OH228701   5.822   4.821  13.337  0.2083 -0.7307  0.8979
 2429TIP3    H128702   5.742   4.871  13.323 -0.2163 -1.3267  1.2065
 2429TIP3    H228703   5.843   4.835  13.429  1.7328  1.3022  0.2715
 2430TIP3   OH228704   6.670   3.469  12.575  0.3444  0.3081 -0.0468
 2430TIP3    H128705   6.697   3.404  12.639 -1.6761  0.6221  1.1715
 2430TIP3    H228706   6.726   3.545  12.593  1.1150 -0.2834  0.0547
 2431TIP3   OH228707   3.289   0.755   3.258  0.1428 -0.1051  0.1537
 2431TIP3    H128708   3.357   0.716   3.313  0.6181 -2.9736 -2.2858
 2431TIP3    H228709   3.207   0.727   3.299  0.4053  1.7767  2.0331
 2432TIP3   OH228710   4.036   0.091   5.462 -0.0793 -0.2478 -0.3202
 2432TIP3    H128711   4.023   0.173   5.414 -0.0296  0.8101  1.4095
 2432TIP3    H228712   3.992   0.106   5.545 -0.7510 -2.2990 -0.2961
 2433TIP3   OH228713   2.275   5.531   2.388  1.1476  0.0209 -0.5709
 2433TIP3    H128714   2.231   5.466   2.334 -0.6648  0.8007 -0.0523
 2433TIP3    H228715   2.306   5.597   2.326  0.8888 -0.1277 -0.8579
 2434TIP3   OH228716   6.736   1.864   1.257 -0.1235  0.5170  0.2506
 2434TIP3    H128717   6.750   1.770   1.242  1.4495  0.4879  1.7501
 2434TIP3    H228718   6.715   1.870   1.350  1.6061  1.8282  0.5864
 2435TIP3   OH228719   4.835   0.062   4.202  0.0353 -0.3409  0.2362
 2435TIP3    H128720   4.927   0.054   4.229  0.5196  0.8209 -0.9791
 2435TIP3    H228721   4.800   0.130   4.260  0.9992  1.9559 -1.7961
 2436TIP3   OH228722   2.342   3.389  11.979  0.9757  0.6322 -0.1276
 2436TIP3    H128723   2.378   3.418  12.063  2.1046 -0.3468 -0.2626
 2436TIP3    H228724   2.406   3.419  11.915  0.3504  0.9624 -0.6004
 2437TIP3   OH228725   2.092   0.417   3.712  0.4171  0.1617 -0.2644
 2437TIP3    H128726   2.021   0.480   3.701  1.1381  0.8818 -0.9343
 2437TIP3    H228727   2.089   0.362   3.634  0.9914  0.6111 -0.6106
 2438TIP3   OH228728   3.223   2.557   3.875 -0.0599  0.1006 -0.2884
 2438TIP3    H128729   3.265   2.499   3.938  0.4273  0.7554 -0.0080
 2438TIP3    H228730   3.291   2.620   3.851 -0.2746 -0.0727 -1.3797
 2439TIP3   OH228731   3.179   1.330  16.647  0.2886 -0.0680 -0.4176
 2439TIP3    H128732   3.266   1.328  16.687 -0.1443  0.4409  0.5808
 2439TIP3    H228733   3.161   1.423  16.634 -0.3714 -0.1337 -0.0146
 2440TIP3   OH228734   1.423   3.174   2.471 -0.2056  0.0406 -0.7419
 2440TIP3    H128735   1.364   3.184   2.546  1.7486 -0.0840  0.8390
 2440TIP3    H228736   1.371   3.204   2.396 -2.9668 -1.9056  0.2957
 2441TIP3   OH228737   6.327   5.123  13.002  0.6430  0.2156 -0.0239
 2441TIP3    H128738   6.235   5.138  13.022  0.7534 -0.8858  1.3734
 2441TIP3    H228739   6.346   5.182  12.929 -1.6359 -0.8120 -1.5159
 2442TIP3   OH228740   3.238   6.165   6.146  0.2843 -0.4763  0.5369
 2442TIP3    H128741   3.161   6.111   6.162  0.9837 -1.6974 -0.1446
 2442TIP3    H228742   3.312   6.112   6.177  0.8082  0.9496  1.8076
 2443TIP3   OH228743   2.645   6.590   2.380  0.2304 -0.1148 -0.2899
 2443TIP3    H128744   2.553   6.571   2.364 -0.0467 -0.2583  1.4082
 2443TIP3    H228745   2.686   6.504   2.392  0.6583 -0.0699 -1.3076
 2444TIP3   OH228746   5.236   6.628  12.321  0.0645  0.0197  0.3164
 2444TIP3    H128747   5.259   6.699  12.261 -1.0372 -0.1202 -0.2894
 2444TIP3    H228748   5.284   6.552  12.288  1.6508  0.5892  1.2702
 2445TIP3   OH228749   2.863   2.459  13.602  0.3833  0.1641 -0.3970
 2445TIP3    H128750   2.814   2.466  13.684 -0.3921 -2.1577 -0.6273
 2445TIP3    H228751   2.913   2.378  13.612  2.1829  1.1571 -1.2362
 2446TIP3   OH228752   1.921   5.257   3.716  0.6253 -0.5071  0.9656
 2446TIP3    H128753   1.865   5.322   3.673  1.9380  0.3811  0.5349
 2446TIP3    H228754   1.963   5.211   3.643 -1.6780 -3.1437  1.2241
 2447TIP3   OH228755   0.786   3.727  11.038  0.1563  0.2643 -0.0588
 2447TIP3    H128756   0.803   3.639  11.006  1.7548  0.7110 -0.4780
 2447TIP3    H228757   0.691   3.734  11.040  0.0246 -1.0331 -1.2257
 2448TIP3   OH228758   5.094   6.751  16.313 -0.5067 -0.0589  0.0063
 2448TIP3    H128759   5.151   6.695  16.260 -0.3388 -1.1296  1.2902
 2448TIP3    H228760   5.039   6.796  16.249 -0.2948 -1.3028 -1.0899
 2449TIP3   OH228761   3.221   3.575  16.997  0.0798 -0.6798 -0.7028
 2449TIP3    H128762   3.213   3.575  16.902  2.6493  1.1386 -0.9836
 2449TIP3    H228763   3.138   3.611  17.028 -0.8542 -1.4767 -2.2317
 2450TIP3   OH228764   3.055   3.124  14.844  0.2123 -0.1025  0.6809
 2450TIP3    H128765   3.124   3.176  14.804  0.2097 -1.1757 -0.7473
 2450TIP3    H228766   2.978   3.138  14.789  0.0313 -1.0797  0.6748
 2451TIP3   OH228767   2.594   5.425   5.092 -0.1432  0.1830  0.1782
 2451TIP3    H128768   2.578   5.336   5.125 -0.9641 -0.0006 -0.6878
 2451TIP3    H228769   2.579   5.418   4.998 -0.3140  1.2660  0.1235
 2452TIP3   OH228770   0.378   6.701  13.822 -0.1087 -0.4724  0.6839
 2452TIP3    H128771   0.424   6.684  13.904  3.0777  0.8767 -0.7468
 2452TIP3    H228772   0.405   6.629  13.764 -2.3471 -1.4223  0.7432
 2453TIP3   OH228773   6.367   6.430  15.494  0.2511 -0.1994  0.1010
 2453TIP3    H128774   6.348   6.340  15.521 -1.2238  0.0010 -0.2268
 2453TIP3    H228775   6.428   6.463  15.559 -1.2221 -0.5899  1.7181
 2454TIP3   OH228776   2.307   4.302   6.442  0.1189 -0.2762 -0.2840
 2454TIP3    H128777   2.370   4.299   6.514 -0.1818 -0.8524 -0.0437
 2454TIP3    H228778   2.315   4.391   6.406 -0.3463  0.2902  1.0018
 2455TIP3   OH228779   6.615   6.624  15.297  0.3723  0.2446  0.1253
 2455TIP3    H128780   6.553   6.563  15.257 -0.2139  0.9853 -0.0922
 2455TIP3    H228781   6.698   6.575  15.299 -0.0057 -0.4296 -0.3746
 2456TIP3   OH228782   0.773   4.003   5.166 -0.7184 -0.5899 -0.2696
 2456TIP3    H128783   0.763   4.049   5.083  0.6384 -2.5975 -1.5725
 2456TIP3    H228784   0.738   3.916   5.151  0.6197 -1.3589  0.9031
 2457TIP3   OH228785   2.588   1.064   4.045  0.3254  0.0508  0.1377
 2457TIP3    H128786   2.618   1.128   4.109  1.4755  0.8049 -1.1264
 2457TIP3    H228787   2.509   1.102   4.008 -0.2494 -0.3109  0.9946
 2458TIP3   OH228788   1.404   5.451  11.763 -0.3724 -0.2632  0.1338
 2458TIP3    H128789   1.317   5.491  11.766  0.2482  0.9712  2.5647
 2458TIP3    H228790   1.393   5.365  11.802 -0.8147 -0.7689 -1.0787
 2459TIP3   OH228791   2.585   2.996   2.042 -0.5878 -0.2121  0.3379
 2459TIP3    H128792   2.664   3.038   2.076 -0.8028 -0.2935  0.9485
 2459TIP3    H228793   2.538   3.066   1.997  0.3490 -0.4060 -0.9400
 2460TIP3   OH228794   4.479   6.650  12.343 -0.1014  0.5227  0.4509
 2460TIP3    H128795   4.417   6.613  12.406 -0.7657  0.1287 -0.4263
 2460TIP3    H228796   4.565   6.633  12.381 -0.4407 -1.0034  0.5582
 2461TIP3   OH228797   4.573   4.837   3.887  0.1064  0.3304  0.5278
 2461TIP3    H128798   4.567   4.790   3.803  0.3873  2.0892 -0.4966
 2461TIP3    H228799   4.626   4.780   3.942  0.1609 -0.7251 -0.5783
 2462TIP3   OH228800   4.886   6.171   0.349  0.2481  0.7021 -0.1750
 2462TIP3    H128801   4.934   6.221   0.416 -0.1257  0.9501 -0.0932
 2462TIP3    H228802   4.813   6.227   0.325  0.3505  0.5928 -0.7592
 2463TIP3   OH228803   0.679   6.402   2.301 -0.3671 -0.1147 -0.4241
 2463TIP3    H128804   0.727   6.441   2.375 -0.8215  1.8407 -1.1160
 2463TIP3    H228805   0.729   6.428   2.224 -0.1952 -1.7005 -0.8537
 2464TIP3   OH228806   4.776   4.050   5.541 -0.4128  0.3042  0.4685
 2464TIP3    H128807   4.757   4.021   5.631 -0.6280 -1.2401 -0.0501
 2464TIP3    H228808   4.721   4.127   5.528 -0.9902  0.0560  1.3864
 2465TIP3   OH228809   1.234   1.919  15.774  0.0745 -0.1340 -0.1845
 2465TIP3    H128810   1.261   2.000  15.819  0.2634 -1.0618  1.4095
 2465TIP3    H228811   1.283   1.850  15.818 -1.4926 -1.3263 -0.2707
 2466TIP3   OH228812   0.550   2.737  13.677  0.0029  0.4386 -0.3379
 2466TIP3    H128813   0.513   2.733  13.588  1.4006 -0.2234 -0.8977
 2466TIP3    H228814   0.491   2.682  13.729  0.2401 -0.7110 -1.2539
 2467TIP3   OH228815   0.236   5.839  12.906 -0.3507  0.3765  0.1364
 2467TIP3    H128816   0.191   5.787  12.840  2.1657 -0.2493 -1.1141
 2467TIP3    H228817   0.302   5.888  12.858  0.7424  0.8125  2.0163
 2468TIP3   OH228818   4.340   2.397  17.166 -0.0053 -0.2043  0.5022
 2468TIP3    H128819   4.403   2.442  17.110 -0.8257  1.0871  0.5933
 2468TIP3    H228820   4.284   2.348  17.106 -0.5972  0.8155  0.2055
 2469TIP3   OH228821   1.207   5.970  12.001  0.5340  0.1480 -0.0362
 2469TIP3    H128822   1.169   5.973  12.089 -0.5939 -1.2990 -0.4592
 2469TIP3    H228823   1.284   6.026  12.007 -0.6683  1.7234  1.3192
 2470TIP3   OH228824   2.045   0.358   5.534  0.0929  0.3277 -0.4528
 2470TIP3    H128825   1.984   0.326   5.468  1.8527 -0.3886 -1.7790
 2470TIP3    H228826   2.036   0.296   5.606  0.5343 -0.8245 -1.3668
 2471TIP3   OH228827   3.294   4.105  11.968 -0.4149 -0.4424 -0.2987
 2471TIP3    H128828   3.200   4.123  11.976 -0.8550 -0.9948 -3.4052
 2471TIP3    H228829   3.316   4.056  12.047 -2.9309 -0.9088  0.1496
 2472TIP3   OH228830   1.858   5.013   1.945 -0.3030  0.1882 -0.5449
 2472TIP3    H128831   1.777   5.020   1.997 -0.8710  0.8236 -1.5004
 2472TIP3    H228832   1.854   4.925   1.907 -0.3205  0.0507 -0.2301
 2473TIP3   OH228833   4.813   2.027   1.957  0.6976 -0.0427 -0.2832
 2473TIP3    H128834   4.854   2.105   1.920  0.9804 -0.7959 -1.5862
 2473TIP3    H228835   4.723   2.029   1.923  0.4711  0.1285  0.3212
 2474TIP3   OH228836   0.665   5.153   1.925  0.4946 -0.5047  0.2113
 2474TIP3    H128837   0.633   5.113   1.844  0.2011 -0.3004  0.2250
 2474TIP3    H228838   0.733   5.093   1.956  0.8817 -0.3845 -0.3935
 2475TIP3   OH228839   3.479   0.595   1.879  0.5388 -0.6000  0.2690
 2475TIP3    H128840   3.414   0.534   1.915  1.4269 -2.9992 -2.0433
 2475TIP3    H228841   3.528   0.543   1.816  1.5962  2.4397 -1.5077
 2476TIP3   OH228842   1.583   2.706   6.068 -0.2276 -0.2152  0.0271
 2476TIP3    H128843   1.519   2.749   6.012 -1.0708 -1.4532  0.0062
 2476TIP3    H228844   1.535   2.685   6.148  1.3268  2.7740  1.8323
 2477TIP3   OH228845   5.166   4.233   2.731 -0.1523 -0.0129 -0.0603
 2477TIP3    H128846   5.117   4.222   2.650 -0.2488 -0.1237  0.0118
 2477TIP3    H228847   5.216   4.151   2.740 -0.3812 -0.1315  0.1513
 2478TIP3   OH228848   6.422   5.134  16.890 -0.3550 -0.3405  0.3522
 2478TIP3    H128849   6.514   5.122  16.867 -0.6673  0.6258 -1.4996
 2478TIP3    H228850   6.379   5.054  16.859 -0.3577 -0.1527 -0.1445
 2479TIP3   OH228851   6.104   6.266  10.927 -0.0068 -0.1875 -0.7538
 2479TIP3    H128852   6.071   6.356  10.926  0.1321 -0.1205  0.1392
 2479TIP3    H228853   6.051   6.220  10.862 -0.8293  0.2807 -0.4206
 2480TIP3   OH228854   4.898   5.802   1.236 -0.4142 -0.4177 -0.1319
 2480TIP3    H128855   4.850   5.883   1.251 -0.1806 -0.1783 -0.6703
 2480TIP3    H228856   4.908   5.763   1.323  1.3788  1.2103  0.4380
 2481TIP3   OH228857   3.999   5.949  12.973  0.1925 -0.3816 -0.3181
 2481TIP3    H128858   3.915   5.935  13.016 -0.0185 -0.5354 -0.7724
 2481TIP3    H228859   3.990   5.906  12.888  0.7843 -0.5317 -0.3082
 2482TIP3   OH228860   4.070   1.776   1.791 -0.1462 -0.3718 -0.1616
 2482TIP3    H128861   4.053   1.851   1.733  0.5630 -0.6230 -0.7069
 2482TIP3    H228862   4.040   1.700   1.742  1.0645 -0.6552 -0.4998
 2483TIP3   OH228863   4.197   4.934  16.895 -0.1102 -0.2561  0.1830
 2483TIP3    H128864   4.173   5.026  16.883 -3.9614 -1.2761 -0.4846
 2483TIP3    H228865   4.191   4.920  16.990  1.0445  0.2974  0.3460
 2484TIP3   OH228866   3.378   2.401   4.032  0.2368  0.0429 -0.0889
 2484TIP3    H128867   3.438   2.356   3.973 -1.3556 -0.6706 -1.1860
 2484TIP3    H228868   3.328   2.331   4.075 -0.7982  0.6695 -0.2468
 2485TIP3   OH228869   2.697   3.040  15.206 -0.2297  0.0789  0.4120
 2485TIP3    H128870   2.621   3.087  15.172 -1.3365 -1.0462  1.3038
 2485TIP3    H228871   2.756   3.109  15.236 -1.6212  0.9281  1.2640
 2486TIP3   OH228872   0.914   1.283  14.964  0.1595 -0.4111 -0.1221
 2486TIP3    H128873   0.935   1.220  15.032  0.8489 -0.2105 -0.1395
 2486TIP3    H228874   0.989   1.278  14.903  0.4240  0.7132  0.0986
 2487TIP3   OH228875   4.356   5.740   6.276  0.2575  0.3094 -0.2740
 2487TIP3    H128876   4.409   5.791   6.215 -0.8516 -0.3704 -1.8257
 2487TIP3    H228877   4.414   5.668   6.303  0.0388 -0.6427 -2.2410
 2488TIP3   OH228878   1.417   4.558  11.541 -0.3282 -0.4021 -0.3233
 2488TIP3    H128879   1.498   4.541  11.493  0.0387  1.1795 -0.2808
 2488TIP3    H228880   1.416   4.491  11.609  1.0354 -0.3500 -0.2288
 2489TIP3   OH228881   1.333   4.917   5.033  0.0617 -0.5780 -0.9600
 2489TIP3    H128882   1.382   4.840   5.003  0.6164 -1.2522  1.5583
 2489TIP3    H228883   1.244   4.903   5.002 -0.2803 -3.2006  0.9990
 2490TIP3   OH228884   2.080   0.515  13.284 -0.1410 -0.0062 -0.0776
 2490TIP3    H128885   2.007   0.569  13.254 -1.0418  0.0754  2.1712
 2490TIP3    H228886   2.145   0.578  13.314 -0.3585 -0.1456  0.6743
 2491TIP3   OH228887   5.079   0.015   5.276  0.2585 -0.1583 -0.2262
 2491TIP3    H128888   5.066   0.094   5.224  1.0935 -0.5725 -1.1040
 2491TIP3    H228889   5.058  -0.057   5.216 -0.9369 -0.5913  0.7012
 2492TIP3   OH228890   6.236   3.043  14.656  0.8361  0.6004  0.9790
 2492TIP3    H128891   6.265   3.027  14.566 -0.6600  1.5719  0.2873
 2492TIP3    H228892   6.303   3.100  14.694  1.5484  0.0660  0.5143
 2493TIP3   OH228893   4.696   6.403  15.982 -0.1937 -0.4041  0.2131
 2493TIP3    H128894   4.621   6.443  15.938 -0.5781 -1.6421 -0.3149
 2493TIP3    H228895   4.663   6.377  16.068  0.3236  1.2692  0.9200
 2494TIP3   OH228896   0.379   0.991   1.947  0.2305 -0.2057 -0.3117
 2494TIP3    H128897   0.308   0.933   1.920  0.6019 -0.5822 -0.4812
 2494TIP3    H228898   0.371   0.995   2.043 -1.3998  1.5374 -0.4979
 2495TIP3   OH228899   0.794   1.693  17.123 -0.2722 -0.0556  0.2840
 2495TIP3    H128900   0.761   1.724  17.038  0.5592 -0.1019 -0.0640
 2495TIP3    H228901   0.875   1.646  17.101  1.7932  2.8393  1.4241
 2496TIP3   OH228902   1.452   0.466   4.310 -0.1811  0.1098 -0.4603
 2496TIP3    H128903   1.463   0.456   4.404 -0.2185 -0.3280 -0.5051
 2496TIP3    H228904   1.438   0.378   4.277 -1.6997  0.4301 -0.6916
 2497TIP3   OH228905   2.034   3.025   3.449 -0.4455 -0.9236 -0.0867
 2497TIP3    H128906   2.077   3.109   3.466  1.4521 -2.1098  1.1662
 2497TIP3    H228907   1.942   3.042   3.469 -0.1283  0.8977 -0.0102
 2498TIP3   OH228908   1.214   5.582  14.039 -0.1875 -0.0409 -0.5955
 2498TIP3    H128909   1.168   5.600  14.122 -0.1930 -0.8315 -0.4261
 2498TIP3    H228910   1.239   5.669  14.007  1.4641  0.1842  1.1757
 2499TIP3   OH228911   0.862   3.209   5.130 -0.1681  0.1602 -0.3685
 2499TIP3    H128912   0.779   3.218   5.177 -0.6168  1.1418 -1.3184
 2499TIP3    H228913   0.893   3.299   5.118  0.2089 -0.1006 -1.4576
 2500TIP3   OH228914   2.100   5.625   6.059  0.1620  0.3869  0.2129
 2500TIP3    H128915   2.164   5.598   6.126  1.2801  1.1170 -0.5407
 2500TIP3    H228916   2.052   5.545   6.038  0.4770 -0.0630  1.1744
 2501TIP3   OH228917   5.558   1.173   5.261 -0.6815 -0.0520  0.1676
 2501TIP3    H128918   5.627   1.108   5.278 -1.6072 -1.3962 -1.1415
 2501TIP3    H228919   5.480   1.137   5.304 -1.4000 -0.2211 -1.2663
 2502TIP3   OH228920   0.691   5.079   3.142 -0.2270  0.0140 -0.2578
 2502TIP3    H128921   0.707   5.163   3.184  0.8128  0.2134 -1.0415
 2502TIP3    H228922   0.733   5.086   3.056  0.4712 -1.5444 -0.0731
 2503TIP3   OH228923   2.075   2.942  15.951  0.4022 -0.0303  0.3131
 2503TIP3    H128924   2.029   2.899  15.879  1.2042 -0.7184  0.1979
 2503TIP3    H228925   2.167   2.917  15.939  0.4659 -0.6521  1.9174
 2504TIP3   OH228926   3.767   4.468  11.665  0.0939  0.3101  0.3887
 2504TIP3    H128927   3.767   4.374  11.648 -1.5543  0.4122 -0.2281
 2504TIP3    H228928   3.742   4.475  11.757  0.8681  0.1164  0.6144
 2505TIP3   OH228929   1.632   5.175   6.249 -0.1481  0.2186 -0.6449
 2505TIP3    H128930   1.594   5.149   6.333 -0.2702 -3.1831 -1.6764
 2505TIP3    H228931   1.703   5.236   6.273  0.6940 -1.7126  2.0324
 2506TIP3   OH228932   4.715   1.803   5.066  0.2319 -0.1711 -0.1068
 2506TIP3    H128933   4.666   1.720   5.067  0.5079 -0.3591 -1.4662
 2506TIP3    H228934   4.648   1.870   5.049  0.1115 -0.1723  0.3373
 2507TIP3   OH228935   2.075   5.868  11.610  0.3385  0.1192 -0.5821
 2507TIP3    H128936   2.118   5.783  11.611 -0.0849 -0.0838  0.0294
 2507TIP3    H228937   2.111   5.915  11.685 -0.8093 -0.2069  0.1916
 2508TIP3   OH228938   6.349   3.823  17.061  0.6441 -0.2269 -0.4137
 2508TIP3    H128939   6.268   3.820  17.112 -0.0287  1.8303 -1.3146
 2508TIP3    H228940   6.329   3.776  16.981  0.0770  0.8788 -0.9422
 2509TIP3   OH228941   0.126   6.752  12.426  0.3626  0.0535  0.2111
 2509TIP3    H128942   0.051   6.804  12.456  0.5512  0.5744 -0.2144
 2509TIP3    H228943   0.099   6.720  12.340  1.0767  1.2032 -0.4572
 2510TIP3   OH228944   1.345   2.364  11.279  0.2319 -0.2231  0.3486
 2510TIP3    H128945   1.353   2.304  11.354 -3.0660 -0.8026  0.3233
 2510TIP3    H228946   1.336   2.451  11.318  0.3560 -0.3097  0.5702
 2511TIP3   OH228947   3.764   1.343  12.382 -0.4189  0.0640  0.0137
 2511TIP3    H128948   3.850   1.369  12.347 -1.2804  0.7628 -1.6526
 2511TIP3    H228949   3.737   1.416  12.437 -1.0676  0.9811 -1.5014
 2512TIP3   OH228950   4.059   1.025   6.365 -0.4278  0.2804 -0.0594
 2512TIP3    H128951   3.998   1.070   6.423 -1.0072  0.2415 -0.6359
 2512TIP3    H228952   4.005   0.961   6.318  0.0047  0.4288 -0.7651
 2513TIP3   OH228953   3.673   4.873   3.485  0.1813 -0.4927  0.0460
 2513TIP3    H128954   3.735   4.943   3.508 -0.5974  0.2882 -0.1996
 2513TIP3    H228955   3.728   4.802   3.452  1.2841 -1.3983  3.6351
 2514TIP3   OH228956   2.677   3.925  15.694 -0.0675 -1.0449 -0.3279
 2514TIP3    H128957   2.676   3.839  15.654 -1.2195 -1.3146  0.2718
 2514TIP3    H228958   2.600   3.927  15.751  0.5668 -0.0357  0.5211
 2515TIP3   OH228959   0.428   4.564   3.672 -0.1054 -0.6935 -0.1359
 2515TIP3    H128960   0.392   4.598   3.754 -0.5278  1.0450 -1.0136
 2515TIP3    H228961   0.351   4.541   3.620  0.1667 -2.1036  0.0765
 2516TIP3   OH228962   2.608   4.477   6.237 -0.4116  0.2800  0.2363
 2516TIP3    H128963   2.682   4.476   6.176 -2.4776  1.4125 -2.3846
 2516TIP3    H228964   2.646   4.500   6.321  2.3622 -0.2411 -0.8321
 2517TIP3   OH228965   0.288   1.033   5.021 -0.0670  0.5326  0.7660
 2517TIP3    H128966   0.350   1.107   5.023  0.9177 -0.2608 -0.1174
 2517TIP3    H228967   0.202   1.074   5.014  0.5994  1.5611 -1.7104
 2518TIP3   OH228968   2.855   0.299  12.828 -0.1907 -0.2345  0.1514
 2518TIP3    H128969   2.801   0.362  12.781  0.4449  0.0310 -0.2296
 2518TIP3    H228970   2.928   0.280  12.769  1.7897  1.7528  1.8566
 2519TIP3   OH228971   3.121   0.129   4.371 -0.0604 -0.1372  0.1047
 2519TIP3    H128972   3.210   0.093   4.376  0.1579  0.5682  1.8482
 2519TIP3    H228973   3.064   0.053   4.377  0.4181 -0.3668  2.2315
 2520TIP3   OH228974   2.013   5.505  16.737 -0.5427  0.4049 -0.2233
 2520TIP3    H128975   1.969   5.526  16.820  0.8859  0.9551  0.4230
 2520TIP3    H228976   2.044   5.416  16.749  0.9510  0.9979  0.4264
 2521TIP3   OH228977   6.647   0.362   4.894 -0.5205  0.1262  0.4994
 2521TIP3    H128978   6.730   0.321   4.920 -1.0206  0.2883  2.4161
 2521TIP3    H228979   6.670   0.419   4.821  0.3063 -3.1338 -1.9309
 2522TIP3   OH228980   2.215   2.488  14.258  0.3903 -0.5545 -0.4078
 2522TIP3    H128981   2.257   2.405  14.236 -1.4079 -1.7926  0.6914
 2522TIP3    H228982   2.252   2.512  14.343  0.8739 -0.2353 -0.7031
 2523TIP3   OH228983   6.119   0.149   4.727  0.3664  0.2356 -0.0749
 2523TIP3    H128984   6.167   0.072   4.757 -0.1486 -0.2924 -0.6086
 2523TIP3    H228985   6.030   0.118   4.715 -0.1902  1.2796  1.1971
 2524TIP3   OH228986   4.432   0.108  12.518 -0.0004  0.0676 -0.1281
 2524TIP3    H128987   4.462   0.018  12.526 -2.6660 -0.6282  3.1614
 2524TIP3    H228988   4.362   0.105  12.454 -0.7232 -0.4087  0.6740
 2525TIP3   OH228989   2.897   1.649  14.845  0.6195  0.1139  0.3174
 2525TIP3    H128990   2.993   1.643  14.843  0.5827 -0.8447  0.8356
 2525TIP3    H228991   2.874   1.631  14.936 -0.0707  0.0280  0.1297
 2526TIP3   OH228992   6.137   1.749  14.631 -0.3322 -0.0703 -0.2593
 2526TIP3    H128993   6.130   1.665  14.675 -2.7755  0.5925  0.6831
 2526TIP3    H228994   6.177   1.729  14.546 -0.2188 -2.0637  0.2621
 2527TIP3   OH228995   5.847   5.240   5.656 -0.6189 -0.0154 -0.1160
 2527TIP3    H128996   5.842   5.251   5.751  2.7446 -0.9993  0.2384
 2527TIP3    H228997   5.839   5.146   5.642  3.0922 -0.3517 -0.3994
 2528TIP3   OH228998   2.141   0.904  14.999  0.5545  0.5475  0.3138
 2528TIP3    H128999   2.149   0.832  14.937  0.4565  0.4126  0.4545
 2528TIP3    H229000   2.217   0.896  15.056  0.8434  0.8994 -0.0253
 2529TIP3   OH229001   2.096   5.159   5.893  0.6416 -0.4818  0.0426
 2529TIP3    H129002   2.073   5.066   5.883 -0.2650 -0.0741 -1.7756
 2529TIP3    H229003   2.062   5.182   5.980 -1.1486 -1.2756 -0.4138
 2530TIP3   OH229004   6.294   2.921  15.048  0.0137  0.0847 -0.1055
 2530TIP3    H129005   6.360   2.893  14.985 -0.9871 -2.5116 -0.0572
 2530TIP3    H229006   6.342   2.974  15.112  2.0259 -1.6280 -0.1557
 2531TIP3   OH229007   2.539   3.116  15.450  0.1670 -0.9919 -0.4452
 2531TIP3    H129008   2.598   3.105  15.525 -0.3801 -1.8842 -0.1416
 2531TIP3    H229009   2.532   3.029  15.412  0.8695 -0.4445 -1.8816
 2532TIP3   OH229010   4.824   3.571  14.018  1.2107 -0.1352  0.4360
 2532TIP3    H129011   4.821   3.637  13.949  0.1289 -1.8093 -1.1431
 2532TIP3    H229012   4.901   3.518  13.998  1.2985 -0.1905  0.9114
 2533TIP3   OH229013   6.027   2.096  13.667  0.1567  0.5013 -0.7223
 2533TIP3    H129014   5.938   2.103  13.701  0.8114 -0.5025  1.3263
 2533TIP3    H229015   6.083   2.105  13.745  1.6668 -4.2580 -1.0745
 2534TIP3   OH229016   6.244   0.943  15.146 -0.5560 -0.0285 -0.3371
 2534TIP3    H129017   6.328   0.972  15.180  0.1189  0.3622 -2.2416
 2534TIP3    H229018   6.232   0.855  15.181  0.5855 -0.0267  0.0628
 2535TIP3   OH229019   5.383   4.789  14.769 -0.2734  0.3462 -0.3562
 2535TIP3    H129020   5.403   4.860  14.829 -0.1440  1.4313 -1.6669
 2535TIP3    H229021   5.468   4.759  14.737 -0.3944  0.4387 -0.7662
 2536TIP3   OH229022   4.945   6.055   3.951 -0.4697 -0.0099  0.3988
 2536TIP3    H129023   5.019   6.108   3.982 -0.2683 -0.5555  0.8509
 2536TIP3    H229024   4.976   6.017   3.869  0.2315 -1.2835  1.2451
 2537TIP3   OH229025   0.137   0.192  12.178  0.1892  0.4539  0.1527
 2537TIP3    H129026   0.095   0.110  12.154  0.9085  1.1161 -3.6364
 2537TIP3    H229027   0.209   0.167  12.235 -0.9545 -1.3188  0.8343
 2538TIP3   OH229028   3.290   1.469   3.290 -0.5714 -0.0613 -0.2091
 2538TIP3    H129029   3.317   1.552   3.327  0.1106 -0.9728  1.3777
 2538TIP3    H229030   3.250   1.492   3.206  3.8940  1.4578 -2.0589
 2539TIP3   OH229031   5.500   0.864  16.594 -0.1105 -0.3134 -0.0959
 2539TIP3    H129032   5.506   0.808  16.517  0.4613  0.8709 -0.9291
 2539TIP3    H229033   5.451   0.941  16.564 -0.7387 -0.2752  0.9869
 2540TIP3   OH229034   3.470   1.501   1.963  0.4637  0.2802  0.0213
 2540TIP3    H129035   3.451   1.443   2.036 -1.0828 -0.8378 -1.2335
 2540TIP3    H229036   3.445   1.588   1.993  1.7439  0.1548  1.5218
 2541TIP3   OH229037   3.604   0.548  12.774  0.3337 -0.6142 -0.3155
 2541TIP3    H129038   3.688   0.534  12.818 -0.9359  0.3710  2.5150
 2541TIP3    H229039   3.544   0.486  12.815 -1.6504  2.4828  1.7522
 2542TIP3   OH229040   2.556   3.712  13.347  0.9347 -0.0901 -0.2628
 2542TIP3    H129041   2.541   3.632  13.296  0.8687  0.6239 -1.3703
 2542TIP3    H229042   2.533   3.783  13.288  1.2720  0.7670  0.6256
 2543TIP3   OH229043   3.800   3.889   5.443  0.0449  0.1112 -0.0137
 2543TIP3    H129044   3.821   3.905   5.535  0.4179  1.7180 -0.3735
 2543TIP3    H229045   3.709   3.860   5.444  0.2941 -0.6650  0.9335
 2544TIP3   OH229046   6.263   2.814   0.020 -0.5379  0.4334 -0.2973
 2544TIP3    H129047   6.264   2.896  -0.031 -0.8193  0.6307  0.0157
 2544TIP3    H229048   6.188   2.823   0.078  0.1070  0.4466  0.5422
 2545TIP3   OH229049   3.220   0.211  12.297 -1.0094  0.2762  0.3187
 2545TIP3    H129050   3.147   0.267  12.268  1.4883  3.2765 -0.4731
 2545TIP3    H229051   3.236   0.239  12.387 -0.9353 -0.4745  0.5372
 2546TIP3   OH229052   2.381   3.464  12.245  0.0303  0.4696 -0.0926
 2546TIP3    H129053   2.419   3.402  12.307 -2.3206 -1.1516 -0.1925
 2546TIP3    H229054   2.323   3.519  12.298  1.2598  1.8885 -0.1877
 2547TIP3   OH229055   1.040   0.378  17.171  0.1164 -0.5736  1.6000
 2547TIP3    H129056   0.993   0.462  17.180 -1.5757 -1.4251  0.9417
 2547TIP3    H229057   0.978   0.321  17.126  0.0066 -3.1484  4.8299
 2548TIP3   OH229058   4.315   5.317  11.865 -0.0216  0.1163 -0.2444
 2548TIP3    H129059   4.367   5.312  11.785  0.3246  0.0933 -0.0184
 2548TIP3    H229060   4.368   5.274  11.932 -0.7295 -0.7268 -0.2160
 2549TIP3   OH229061   1.787   5.655  11.586  0.2951 -0.1785  0.1947
 2549TIP3    H129062   1.836   5.598  11.527 -0.2426  0.1932 -0.6161
 2549TIP3    H229063   1.732   5.596  11.638  0.9417 -0.5207  0.4904
 2550TIP3   OH229064   2.310   2.095  14.767 -0.4767  0.0282  0.2600
 2550TIP3    H129065   2.320   2.009  14.725  0.4284  1.1852 -2.0303
 2550TIP3    H229066   2.389   2.104  14.820 -0.7667 -0.7069  0.8369
 2551TIP3   OH229067   6.273   4.578  15.572  0.2363  0.2705 -0.4517
 2551TIP3    H129068   6.344   4.545  15.628 -1.1741 -0.1167  1.1379
 2551TIP3    H229069   6.193   4.561  15.622 -0.7405  3.9914 -0.5490
 2552TIP3   OH229070   1.351   6.198  12.008  0.2748  0.3508 -0.4215
 2552TIP3    H129071   1.398   6.182  12.089  0.0822  1.4477 -0.0938
 2552TIP3    H229072   1.419   6.219  11.944  0.2871  1.1800 -0.1330
 2553TIP3   OH229073   1.725   5.490  15.826 -0.7625  0.0268 -0.5832
 2553TIP3    H129074   1.707   5.419  15.887  3.8538 -1.2988 -0.6161
 2553TIP3    H229075   1.736   5.447  15.741  2.7199  0.6368 -0.4861
 2554TIP3   OH229076   6.333   3.665  16.819 -0.3117  0.1324 -0.0455
 2554TIP3    H129077   6.332   3.573  16.845  1.6907 -0.4635 -1.9091
 2554TIP3    H229078   6.287   3.667  16.735  1.4120  0.4742 -1.0078
 2555TIP3   OH229079   0.428   1.911  16.456  0.6361 -0.2775  0.3538
 2555TIP3    H129080   0.512   1.904  16.501  0.2426  1.0822  1.3167
 2555TIP3    H229081   0.424   2.002  16.426 -0.5098 -0.3168  0.3630
 2556TIP3   OH229082   3.717   5.354   1.726 -0.3723 -0.6556 -0.0099
 2556TIP3    H129083   3.647   5.326   1.667 -0.3174  0.1044 -0.4455
 2556TIP3    H229084   3.691   5.442   1.753 -0.8464 -1.3409  1.8045
 2557TIP3   OH229085   3.535   1.794   1.438  0.1861  0.2969  0.3841
 2557TIP3    H129086   3.487   1.756   1.512 -0.0020 -1.7331 -0.7600
 2557TIP3    H229087   3.473   1.789   1.365  0.9787  0.7171 -0.3135
 2558TIP3   OH229088   6.395   6.011   0.558  0.0495  0.5831 -0.6519
 2558TIP3    H129089   6.362   5.937   0.507 -0.6766  0.8989 -0.6572
 2558TIP3    H229090   6.364   6.088   0.510 -0.2535  0.8835  0.0207
 2559TIP3   OH229091   3.585   3.327  15.087  0.1674  0.0454  0.0210
 2559TIP3    H129092   3.609   3.390  15.019  0.9773 -2.5082 -2.1474
 2559TIP3    H229093   3.653   3.337  15.154  1.2306  0.3341 -1.0839
 2560TIP3   OH229094   2.623   6.187  12.281 -0.0380  0.0235 -0.1421
 2560TIP3    H129095   2.695   6.245  12.305  0.8927 -1.4236  0.6081
 2560TIP3    H229096   2.563   6.191  12.356 -0.8903  1.4344 -0.8809
 2561TIP3   OH229097   0.996   0.699  11.702 -0.2309 -0.0313  0.2403
 2561TIP3    H129098   1.074   0.682  11.650  0.0227  1.7026  0.0098
 2561TIP3    H229099   1.009   0.648  11.783  0.2459 -1.2300 -0.5836
 2562TIP3   OH229100   3.370   5.982   1.150  0.1786  0.6759  0.2902
 2562TIP3    H129101   3.328   6.066   1.135  0.6826  0.5435 -1.9332
 2562TIP3    H229102   3.438   6.001   1.216 -1.6280  1.3755  1.9989
 2563TIP3   OH229103   2.363   5.988   3.869 -0.0315 -0.0239 -0.1170
 2563TIP3    H129104   2.319   6.064   3.909 -0.0462  0.8749 -1.7745
 2563TIP3    H229105   2.294   5.946   3.817  0.2387 -0.5688 -0.0340
 2564TIP3   OH229106   2.792   5.319   2.826  0.2888  0.1490 -0.1513
 2564TIP3    H129107   2.849   5.381   2.781  2.4428 -1.0356  0.8440
 2564TIP3    H229108   2.815   5.233   2.789 -4.4228  0.0818 -3.3415
 2565TIP3   OH229109   5.496   1.211   4.031  0.3037  0.2501 -0.0911
 2565TIP3    H129110   5.454   1.161   3.962  1.7075  0.0689 -0.8204
 2565TIP3    H229111   5.453   1.296   4.029 -0.0158  0.0705 -0.8309
 2566TIP3   OH229112   3.337   1.105  17.105  0.3042 -0.5377  0.4090
 2566TIP3    H129113   3.400   1.145  17.164  0.3749 -1.0565  0.6940
 2566TIP3    H229114   3.371   1.123  17.017  0.7580 -0.6659  0.5580
 2567TIP3   OH229115   5.837   4.352  14.116 -0.4717 -0.0512  0.5336
 2567TIP3    H129116   5.851   4.381  14.026 -0.2940  1.8706  1.1564
 2567TIP3    H229117   5.912   4.386  14.164 -1.6153  0.7511  1.7828
 2568TIP3   OH229118   3.336   1.749   4.835  0.5322 -0.7097  0.2785
 2568TIP3    H129119   3.280   1.808   4.884 -0.7335 -1.1928 -0.5586
 2568TIP3    H229120   3.317   1.768   4.743 -0.3028 -2.7762 -0.0037
 2569TIP3   OH229121   2.486   1.577  14.329  0.1028  0.2751 -0.1085
 2569TIP3    H129122   2.434   1.657  14.321  0.4232  0.5211  0.2237
 2569TIP3    H229123   2.576   1.605  14.315  0.0992 -0.2504 -1.2729
 2570TIP3   OH229124   1.052   5.515  13.700 -0.3098  0.5077  0.2847
 2570TIP3    H129125   1.095   5.600  13.699  1.4727 -0.3804 -1.3794
 2570TIP3    H229126   1.030   5.498  13.608  1.8791 -2.0376  0.1629
 2571TIP3   OH229127   3.075   4.276   1.596  0.7287 -0.7387  0.5970
 2571TIP3    H129128   3.142   4.283   1.528  1.7894  1.5519  1.7916
 2571TIP3    H229129   3.082   4.358   1.645 -2.1897 -0.9431  1.4838
 2572TIP3   OH229130   4.390   6.718  16.636  0.0534  0.0491  0.1155
 2572TIP3    H129131   4.459   6.693  16.576  0.9833  1.4453  0.5884
 2572TIP3    H229132   4.370   6.809  16.614 -2.4953 -0.6967 -0.8278
 2573TIP3   OH229133   4.818   2.984  16.259  0.9613 -0.1105 -0.4746
 2573TIP3    H129134   4.729   3.018  16.256  1.0860  0.3194  0.4359
 2573TIP3    H229135   4.842   2.970  16.168 -0.1000 -0.3936 -0.7184
 2574TIP3   OH229136   4.850   4.450   4.080 -0.1006  0.5433  0.1153
 2574TIP3    H129137   4.915   4.513   4.111  1.1183 -0.2966 -0.6988
 2574TIP3    H229138   4.897   4.367   4.075 -1.4176 -0.2180  0.1665
 2575TIP3   OH229139   1.290   0.907   1.336 -0.5606 -0.0543 -0.4573
 2575TIP3    H129140   1.319   0.984   1.385 -1.3274 -0.1557  0.1510
 2575TIP3    H229141   1.290   0.836   1.400 -2.0984 -0.0667 -0.4571
 2576TIP3   OH229142   2.876   3.446   2.848 -0.2929 -0.0284  0.2887
 2576TIP3    H129143   2.885   3.475   2.758  0.7336 -1.0119  0.0712
 2576TIP3    H229144   2.964   3.421   2.875 -0.7895 -0.8925  1.1666
 2577TIP3   OH229145   0.392   0.832   5.939  0.5145  0.2882  0.2695
 2577TIP3    H129146   0.455   0.795   6.001  1.8670  2.2069  0.1076
 2577TIP3    H229147   0.327   0.876   5.995 -0.7910 -1.7886  0.4396
 2578TIP3   OH229148   4.815   5.646   5.196 -0.2886  0.0334  0.3394
 2578TIP3    H129149   4.742   5.584   5.189 -0.9120  0.8655 -0.5846
 2578TIP3    H229150   4.832   5.675   5.107 -0.4991  1.7482  0.8236
 2579TIP3   OH229151   3.559   2.147   0.119  0.2030 -0.0737 -0.4466
 2579TIP3    H129152   3.632   2.095   0.084  0.0008 -0.1102 -0.8217
 2579TIP3    H229153   3.601   2.221   0.162  0.4323  0.4659 -1.5735
 2580TIP3   OH229154   4.916   4.435  15.755 -0.5227  0.7718  0.1582
 2580TIP3    H129155   4.900   4.492  15.680 -0.5960  2.1218  1.1821
 2580TIP3    H229156   4.854   4.465  15.821 -0.0921 -0.0485  0.9372
 2581TIP3   OH229157   5.320   5.169   2.289  0.8021 -0.2696  0.0955
 2581TIP3    H129158   5.404   5.175   2.243  0.0083  0.8630 -1.2384
 2581TIP3    H229159   5.256   5.147   2.221 -0.1337 -0.2704  0.9554
 2582TIP3   OH229160   6.149   2.601   0.734 -0.0884  0.4943 -0.7380
 2582TIP3    H129161   6.243   2.594   0.716 -0.1426 -3.1730  0.0135
 2582TIP3    H229162   6.108   2.546   0.668 -1.4301 -0.6974  1.0464
 2583TIP3   OH229163   5.675   0.118  11.932 -0.1186  0.3596  0.5361
 2583TIP3    H129164   5.767   0.099  11.949  0.6390  2.3745 -1.0569
 2583TIP3    H229165   5.638   0.035  11.901  1.1660 -0.4600  1.1793
 2584TIP3   OH229166   0.543   5.383   1.727  0.3919 -0.0026  0.5345
 2584TIP3    H129167   0.577   5.368   1.639 -1.3939  1.4491 -0.4384
 2584TIP3    H229168   0.478   5.313   1.740  1.4054 -0.8529  1.1418
 2585TIP3   OH229169   1.165   5.539   3.314 -0.5997 -0.2031  0.0029
 2585TIP3    H129170   1.102   5.471   3.294  0.7738 -1.3887 -0.3450
 2585TIP3    H229171   1.251   5.497   3.303  0.2471  0.6260  3.0179
 2586TIP3   OH229172   3.275   2.993   4.876 -0.5556  0.4763  0.6980
 2586TIP3    H129173   3.324   3.069   4.905 -1.0433  1.5666 -1.2337
 2586TIP3    H229174   3.183   3.014   4.895 -0.6406  0.1246  0.6919
 2587TIP3   OH229175   5.366   5.579   5.814 -0.2207 -0.1482 -0.0809
 2587TIP3    H129176   5.304   5.540   5.876 -0.1985  0.3073  0.2271
 2587TIP3    H229177   5.442   5.601   5.867 -1.3274  2.9413  0.2939
 2588TIP3   OH229178   4.829   2.960   2.266  0.3350  0.2242  0.0887
 2588TIP3    H129179   4.864   3.044   2.237  2.2907 -0.4199  0.4763
 2588TIP3    H229180   4.838   2.903   2.189 -0.0610  0.1136  0.1258
 2589TIP3   OH229181   0.254   3.993  12.584 -0.2550  0.2629 -0.0086
 2589TIP3    H129182   0.216   3.934  12.520  0.4764 -1.8785  1.4520
 2589TIP3    H229183   0.317   4.045  12.534  1.6396 -2.6131 -0.7792
 2590TIP3   OH229184   3.137   3.985  12.449 -0.0036  0.6018 -0.7337
 2590TIP3    H129185   3.071   3.967  12.382 -1.2351  0.4246  0.5076
 2590TIP3    H229186   3.095   4.050  12.506  1.9069  2.5129 -1.4411
 2591TIP3   OH229187   4.143   2.697  16.346 -0.0257  0.0352  0.2681
 2591TIP3    H129188   4.057   2.692  16.305 -0.0953  0.2562  0.3829
 2591TIP3    H229189   4.145   2.784  16.387  0.6900  0.4878 -0.7083
 2592TIP3   OH229190   0.861   0.392   0.993  0.2049  0.5536 -0.7420
 2592TIP3    H129191   0.821   0.456   1.053 -1.0323 -1.3361  0.5098
 2592TIP3    H229192   0.922   0.444   0.940 -0.3889  2.6803  0.5758
 2593TIP3   OH229193   4.695   5.869  12.634  0.0336  0.2748  0.0246
 2593TIP3    H129194   4.713   5.847  12.725  0.7490  0.3260 -0.1002
 2593TIP3    H229195   4.676   5.963  12.635  0.0727  0.2816  0.1233
 2594TIP3   OH229196   6.444   4.597  12.791  0.0876  0.3814 -0.4601
 2594TIP3    H129197   6.399   4.605  12.706  1.5149  0.5051 -1.2231
 2594TIP3    H229198   6.427   4.681  12.834 -1.7682 -0.1760 -0.0339
 2595TIP3   OH229199   6.692   5.049   2.222  0.2234 -0.1235  0.1137
 2595TIP3    H129200   6.786   5.059   2.202  0.7306 -1.4628  1.7039
 2595TIP3    H229201   6.663   4.978   2.165  0.8986 -1.7331  1.7421
 2596TIP3   OH229202   6.316   2.241  14.029 -0.3294  0.0728  0.8317
 2596TIP3    H129203   6.310   2.177  13.959  0.3012  0.0530  0.7966
 2596TIP3    H229204   6.224   2.261  14.051 -0.5910  2.0236 -1.7356
 2597TIP3   OH229205   6.253   3.275   0.859 -0.0357  0.6806 -0.1085
 2597TIP3    H129206   6.257   3.338   0.931  1.0276  1.1075 -0.5388
 2597TIP3    H229207   6.212   3.323   0.787 -0.7706  0.3613  0.0898
 2598TIP3   OH229208   1.638   5.491  13.273 -0.1544 -0.4849 -0.0940
 2598TIP3    H129209   1.675   5.492  13.185 -0.1361  2.7434 -0.1020
 2598TIP3    H229210   1.706   5.453  13.328 -0.1199 -2.4035 -1.4119
 2599TIP3   OH229211   0.405   4.456   5.565  0.3475 -0.0240  0.0757
 2599TIP3    H129212   0.421   4.527   5.502 -2.2522  1.2868  0.8096
 2599TIP3    H229213   0.310   4.458   5.580  0.6313 -1.7036  2.4294
 2600TIP3   OH229214   4.593   2.143  15.179 -0.2551 -0.0550 -0.5826
 2600TIP3    H129215   4.516   2.105  15.221 -0.7746 -0.6631 -2.0453
 2600TIP3    H229216   4.664   2.130  15.242 -0.8845 -1.5542 -0.1650
 2601TIP3   OH229217   3.212   1.329  10.725  0.0920 -0.0022 -0.1406
 2601TIP3    H129218   3.130   1.378  10.737  0.5905  0.6443  0.7535
 2601TIP3    H229219   3.228   1.331  10.631 -1.0139 -0.2818 -0.3398
 2602TIP3   OH229220   1.697   4.719  15.889 -0.1884 -0.0303 -0.1603
 2602TIP3    H129221   1.675   4.785  15.823  1.3965 -0.5236 -1.1987
 2602TIP3    H229222   1.682   4.635  15.846  2.8825 -0.3808 -0.6527
 2603TIP3   OH229223   5.801   4.144  14.775  0.1190  0.0052 -0.2238
 2603TIP3    H129224   5.794   4.220  14.833 -0.8121  1.2198 -1.8701
 2603TIP3    H229225   5.789   4.068  14.832  0.4380  1.1183  1.3468
 2604TIP3   OH229226   2.032   3.556  14.427  0.1889 -0.3981  0.0858
 2604TIP3    H129227   2.094   3.565  14.355 -0.4511  2.1412 -0.2183
 2604TIP3    H229228   1.946   3.562  14.386 -0.2489 -2.1852  0.7004
 2605TIP3   OH229229   4.531   5.400  14.309 -0.0433  0.3993  0.8150
 2605TIP3    H129230   4.537   5.314  14.351 -0.1910 -0.2280 -0.4045
 2605TIP3    H229231   4.437   5.415  14.298  0.0255 -0.2133 -0.7831
 2606TIP3   OH229232   5.838   3.336  15.598  0.1404 -0.3824  0.0001
 2606TIP3    H129233   5.767   3.390  15.633  0.2712  1.7611 -2.8684
 2606TIP3    H229234   5.802   3.298  15.518  1.8623 -0.1393 -0.9106
 2607TIP3   OH229235   6.771   1.667   4.900  0.8736  0.6645  0.5737
 2607TIP3    H129236   6.866   1.656   4.889  0.9623  1.2401  0.7320
 2607TIP3    H229237   6.741   1.701   4.815  0.7439  0.0840  0.3853
 2608TIP3   OH229238   0.618   0.679   4.046  0.0197 -0.2659 -0.0966
 2608TIP3    H129239   0.644   0.695   3.955  2.0946  1.4320  0.7348
 2608TIP3    H229240   0.654   0.593   4.067 -0.5117 -0.6864 -0.8804
 2609TIP3   OH229241   2.183   6.704  11.989  0.1921  1.0502  0.9956
 2609TIP3    H129242   2.216   6.756  12.063  2.8182 -0.5597  0.9694
 2609TIP3    H229243   2.119   6.645  12.029 -0.2020  1.8610  1.5839
 2610TIP3   OH229244   1.968   2.124   5.645 -0.1145  0.1881 -0.6038
 2610TIP3    H129245   1.890   2.071   5.664 -0.2168  1.2872  2.2979
 2610TIP3    H229246   1.959   2.201   5.701  2.4707  0.9143 -1.1226
 2611TIP3   OH229247   1.182   2.229  11.644  0.2283  0.2236 -0.0364
 2611TIP3    H129248   1.151   2.163  11.706 -0.4297  0.7714  0.2289
 2611TIP3    H229249   1.110   2.292  11.638  1.0773  1.2348  0.1865
 2612TIP3   OH229250   3.788   2.269   2.926 -0.2628 -0.2506 -0.6452
 2612TIP3    H129251   3.737   2.302   2.853 -1.0993  0.1589  0.1200
 2612TIP3    H229252   3.778   2.335   2.995  1.1424 -0.2490 -0.4183
 2613TIP3   OH229253   0.285   5.856   0.792  0.2605 -0.0891  0.9145
 2613TIP3    H129254   0.226   5.792   0.831  0.2586  0.4356  1.7877
 2613TIP3    H229255   0.227   5.926   0.761  0.4410  0.6519  2.2021
 2614TIP3   OH229256   4.541   4.879   6.127 -0.2003  0.4549  0.0976
 2614TIP3    H129257   4.571   4.967   6.106  0.3209 -0.0815 -1.5595
 2614TIP3    H229258   4.549   4.831   6.044 -0.4552 -1.1469  0.9734
 2615TIP3   OH229259   3.310   4.239   3.495 -0.9041  0.5582  0.0849
 2615TIP3    H129260   3.284   4.308   3.433  0.4439  1.4446  0.4872
 2615TIP3    H229261   3.402   4.223   3.476 -1.0160 -0.6217  0.5018
 2616TIP3   OH229262   4.582   2.005   1.794 -0.4221  0.3752  0.3097
 2616TIP3    H129263   4.615   2.086   1.754  0.4995 -0.7704 -1.2994
 2616TIP3    H229264   4.550   1.953   1.721 -0.8057 -0.8109  1.3017
 2617TIP3   OH229265   5.206   0.690  13.967  0.1339 -0.0427  0.8112
 2617TIP3    H129266   5.279   0.721  14.020 -0.1765 -0.5467  1.5345
 2617TIP3    H229267   5.239   0.612  13.923  1.1599  1.6818 -1.5921
 2618TIP3   OH229268   0.435   2.422  14.880 -0.3147  0.2282 -0.1805
 2618TIP3    H129269   0.365   2.360  14.898  0.1764 -0.4758 -0.6839
 2618TIP3    H229270   0.469   2.396  14.794  0.8893  0.2614  0.2766
 2619TIP3   OH229271   5.667   6.718  12.878 -0.1164 -0.2090  0.1996
 2619TIP3    H129272   5.650   6.809  12.903 -0.5696 -0.4457  0.7734
 2619TIP3    H229273   5.590   6.670  12.908  0.3689 -0.8716  0.4048
 2620TIP3   OH229274   5.199   1.588   2.526  0.5444  0.6177 -0.5390
 2620TIP3    H129275   5.142   1.662   2.506 -0.2361 -0.1120 -1.0416
 2620TIP3    H229276   5.197   1.534   2.447  0.3073 -0.4506  0.1967
 2621TIP3   OH229277   5.459   6.617  15.361 -0.4036 -0.1310  0.1589
 2621TIP3    H129278   5.375   6.594  15.401 -0.3527  0.9849  0.9239
 2621TIP3    H229279   5.435   6.660  15.278 -0.7122  2.5951  1.5974
 2622TIP3   OH229280   2.500   4.267  16.073 -0.1352 -0.5422  0.3250
 2622TIP3    H129281   2.470   4.277  16.163 -1.3989  1.7911 -0.3113
 2622TIP3    H229282   2.430   4.218  16.030 -0.5265  0.1753  0.1305
 2623TIP3   OH229283   0.959   0.614  12.699 -0.2470 -0.3992 -0.9741
 2623TIP3    H129284   1.013   0.606  12.620  0.4477  2.2887 -0.8191
 2623TIP3    H229285   0.995   0.690  12.745 -1.1677 -1.4192  1.5371
 2624TIP3   OH229286   1.640   4.106   0.974 -0.4304 -0.0194  0.3022
 2624TIP3    H129287   1.698   4.181   0.966  0.7883 -1.0319 -0.4129
 2624TIP3    H229288   1.593   4.103   0.891 -0.9257  0.3065  0.5659
 2625TIP3   OH229289   0.060   2.471  14.536  0.5141  0.3331 -0.1226
 2625TIP3    H129290   0.067   2.529  14.460  1.7865 -0.6716 -0.8040
 2625TIP3    H229291  -0.033   2.452  14.543  0.1934  1.7603 -0.4235
 2626TIP3   OH229292   6.090   6.008  11.559 -0.8825  0.0516  0.4830
 2626TIP3    H129293   6.157   5.978  11.620  0.5027 -0.0802 -1.0677
 2626TIP3    H229294   6.022   6.047  11.615  0.7189  0.6759  2.0356
 2627TIP3   OH229295   2.949   0.723   4.924  0.7239  0.2894  0.3280
 2627TIP3    H129296   2.954   0.631   4.899 -0.3252 -0.1356  1.5925
 2627TIP3    H229297   3.024   0.765   4.881  2.2989 -1.5048  1.2905
 2628TIP3   OH229298   0.908   5.150   0.498  0.6388  0.3525 -0.9894
 2628TIP3    H129299   0.935   5.123   0.410  1.2335 -0.5051 -0.5482
 2628TIP3    H229300   0.864   5.073   0.534 -0.6057  1.0715 -0.9460
 2629TIP3   OH229301   6.026   0.389   4.234 -0.2655 -0.1259 -0.6024
 2629TIP3    H129302   6.072   0.372   4.316 -1.6529 -1.8475 -0.1539
 2629TIP3    H229303   6.095   0.416   4.173  1.1699 -1.5054  0.3761
 2630TIP3   OH229304   1.629   3.538  16.291 -0.2143  0.2283  0.2086
 2630TIP3    H129305   1.547   3.525  16.243 -0.2501 -1.0931  0.6154
 2630TIP3    H229306   1.606   3.525  16.383  0.0782  1.6863  0.5067
 2631TIP3   OH229307   4.867   1.991  13.330 -0.0255  0.8085  0.1441
 2631TIP3    H129308   4.896   2.058  13.269 -0.0591 -1.0541 -1.9674
 2631TIP3    H229309   4.947   1.965  13.377  0.2315  1.3647  0.0193
 2632TIP3   OH229310   6.169   4.128   0.819  0.0799 -0.6023 -0.9879
 2632TIP3    H129311   6.264   4.121   0.820  0.0883 -0.4784 -0.6472
 2632TIP3    H229312   6.141   4.075   0.744  0.2721 -2.3767  0.1675
 2633TIP3   OH229313   0.923   6.583   2.270  0.0221  1.0147  0.4288
 2633TIP3    H129314   0.921   6.620   2.358  0.4730  0.8058  0.5311
 2633TIP3    H229315   1.003   6.619   2.231 -0.7944  2.0587 -0.3202
 2634TIP3   OH229316   0.248   1.822   2.546 -0.6678  0.0324 -0.1835
 2634TIP3    H129317   0.322   1.871   2.508  0.4601 -1.7947 -0.3918
 2634TIP3    H229318   0.184   1.818   2.475  1.2905 -3.0644 -1.8964
 2635TIP3   OH229319   4.193   1.454   1.562  0.7292 -0.1551  0.3679
 2635TIP3    H129320   4.106   1.438   1.599  1.2225  1.2496  2.2354
 2635TIP3    H229321   4.239   1.371   1.569  0.3022 -0.2951  1.5316
 2636TIP3   OH229322   0.306   3.959  11.650 -0.0049 -0.2830  0.1023
 2636TIP3    H129323   0.346   3.921  11.571  0.8309  1.2993 -0.2816
 2636TIP3    H229324   0.216   3.928  11.649  0.2125 -0.9240 -1.0596
 2637TIP3   OH229325   2.112   2.432  13.816  0.3606 -0.4071  0.3606
 2637TIP3    H129326   2.055   2.501  13.781 -0.1136 -0.0703  1.7498
 2637TIP3    H229327   2.161   2.401  13.740 -0.8998  0.0421 -0.6683
 2638TIP3   OH229328   1.309   5.844   0.624  0.0452  0.4113 -0.0291
 2638TIP3    H129329   1.351   5.879   0.545  1.8636 -1.2913  0.1466
 2638TIP3    H229330   1.218   5.874   0.618 -0.1619 -0.7046 -3.4039
 2639TIP3   OH229331   4.545   2.121  10.740  0.5629  0.6687  0.2820
 2639TIP3    H129332   4.509   2.033  10.723  2.6476  0.0615 -1.2184
 2639TIP3    H229333   4.515   2.143  10.828 -2.0608 -0.4907 -0.2531
 2640TIP3   OH229334   6.057   0.365  11.449 -0.9269  0.2372 -0.1407
 2640TIP3    H129335   5.997   0.320  11.508 -0.3906  1.9849  1.7828
 2640TIP3    H229336   6.104   0.294  11.404 -1.7765 -1.1097  1.0672
 2641TIP3   OH229337   3.411   0.485  16.475 -0.8925  0.2104 -0.0190
 2641TIP3    H129338   3.456   0.498  16.391  1.5823  1.0984  1.4001
 2641TIP3    H229339   3.324   0.454  16.451 -0.0026 -0.1803 -2.9040
 2642TIP3   OH229340   5.287   3.105   0.247  0.1512  0.5331 -0.1456
 2642TIP3    H129341   5.226   3.126   0.176  1.0022 -0.5679 -1.2090
 2642TIP3    H229342   5.277   3.178   0.309 -1.0449  1.1905 -1.0851
 2643TIP3   OH229343   2.990   5.060   0.024 -0.2127 -0.1807  0.3834
 2643TIP3    H129344   3.027   5.055  -0.065 -1.6338  2.9488 -0.4618
 2643TIP3    H229345   3.034   5.134   0.064 -0.2396 -1.0223  1.9882
 2644TIP3   OH229346   1.085   5.466  16.665 -0.4904 -0.4143 -0.1230
 2644TIP3    H129347   1.167   5.482  16.617 -0.0930  0.3113  0.7697
 2644TIP3    H229348   1.112   5.456  16.756 -1.4451  0.3487  0.2555
 2645TIP3   OH229349   1.853   0.592  11.996  0.4779  0.9478 -0.2419
 2645TIP3    H129350   1.808   0.521  12.041 -0.0506  0.4523 -1.5335
 2645TIP3    H229351   1.927   0.614  12.053 -0.2179  0.3888  0.8899
 2646TIP3   OH229352   5.390   6.704  13.830  0.0185  0.5398  0.3120
 2646TIP3    H129353   5.454   6.700  13.759  0.7287  1.4746  0.8824
 2646TIP3    H229354   5.322   6.643  13.805  0.7405  0.1477 -0.7099
 2647TIP3   OH229355   3.881   2.776  15.104  0.5098 -0.5641  0.2500
 2647TIP3    H129356   3.911   2.769  15.194  2.8112  2.0513 -0.2355
 2647TIP3    H229357   3.839   2.862  15.099 -0.5812 -1.1405 -0.8955
 2648TIP3   OH229358   3.525   2.785  11.256 -0.1222 -0.0183  0.2855
 2648TIP3    H129359   3.447   2.840  11.250 -0.5160 -0.5111  0.8096
 2648TIP3    H229360   3.527   2.756  11.347  2.3300  2.3702  1.0439
 2649TIP3   OH229361   2.807   4.489  16.833 -0.3014 -0.2381  0.8903
 2649TIP3    H129362   2.780   4.398  16.846  0.6007 -0.8657 -1.4712
 2649TIP3    H229363   2.880   4.501  16.895  1.2047 -1.8973 -0.5127
 2650TIP3   OH229364   2.023   1.698  11.399 -0.2654  0.1076  0.4153
 2650TIP3    H129365   1.944   1.660  11.438  0.1971 -0.4079  0.8614
 2650TIP3    H229366   2.059   1.628  11.345 -0.0094  0.2770  0.3657
 2651TIP3   OH229367   5.461   2.753   2.358  0.8471  0.1624 -0.1808
 2651TIP3    H129368   5.439   2.838   2.322 -0.7083  0.1634  0.7378
 2651TIP3    H229369   5.512   2.772   2.437 -0.4986  0.2679  0.6656
 2652TIP3   OH229370   5.019   4.732   1.468  0.3412  0.1275  0.4450
 2652TIP3    H129371   5.032   4.694   1.380  0.4626 -1.5335  1.1581
 2652TIP3    H229372   5.061   4.818   1.463  0.0873  0.1738 -1.2190
 2653TIP3   OH229373   1.208   5.356   4.394  0.2900  0.0601 -0.0810
 2653TIP3    H129374   1.180   5.447   4.385  0.8520  0.1788 -0.7126
 2653TIP3    H229375   1.126   5.305   4.398 -0.0385  0.4027 -1.8585
 2654TIP3   OH229376   4.459   3.489  16.132 -0.1808  0.3671  0.1693
 2654TIP3    H129377   4.378   3.441  16.148 -1.9152  3.7550  1.9564
 2654TIP3    H229378   4.518   3.462  16.203 -0.1459 -1.0936 -0.3867
 2655TIP3   OH229379   5.190   1.118   1.748 -0.6191  0.8667 -0.8424
 2655TIP3    H129380   5.166   1.192   1.803 -0.8499 -0.1326  0.4379
 2655TIP3    H229381   5.126   1.119   1.676 -1.8996  0.7120  0.2698
 2656TIP3   OH229382   2.184   5.893  13.827  0.7297 -0.4177 -0.6952
 2656TIP3    H129383   2.096   5.927  13.841  0.1892 -1.2247 -1.9750
 2656TIP3    H229384   2.175   5.798  13.834  1.4697 -0.5157 -0.9645
 2657TIP3   OH229385   2.025   4.955  15.374  0.4550  0.1439  0.5057
 2657TIP3    H129386   2.051   4.872  15.414  0.2155 -0.4998 -0.6616
 2657TIP3    H229387   2.107   4.994  15.344  0.5775  0.3886  1.1383
 2658TIP3   OH229388   0.219   6.743  11.602  0.2746 -0.1121  0.2372
 2658TIP3    H129389   0.251   6.826  11.566  0.2299  0.1493  0.8037
 2658TIP3    H229390   0.298   6.692  11.618  0.2256 -0.8761 -1.7778
 2659TIP3   OH229391   0.494   0.065   4.258 -0.2048  0.5655 -0.1856
 2659TIP3    H129392   0.503   0.035   4.349 -0.3954  1.1609  0.0312
 2659TIP3    H229393   0.577   0.107   4.238  0.3224 -0.7309 -0.7239
 2660TIP3   OH229394   4.097   0.608  16.801 -0.4992  0.3927  0.4188
 2660TIP3    H129395   4.113   0.700  16.824  0.6186 -0.2581  2.3575
 2660TIP3    H229396   4.057   0.571  16.879 -1.4888 -0.6416 -0.5727
 2661TIP3   OH229397   2.384   4.013   2.399  0.2349 -0.0695  0.7620
 2661TIP3    H129398   2.323   4.046   2.465  0.5820 -0.1650  1.1245
 2661TIP3    H229399   2.350   3.926   2.376  0.0695 -0.0024  0.7503
 2662TIP3   OH229400   1.920   6.443   4.463 -0.0750 -0.3285  0.3750
 2662TIP3    H129401   1.872   6.361   4.475  2.1157 -1.5159  1.2570
 2662TIP3    H229402   2.012   6.418   4.468  0.6382  2.4937  3.0292
 2663TIP3   OH229403   0.639   0.513  15.441  0.6143  0.1507 -0.2760
 2663TIP3    H129404   0.566   0.477  15.392  1.2935 -0.2698 -1.0025
 2663TIP3    H229405   0.683   0.436  15.479 -0.3206  0.5180  1.6012
 2664TIP3   OH229406   2.826   6.281   3.762  0.6417  0.7761 -0.2645
 2664TIP3    H129407   2.909   6.329   3.755  1.3240 -0.2264  0.7402
 2664TIP3    H229408   2.843   6.197   3.718  0.6012  0.0342  1.0973
 2665TIP3   OH229409   3.434   3.275  14.094  0.3516  0.7645  0.4189
 2665TIP3    H129410   3.404   3.224  14.169  3.0298 -0.1433  0.9432
 2665TIP3    H229411   3.426   3.367  14.122 -0.8752  0.5134  0.9099
 2666TIP3   OH229412   5.822   3.154  12.712 -1.0939  0.5981 -0.0619
 2666TIP3    H129413   5.764   3.225  12.740  0.7099  1.6625  1.0775
 2666TIP3    H229414   5.787   3.076  12.753 -0.0023  1.7199  3.1251
 2667TIP3   OH229415   2.973   5.546   0.537 -0.0718  0.5740 -0.2448
 2667TIP3    H129416   2.949   5.454   0.548 -0.6863  0.2631 -3.8198
 2667TIP3    H229417   3.037   5.546   0.466  0.2741  2.8836  0.0340
 2668TIP3   OH229418   1.758   3.182  16.468 -0.2255 -0.2195 -0.0602
 2668TIP3    H129419   1.784   3.143  16.552  2.6259 -2.4508 -1.8740
 2668TIP3    H229420   1.733   3.107  16.414  0.6770  0.9038 -2.0801
 2669TIP3   OH229421   5.187   5.727  11.172 -0.1461  0.3836 -0.1468
 2669TIP3    H129422   5.241   5.705  11.097 -0.2082  1.6114 -0.5700
 2669TIP3    H229423   5.124   5.655  11.179  0.7442 -0.4230 -0.4083
 2670TIP3   OH229424   2.879   0.198  16.991 -0.3184  0.2989 -0.2458
 2670TIP3    H129425   2.857   0.105  17.000 -1.3877  0.6516  0.9403
 2670TIP3    H229426   2.971   0.204  17.017 -0.3209 -0.3941 -0.0859
 2671TIP3   OH229427   3.503   5.625  17.199  0.3803 -0.5297  0.5416
 2671TIP3    H129428   3.565   5.570  17.151  0.8241 -0.3789  0.9365
 2671TIP3    H229429   3.539   5.629  17.288  0.3581  0.4123  0.5114
 2672TIP3   OH229430   1.710   4.147   6.245 -0.0183 -0.0885  0.4287
 2672TIP3    H129431   1.760   4.118   6.321  0.8479 -0.1187 -0.1386
 2672TIP3    H229432   1.667   4.227   6.273  2.3331  1.3197  0.2007
 2673TIP3   OH229433   1.951   0.517  14.920  0.0149  0.1882  0.0719
 2673TIP3    H129434   1.886   0.461  14.963 -0.5140 -0.6151 -1.7348
 2673TIP3    H229435   2.035   0.487  14.955 -0.2410 -1.9544 -1.0652
 2674TIP3   OH229436   4.705   4.384   2.669  0.5003 -0.3382  0.3393
 2674TIP3    H129437   4.766   4.371   2.596 -0.1787 -1.3220 -0.0634
 2674TIP3    H229438   4.669   4.297   2.686 -2.2217  0.5628 -0.6862
 2675TIP3   OH229439   3.916   2.129   3.626 -0.2498 -0.2919 -0.1862
 2675TIP3    H129440   3.886   2.128   3.717 -0.8077  1.1052 -0.3446
 2675TIP3    H229441   3.857   2.069   3.580  0.9450 -2.1398  0.6396
 2676TIP3   OH229442   6.469   5.039   1.485 -0.7223 -0.1208 -0.2718
 2676TIP3    H129443   6.379   5.064   1.503 -0.1923  1.1081  0.7566
 2676TIP3    H229444   6.492   4.977   1.554  0.5053  2.6901  1.9550
 2677TIP3   OH229445   1.204   0.561   2.094  0.1794 -0.3177  0.3706
 2677TIP3    H129446   1.217   0.615   2.015  1.8558 -1.1611  0.0338
 2677TIP3    H229447   1.124   0.595   2.133  0.6413  1.7694 -0.3811
 2678TIP3   OH229448   2.391   4.169  13.240  0.3752  0.3649  0.1820
 2678TIP3    H129449   2.375   4.142  13.331  1.5254  4.3129  1.7004
 2678TIP3    H229450   2.335   4.246  13.228  1.1235  0.5897 -2.0920
 2679TIP3   OH229451   3.597   1.531  15.379 -0.0999  0.5686 -0.1543
 2679TIP3    H129452   3.556   1.502  15.461  1.5855 -1.3753  0.0518
 2679TIP3    H229453   3.691   1.535  15.399  0.0570  2.8172 -1.2196
 2680TIP3   OH229454   4.975   2.751  16.615  0.1879 -0.1289 -0.5425
 2680TIP3    H129455   5.038   2.679  16.614 -0.4223 -0.6411 -2.8683
 2680TIP3    H229456   4.893   2.713  16.584 -0.6113  1.1701 -0.1086
 2681TIP3   OH229457   4.310   6.300   3.383  0.2779 -0.6289  0.1719
 2681TIP3    H129458   4.221   6.296   3.347 -0.3489 -0.8227  1.7427
 2681TIP3    H229459   4.322   6.215   3.425  0.4244  0.1812  1.7942
 2682TIP3   OH229460   4.612   1.982  13.510 -0.0517 -0.3977 -0.1260
 2682TIP3    H129461   4.600   1.888  13.493 -1.9279 -0.1396 -0.3128
 2682TIP3    H229462   4.681   2.008  13.449 -0.7344 -1.2926 -1.3164
 2683TIP3   OH229463   6.629   1.790  16.323 -0.1052 -0.0388  0.0339
 2683TIP3    H129464   6.560   1.724  16.331 -0.4815  0.1279 -1.6545
 2683TIP3    H229465   6.630   1.833  16.408 -1.1050 -0.9988  0.5530
 2684TIP3   OH229466   1.687   3.393  17.015  0.3968 -0.1856 -0.1974
 2684TIP3    H129467   1.598   3.368  16.987 -0.7329  2.7723  0.5354
 2684TIP3    H229468   1.715   3.322  17.072 -1.3413 -1.3837 -0.7936
 2685TIP3   OH229469   4.438   1.231   0.788 -0.4715 -0.3376  0.0177
 2685TIP3    H129470   4.422   1.153   0.735 -1.4585 -0.9748  1.2190
 2685TIP3    H229471   4.478   1.293   0.728 -0.5004 -1.4557 -1.1819
 2686TIP3   OH229472   5.014   0.956  13.680  0.3293 -0.9400  0.1207
 2686TIP3    H129473   4.941   0.895  13.693  1.3586 -2.1537  0.2999
 2686TIP3    H229474   5.091   0.900  13.671  1.5203  0.3750  1.7500
 2687TIP3   OH229475   5.885   5.131   0.566 -0.3759  0.1258  0.3605
 2687TIP3    H129476   5.808   5.187   0.561  0.8525  1.6798 -2.2431
 2687TIP3    H229477   5.858   5.048   0.527 -0.4268  1.0480 -1.5903
 2688TIP3   OH229478   3.606   3.694   2.637  0.0502  0.0424  0.2466
 2688TIP3    H129479   3.698   3.709   2.616 -0.3491  0.2217 -1.4601
 2688TIP3    H229480   3.569   3.782   2.647 -0.2429  0.0103 -0.5081
 2689TIP3   OH229481   0.939   3.606  11.682  0.8298  0.1886 -0.1982
 2689TIP3    H129482   0.921   3.670  11.613  0.3225 -1.4129 -1.5869
 2689TIP3    H229483   0.897   3.642  11.760 -0.0781  1.2015 -1.1378
 2690TIP3   OH229484   1.974   3.147  17.057  0.5761 -0.1438  0.3503
 2690TIP3    H129485   1.998   3.172  17.147 -0.9920 -1.6155  1.2033
 2690TIP3    H229486   2.058   3.124  17.017  1.1437 -0.8916  1.9000
 2691TIP3   OH229487   3.247   5.476   3.203 -0.4436 -0.6779  0.0079
 2691TIP3    H129488   3.229   5.550   3.262 -0.9047 -1.2450  0.5958
 2691TIP3    H229489   3.337   5.450   3.224  0.2838  0.7259 -1.3306
 2692TIP3   OH229490   0.191   5.450  11.459  0.3823  0.1123  0.0226
 2692TIP3    H129491   0.176   5.403  11.377 -2.7152 -0.5292  0.9257
 2692TIP3    H229492   0.199   5.542  11.433 -1.5123  0.0285 -0.9353
 2693TIP3   OH229493   4.808   4.950  11.220  0.2421 -0.0895  0.1823
 2693TIP3    H129494   4.811   5.045  11.207 -1.0842 -0.4010 -2.9684
 2693TIP3    H229495   4.899   4.925  11.237  0.5756  1.7527  1.1868
 2694TIP3   OH229496   2.323   1.535  17.041  0.3331 -0.3125 -0.2951
 2694TIP3    H129497   2.386   1.607  17.050  0.2191 -0.2760  0.2956
 2694TIP3    H229498   2.265   1.562  16.970  2.3974 -1.4334 -2.4494
 2695TIP3   OH229499   6.213   3.873   4.334 -0.2360 -0.4589 -0.1261
 2695TIP3    H129500   6.252   3.794   4.297 -1.0291 -1.0350  0.2412
 2695TIP3    H229501   6.137   3.841   4.384 -1.1912  0.6168 -0.8519
 2696TIP3   OH229502   6.545   0.356  13.346  0.2599 -0.7083  0.3716
 2696TIP3    H129503   6.521   0.329  13.435  0.1145 -0.6229  0.3581
 2696TIP3    H229504   6.641   0.362  13.348  0.1905  0.5176  0.8898
 2697TIP3   OH229505   4.312   5.408   4.137  0.5392 -0.1121  0.0744
 2697TIP3    H129506   4.260   5.356   4.198 -0.6278 -1.0674 -1.6921
 2697TIP3    H229507   4.268   5.493   4.134  0.5828 -0.0726  0.5197
 2698TIP3   OH229508   4.207   4.387   0.049 -0.4185  0.3865  0.0789
 2698TIP3    H129509   4.205   4.472   0.006 -0.0930  1.2518  1.7382
 2698TIP3    H229510   4.118   4.353   0.039 -0.2621  0.3976 -1.5624
 2699TIP3   OH229511   2.933   4.884  10.795  0.5445 -0.0437  0.6130
 2699TIP3    H129512   2.932   4.833  10.876  0.8316 -1.9600 -0.5364
 2699TIP3    H229513   2.905   4.972  10.820  0.5637 -0.6402  2.7613
 2700TIP3   OH229514   0.086   0.803  13.261  0.0240 -0.3578  0.6760
 2700TIP3    H129515   0.107   0.876  13.319 -1.2303 -0.3837  1.1803
 2700TIP3    H229516   0.076   0.842  13.175  1.9573 -0.3249  0.4251
 2701TIP3   OH229517   1.223   3.501  10.716  0.6030  0.7368  0.2436
 2701TIP3    H129518   1.205   3.547  10.634  2.5468  0.2115 -0.5287
 2701TIP3    H229519   1.316   3.520  10.734  0.7305 -0.7374  1.2791
 2702TIP3   OH229520   6.559   3.754  12.805 -0.2558  0.6085 -0.3173
 2702TIP3    H129521   6.635   3.721  12.757 -0.5401  0.3912 -0.6205
 2702TIP3    H229522   6.520   3.818  12.747 -2.5519 -2.0698 -1.8456
 2703TIP3   OH229523   2.473   5.671   1.673 -0.1373 -0.1368 -0.0603
 2703TIP3    H129524   2.433   5.741   1.724  0.5008 -0.3590  0.7605
 2703TIP3    H229525   2.564   5.700   1.660 -0.0152 -0.5599 -0.1623
 2704TIP3   OH229526   0.869   5.234  16.022 -0.5367  0.3854 -0.2288
 2704TIP3    H129527   0.893   5.322  15.995  0.9776 -0.6274 -2.3194
 2704TIP3    H229528   0.951   5.196  16.055 -1.3394  0.0040  1.3731
 2705TIP3   OH229529   5.007   0.546   2.754 -0.1645  0.5176 -0.5235
 2705TIP3    H129530   4.996   0.571   2.846  1.2035 -1.2528  0.1555
 2705TIP3    H229531   4.947   0.473   2.742  0.6164 -0.1111 -0.6563
 2706TIP3   OH229532   2.976   3.619   4.064 -0.1782  0.3505  0.0100
 2706TIP3    H129533   2.900   3.572   4.098 -1.2935  1.6018 -0.7188
 2706TIP3    H229534   3.049   3.591   4.119 -1.7777  1.6775  2.8865
 2707TIP3   OH229535   0.086   1.209  12.367 -0.1531  0.0419  0.5674
 2707TIP3    H129536   0.047   1.122  12.359 -0.4163  0.1762  0.4003
 2707TIP3    H229537   0.169   1.194  12.412  0.1591 -0.3973 -0.1395
 2708TIP3   OH229538   6.250   2.708   5.344 -0.2909 -0.4292  0.4298
 2708TIP3    H129539   6.306   2.636   5.315  0.2754  0.6941 -1.3215
 2708TIP3    H229540   6.200   2.671   5.418  0.1324 -2.5384 -0.2965
 2709TIP3   OH229541   6.113   4.819   4.314 -0.1365 -0.4885  0.1017
 2709TIP3    H129542   6.135   4.796   4.404  3.1771 -0.1372 -0.5615
 2709TIP3    H229543   6.111   4.915   4.315 -0.2180 -0.4885 -0.1854
 2710TIP3   OH229544   6.738   6.363   0.889 -0.1025 -0.2966  0.2542
 2710TIP3    H129545   6.654   6.326   0.915  0.0150 -0.8050 -0.0909
 2710TIP3    H229546   6.715   6.436   0.832 -0.3304  0.1187  0.8685
 2711TIP3   OH229547   3.773   2.385  16.280  0.4980  0.3241 -0.0326
 2711TIP3    H129548   3.779   2.368  16.374  1.4677  0.6713 -0.0213
 2711TIP3    H229549   3.727   2.469  16.274 -0.7490 -0.3414  0.0686
 2712TIP3   OH229550   0.535   4.262   0.916 -0.3055  0.1591 -0.1226
 2712TIP3    H129551   0.520   4.353   0.945 -1.3979 -0.0403 -0.0455
 2712TIP3    H229552   0.594   4.226   0.982  0.9301  1.1033 -0.6849
 2713TIP3   OH229553   5.680   3.552  13.810  0.1605 -0.1039  0.1197
 2713TIP3    H129554   5.617   3.482  13.793  1.3800 -1.5991  1.5243
 2713TIP3    H229555   5.689   3.598  13.727 -2.4505 -0.1186 -0.2112
 2714TIP3   OH229556   2.148   3.763   3.676 -0.5387  0.2005  0.0962
 2714TIP3    H129557   2.173   3.702   3.746 -0.4958  0.9083  0.7147
 2714TIP3    H229558   2.231   3.785   3.633 -0.3899  0.7284  0.6364
 2715TIP3   OH229559   6.444   1.842  17.146 -0.2819  0.3168  0.2213
 2715TIP3    H129560   6.446   1.873  17.055  0.8403 -1.9730 -0.5642
 2715TIP3    H229561   6.352   1.819  17.161 -0.1733 -0.8654 -0.8824
 2716TIP3   OH229562   5.273   5.942  10.166 -0.0770  0.4161 -0.0939
 2716TIP3    H129563   5.239   5.860  10.129 -0.3240  0.6903 -0.4761
 2716TIP3    H229564   5.293   5.996  10.090  0.7648  0.4402  0.1420
 2717TIP3   OH229565   1.533   1.374   3.330  1.0916 -0.0514  0.0450
 2717TIP3    H129566   1.601   1.374   3.397  0.8721 -0.8658  0.2817
 2717TIP3    H229567   1.574   1.413   3.253  1.5481  0.2802  0.4609
 2718TIP3   OH229568   5.899   0.149   2.870  0.3078  0.2932 -0.0219
 2718TIP3    H129569   5.821   0.094   2.873 -0.3312  1.2546  1.0716
 2718TIP3    H229570   5.965   0.099   2.919  0.1055 -0.0673 -0.1127
 2719TIP3   OH229571   5.395   1.852   4.718 -0.4252  0.0551  0.4259
 2719TIP3    H129572   5.458   1.912   4.759  0.0867 -0.1193 -0.0833
 2719TIP3    H229573   5.427   1.843   4.628 -0.7537 -0.6309  0.3741
 2720TIP3   OH229574   2.917   2.034  13.339  0.3579  0.0379 -0.5885
 2720TIP3    H129575   2.899   2.076  13.423 -0.7790  0.2221 -0.9135
 2720TIP3    H229576   2.900   2.101  13.274 -0.9116 -0.7496 -1.0810
 2721TIP3   OH229577   5.038   3.117   1.896 -0.4840 -0.2004  0.2756
 2721TIP3    H129578   5.012   3.104   1.805  0.7516 -0.6988 -0.0163
 2721TIP3    H229579   4.989   3.194   1.924 -1.8312 -0.7793 -0.4212
 2722TIP3   OH229580   0.692   4.412   4.188  0.0274 -0.3711 -0.0618
 2722TIP3    H129581   0.776   4.389   4.148  0.8936  0.0438  1.5058
 2722TIP3    H229582   0.629   4.352   4.148  0.5704  1.0816 -3.2636
 2723TIP3   OH229583   1.549   2.869   0.983  0.3670 -0.0584 -0.0551
 2723TIP3    H129584   1.578   2.809   0.914  1.4746 -0.9602  1.1719
 2723TIP3    H229585   1.569   2.956   0.949  0.6974 -0.4802 -0.9658
 2724TIP3   OH229586   5.046   2.896  14.497  0.3398  0.3351  0.4300
 2724TIP3    H129587   5.075   2.814  14.538 -0.4177 -0.4042 -0.5136
 2724TIP3    H229588   5.121   2.924  14.445  0.1003 -0.5095 -0.3780
 2725TIP3   OH229589   1.739   1.099   2.653  0.2520  0.2363  0.4270
 2725TIP3    H129590   1.788   1.181   2.663 -0.2678  0.5235  0.6687
 2725TIP3    H229591   1.647   1.127   2.649  0.1222 -0.2830 -0.1976
 2726TIP3   OH229592   5.808   6.641  16.922  0.2319  0.4308  0.6363
 2726TIP3    H129593   5.825   6.704  16.991  0.3717  1.8521 -0.6611
 2726TIP3    H229594   5.843   6.682  16.843  0.4583 -1.3386 -0.2073
 2727TIP3   OH229595   2.738   3.520   1.501  0.3360 -0.3069 -0.0032
 2727TIP3    H129596   2.715   3.523   1.408  1.1654 -0.5173 -0.2204
 2727TIP3    H229597   2.715   3.430   1.527 -0.5639 -0.0323  0.1788
 2728TIP3   OH229598   6.339   6.613  13.548 -0.1484 -0.2902 -0.4124
 2728TIP3    H129599   6.430   6.586  13.559 -0.1661 -0.2701 -0.2224
 2728TIP3    H229600   6.345   6.705  13.521 -0.1311 -0.1240  0.1551
 2729TIP3   OH229601   6.411   0.073  14.576 -0.1042 -0.1104  0.2762
 2729TIP3    H129602   6.492   0.024  14.588 -0.0513 -0.1767 -0.3419
 2729TIP3    H229603   6.426   0.157  14.621  0.5370  0.1262 -0.3710
 2730TIP3   OH229604   4.356   4.376   3.422 -0.5492 -0.0591 -0.1830
 2730TIP3    H129605   4.402   4.389   3.505 -0.3073 -0.4632 -0.2514
 2730TIP3    H229606   4.421   4.334   3.365 -0.6767  0.3231 -0.6102
 2731TIP3   OH229607   3.614   6.174   5.268  0.5687 -0.7830  0.2055
 2731TIP3    H129608   3.552   6.195   5.339  0.8475  1.2971 -0.1131
 2731TIP3    H229609   3.691   6.138   5.313 -0.7094 -3.0761  0.6316
 2732TIP3   OH229610   0.834   0.672  13.718  0.6677  0.2599 -0.4152
 2732TIP3    H129611   0.866   0.750  13.764 -1.5917  0.7603  0.4132
 2732TIP3    H229612   0.861   0.599  13.773 -0.2759  0.7243  0.6849
 2733TIP3   OH229613   3.910   3.075  12.893  0.0474  0.2870  0.3858
 2733TIP3    H129614   3.815   3.062  12.885  0.2562 -0.8251 -0.4920
 2733TIP3    H229615   3.920   3.134  12.967 -1.3963  1.3373 -0.2261
 2734TIP3   OH229616   3.339   5.221   1.703  0.4249 -0.0247  0.2567
 2734TIP3    H129617   3.417   5.209   1.648 -0.9383 -1.7311 -1.4034
 2734TIP3    H229618   3.310   5.132   1.722 -1.2364  0.5905  0.6568
 2735TIP3   OH229619   1.572   1.080   3.360  0.0875  0.6715  0.0564
 2735TIP3    H129620   1.610   1.167   3.369  0.4361  0.4760  0.4887
 2735TIP3    H229621   1.601   1.050   3.273 -2.5001  2.1720 -1.3604
 2736TIP3   OH229622   0.693   3.875   0.628  0.0621  0.2247 -0.2972
 2736TIP3    H129623   0.654   3.915   0.705  2.0518 -2.5577  2.2581
 2736TIP3    H229624   0.620   3.830   0.584 -1.0206  1.5536  0.1243
 2737TIP3   OH229625   0.795   1.631  14.271 -0.1496 -0.1285 -0.0554
 2737TIP3    H129626   0.793   1.538  14.247 -2.1458  0.0117 -0.4920
 2737TIP3    H229627   0.777   1.677  14.189  0.0215  0.6269  0.3271
 2738TIP3   OH229628   1.559   3.587   5.983 -0.6017  0.1061  0.4810
 2738TIP3    H129629   1.544   3.629   6.067 -0.3311  2.4111 -0.5742
 2738TIP3    H229630   1.488   3.524   5.975 -1.1180  0.4619  2.0649
 2739TIP3   OH229631   4.362   2.470   4.917  0.4527 -0.6505  0.0189
 2739TIP3    H129632   4.300   2.542   4.928 -0.4812 -1.4136 -0.2615
 2739TIP3    H229633   4.371   2.433   5.005  0.2584 -0.7513 -0.0047
 2740TIP3   OH229634   2.025   5.352  11.512 -0.5842 -0.1203  0.4380
 2740TIP3    H129635   1.971   5.414  11.462 -0.4883  0.4989  1.0906
 2740TIP3    H229636   1.966   5.280  11.533 -0.4446 -0.7229 -1.1592
 2741TIP3   OH229637   4.561   4.107  11.049  0.5432  0.6150 -0.4930
 2741TIP3    H129638   4.548   4.133  10.958  2.6467  0.0060 -0.9954
 2741TIP3    H229639   4.618   4.174  11.086  0.4243  0.3816  0.1293
 2742TIP3   OH229640   5.015   2.137   3.887 -0.4984  0.1864 -0.3910
 2742TIP3    H129641   5.040   2.069   3.824  2.7097  0.2741  0.6871
 2742TIP3    H229642   4.966   2.200   3.835 -0.0778 -0.9829 -2.2795
 2743TIP3   OH229643   3.253   1.035  15.577 -0.6137 -0.2185 -0.0790
 2743TIP3    H129644   3.277   1.125  15.555  0.9944 -1.0934 -1.9967
 2743TIP3    H229645   3.202   1.005  15.502 -0.7376 -1.0739  0.3416
 2744TIP3   OH229646   6.256   5.200   6.321  0.8155 -0.9117  0.2099
 2744TIP3    H129647   6.194   5.133   6.347 -0.5308  0.4327  0.5283
 2744TIP3    H229648   6.254   5.264   6.392  0.2372  0.6921 -1.2106
 2745TIP3   OH229649   4.298   0.405  14.219 -0.6287  0.5672  0.3729
 2745TIP3    H129650   4.318   0.321  14.179 -1.2398 -0.7637  2.7651
 2745TIP3    H229651   4.202   0.410  14.220 -0.6007  1.3034  0.2773
 2746TIP3   OH229652   0.392   1.151   1.100  0.2458 -0.4153 -0.0622
 2746TIP3    H129653   0.434   1.156   1.014  1.8506  0.9438  0.7736
 2746TIP3    H229654   0.325   1.083   1.090  3.0876 -3.1719 -1.2476
 2747TIP3   OH229655   2.782   5.191   2.168  0.0344  0.0327  0.0850
 2747TIP3    H129656   2.815   5.279   2.154  0.9596 -0.3819 -0.3968
 2747TIP3    H229657   2.833   5.158   2.242  1.9123 -1.2015 -1.7023
 2748TIP3   OH229658   2.942   2.054  12.592 -0.6562 -0.0337  0.2734
 2748TIP3    H129659   2.925   2.107  12.514 -1.2079 -0.9177 -0.2060
 2748TIP3    H229660   3.022   2.092  12.629 -0.7258  0.7714 -0.3851
 2749TIP3   OH229661   0.791   3.416   0.369  0.3662 -0.1484 -0.7363
 2749TIP3    H129662   0.755   3.500   0.341 -0.5060 -0.1773  0.2577
 2749TIP3    H229663   0.714   3.361   0.384  0.9400 -1.2399 -1.7174
 2750TIP3   OH229664   6.234   1.442   2.388  0.5360 -0.4106 -0.0952
 2750TIP3    H129665   6.283   1.457   2.469 -0.8801 -2.2592  1.1189
 2750TIP3    H229666   6.211   1.349   2.390 -2.0685  0.1726 -1.1973
 2751TIP3   OH229667   5.188   6.133   3.145 -0.7270 -0.3225 -0.0085
 2751TIP3    H129668   5.221   6.065   3.203 -3.2825 -1.0153  0.7282
 2751TIP3    H229669   5.175   6.209   3.201 -0.3193 -0.0499 -0.2875
 2752TIP3   OH229670   2.016   5.682  10.994  0.4295 -0.4380  0.7566
 2752TIP3    H129671   1.979   5.768  11.015  2.4829  0.4280  0.9919
 2752TIP3    H229672   1.940   5.627  10.974 -1.0426  0.8980  2.5054
 2753TIP3   OH229673   0.747   3.430  10.950 -0.0708 -0.1466  0.1622
 2753TIP3    H129674   0.676   3.478  10.907  0.2600 -1.6488 -2.1164
 2753TIP3    H229675   0.827   3.467  10.911  0.1961 -2.2676 -1.3941
 2754TIP3   OH229676   1.387   2.690  16.151 -0.2185 -0.7878  0.4044
 2754TIP3    H129677   1.465   2.645  16.184 -0.2561  0.6658  2.5606
 2754TIP3    H229678   1.320   2.673  16.216  0.0578  3.2414  1.8893
 2755TIP3   OH229679   1.051   0.485  11.868  0.0101  0.5104  0.2756
 2755TIP3    H129680   1.033   0.539  11.944 -0.7366  0.6054  0.0333
 2755TIP3    H229681   0.966   0.452  11.840  0.5741 -1.8273  1.1801
 2756TIP3   OH229682   0.947   3.695   5.340  0.6409  0.0373  0.0373
 2756TIP3    H129683   0.900   3.766   5.385  5.7157  2.8140  1.3883
 2756TIP3    H229684   0.992   3.648   5.410  2.0475 -0.7714 -1.3895
 2757TIP3   OH229685   3.156   3.746   5.665  0.1922 -0.4725 -0.1584
 2757TIP3    H129686   3.135   3.809   5.734 -0.6915 -2.6982  1.6289
 2757TIP3    H229687   3.243   3.712   5.688  1.1177  0.7580 -1.6691
 2758TIP3   OH229688   0.705   1.600   1.213 -0.7524 -0.3276  0.2137
 2758TIP3    H129689   0.680   1.685   1.176 -1.5103 -0.6350  0.0043
 2758TIP3    H229690   0.651   1.592   1.292 -1.2628 -0.9667 -0.2004
 2759TIP3   OH229691   6.323   2.521  14.723  0.1789  0.0947  0.2582
 2759TIP3    H129692   6.390   2.485  14.781  0.4467  0.6130  0.2677
 2759TIP3    H229693   6.305   2.608  14.757 -2.0727 -0.8399  1.5545
 2760TIP3   OH229694   1.580   4.426  16.135 -0.0410 -0.2498  0.2536
 2760TIP3    H129695   1.614   4.349  16.091 -0.1391  0.0438 -0.3472
 2760TIP3    H229696   1.657   4.480  16.154  0.0280 -0.4956  0.6763
 2761TIP3   OH229697   0.530   5.046   4.146  0.4118  0.1187  0.7124
 2761TIP3    H129698   0.445   5.063   4.105 -0.1708 -1.5341  1.1937
 2761TIP3    H229699   0.589   5.030   4.073  0.4626  1.8957  0.3510
 2762TIP3   OH229700   5.742   0.295  13.251  0.4012  0.2779 -0.2350
 2762TIP3    H129701   5.786   0.355  13.192  0.7507 -0.1351 -0.3985
 2762TIP3    H229702   5.701   0.351  13.316 -0.0666  0.7398 -0.9220
 2763TIP3   OH229703   2.061   5.465   4.216 -0.0414  0.6388  0.3630
 2763TIP3    H129704   2.063   5.450   4.121 -2.6460 -0.3425  0.4152
 2763TIP3    H229705   2.063   5.377   4.254 -2.4320  0.8390  1.0621
 2764TIP3   OH229706   1.096   4.585   4.891  0.2729  0.1665  0.3284
 2764TIP3    H129707   1.086   4.512   4.831 -1.3766  0.0138  0.7574
 2764TIP3    H229708   1.117   4.545   4.975 -1.0763  0.1436  0.6642
 2765TIP3   OH229709   5.614   6.131  12.070  0.2828 -0.0574  0.2258
 2765TIP3    H129710   5.688   6.192  12.077  0.7520  0.1711 -4.6195
 2765TIP3    H229711   5.654   6.047  12.048 -0.7366 -0.5602  0.2754
 2766TIP3   OH229712   2.121   5.170   4.272  0.5400 -0.2080  0.2439
 2766TIP3    H129713   2.197   5.121   4.239 -0.2590 -2.8051  2.1118
 2766TIP3    H229714   2.090   5.119   4.347 -2.1706  1.5855  0.4167
 2767TIP3   OH229715   3.054   6.641  11.993 -0.1734 -0.1006 -0.4707
 2767TIP3    H129716   3.000   6.566  12.016 -2.7762  1.6273 -0.7113
 2767TIP3    H229717   3.059   6.693  12.073 -1.7725  1.4531 -1.3431
 2768TIP3   OH229718   1.291   5.474  16.259  0.4649 -0.6292  0.6051
 2768TIP3    H129719   1.340   5.403  16.301  2.4462  0.3097 -0.0676
 2768TIP3    H229720   1.337   5.554  16.286  0.0084  0.1893 -0.9843
 2769TIP3   OH229721   4.566   2.219  14.018  0.4829 -0.0718 -0.4878
 2769TIP3    H129722   4.626   2.158  14.060  1.4017 -0.5904 -2.4813
 2769TIP3    H229723   4.607   2.305  14.030  0.3883 -0.1304  0.2657
 2770TIP3   OH229724   0.289   6.198   4.195  0.1147  0.2825  0.1504
 2770TIP3    H129725   0.261   6.200   4.286  0.3852  0.9195  0.2252
 2770TIP3    H229726   0.208   6.191   4.145  0.1102 -2.8969  0.5103
 2771TIP3   OH229727   0.985   1.755  11.137  0.3521 -0.1939 -0.0111
 2771TIP3    H129728   0.991   1.715  11.051 -1.3196 -0.7287  0.0998
 2771TIP3    H229729   0.989   1.849  11.121 -2.7933 -0.1654 -0.9912
 2772TIP3   OH229730   2.316   2.799   5.736  0.4906 -0.1439  0.0517
 2772TIP3    H129731   2.231   2.808   5.778  0.3241 -2.2055  0.2394
 2772TIP3    H229732   2.375   2.851   5.791 -0.3583 -0.0231  0.8705
 2773TIP3   OH229733   6.570   4.753   5.744  0.2954 -0.5582 -0.0696
 2773TIP3    H129734   6.588   4.847   5.745 -0.2202 -0.4575  1.3928
 2773TIP3    H229735   6.536   4.734   5.831 -1.9174 -1.6669 -1.1254
 2774TIP3   OH229736   6.451   0.497   0.859  0.0590 -0.0846 -0.1688
 2774TIP3    H129737   6.405   0.477   0.777 -1.3180  0.9505  0.3434
 2774TIP3    H229738   6.540   0.520   0.831 -0.1748 -0.5105 -1.3025
 2775TIP3   OH229739   6.373   6.572  12.653 -0.0079 -0.2656  0.0793
 2775TIP3    H129740   6.293   6.528  12.627  0.3060 -1.4663  1.0805
 2775TIP3    H229741   6.348   6.624  12.729  0.1421 -0.6256  0.3798
 2776TIP3   OH229742   0.728   4.497   1.156 -0.1425 -0.1359 -0.0571
 2776TIP3    H129743   0.657   4.525   1.099  0.4997  3.2163  0.6948
 2776TIP3    H229744   0.806   4.498   1.101 -0.1317 -0.6439 -0.0581
 2777TIP3   OH229745   2.618   3.636   2.909  0.2356  0.3144  0.4251
 2777TIP3    H129746   2.655   3.724   2.897  1.2952 -0.0731  0.7994
 2777TIP3    H229747   2.667   3.581   2.849 -1.2575  0.1848 -0.7012
 2778TIP3   OH229748   6.714   3.066  11.208 -0.2998 -0.0330  0.2714
 2778TIP3    H129749   6.758   2.986  11.236  0.2970 -0.2903 -1.3801
 2778TIP3    H229750   6.759   3.136  11.256 -0.4878 -0.6257  1.3298
 2779TIP3   OH229751   0.278   5.329   0.526 -0.0453 -0.2395 -0.5535
 2779TIP3    H129752   0.307   5.243   0.558 -0.1890  0.2993  1.0647
 2779TIP3    H229753   0.349   5.359   0.470  0.8019 -0.6374  0.2952
 2780TIP3   OH229754   3.649   1.297  13.782 -0.0648 -0.3080 -0.3736
 2780TIP3    H129755   3.621   1.364  13.719 -0.8509 -1.1324 -0.9032
 2780TIP3    H229756   3.738   1.274  13.755 -0.5848 -1.0286 -1.4976
 2781TIP3   OH229757   4.062   4.303   5.225 -0.2906  0.2707 -0.2761
 2781TIP3    H129758   4.047   4.210   5.239 -0.7552  0.0176 -2.2098
 2781TIP3    H229759   4.142   4.306   5.172 -0.4084  0.9503 -0.4190
 2782TIP3   OH229760   6.120   5.509  15.773  0.6029 -0.1133  0.2880
 2782TIP3    H129761   6.146   5.573  15.706  2.1502 -0.1367  0.8470
 2782TIP3    H229762   6.072   5.560  15.838  0.1536  0.1284 -0.2310
 2783TIP3   OH229763   0.599   5.565   0.773  0.4510  0.2756 -0.1148
 2783TIP3    H129764   0.609   5.485   0.824 -0.6367 -0.2168 -0.6760
 2783TIP3    H229765   0.633   5.544   0.686  0.6434  0.5745 -0.1146
 2784TIP3   OH229766   3.794   3.052  15.096  0.6895 -0.0943  0.3343
 2784TIP3    H129767   3.874   3.036  15.146 -0.0015 -0.8195  1.2220
 2784TIP3    H229768   3.788   3.147  15.089  1.1667 -0.0176  1.0141
 2785TIP3   OH229769   2.479   2.089   5.983 -0.5072  0.0689 -0.6477
 2785TIP3    H129770   2.481   2.034   6.061  0.0171 -0.2743 -0.8948
 2785TIP3    H229771   2.485   2.179   6.016  3.6620 -0.1748 -0.4089
 2786TIP3   OH229772   4.962   4.558   1.964  0.6713  0.0624  0.4562
 2786TIP3    H129773   5.018   4.591   1.894 -0.0222  1.7929  0.6663
 2786TIP3    H229774   5.013   4.490   2.006  0.6531 -1.8138 -2.4259
 2787TIP3   OH229775   4.374   5.079   5.342  0.0303 -0.1749 -0.4345
 2787TIP3    H129776   4.283   5.065   5.366  0.0175  0.6323  0.0024
 2787TIP3    H229777   4.400   5.157   5.391  0.7437  0.0176 -1.1090
 2788TIP3   OH229778   1.171   4.110   4.012  0.0408 -0.5269  0.7961
 2788TIP3    H129779   1.195   4.028   3.968 -0.1838 -0.8712  1.3187
 2788TIP3    H229780   1.249   4.133   4.063  0.4844  0.1347 -0.1612
 2789TIP3   OH229781   4.728   3.164   1.058 -0.3345 -0.3739 -0.5462
 2789TIP3    H129782   4.818   3.189   1.079 -1.2127  1.3554  1.3685
 2789TIP3    H229783   4.729   3.068   1.060  1.2364 -0.3618  0.5346
 2790TIP3   OH229784   5.347   2.256   1.931  0.4827 -0.3550  0.2857
 2790TIP3    H129785   5.330   2.192   1.862  0.6218  0.7688 -0.8028
 2790TIP3    H229786   5.283   2.236   1.999 -0.1645 -0.9713 -0.5060
 2791TIP3   OH229787   4.512   1.380  15.075  0.2298 -0.5455 -0.2213
 2791TIP3    H129788   4.443   1.393  15.140 -1.4570 -0.4970 -1.9728
 2791TIP3    H229789   4.524   1.466  15.035 -0.2854 -1.0371 -1.4613
 2792TIP3   OH229790   1.538   3.679  16.881 -0.6539 -0.0769 -0.4217
 2792TIP3    H129791   1.561   3.716  16.966 -1.5369 -0.8839  0.1847
 2792TIP3    H229792   1.500   3.593  16.902  2.9668 -2.1623 -1.8719
 2793TIP3   OH229793   5.298   1.099  10.969 -0.2098 -0.1922 -0.1650
 2793TIP3    H129794   5.387   1.132  10.985 -0.0317 -0.3908 -0.7079
 2793TIP3    H229795   5.240   1.162  11.011  0.2377 -0.7373  1.3027
 2794TIP3   OH229796   5.762   4.420   0.870 -0.3152 -0.1429  0.2601
 2794TIP3    H129797   5.745   4.374   0.952 -1.7999 -0.8440 -0.4163
 2794TIP3    H229798   5.710   4.500   0.875  0.5752  0.4266  0.5243
 2795TIP3   OH229799   4.358   3.990   2.743 -0.4277 -0.2218  0.3367
 2795TIP3    H129800   4.398   3.938   2.812  1.8287 -1.0516 -1.5451
 2795TIP3    H229801   4.272   4.013   2.777 -0.0709 -2.1810  2.6492
 2796TIP3   OH229802   1.205   0.460   4.771  0.4354 -0.2499 -0.2245
 2796TIP3    H129803   1.136   0.459   4.838  1.5414  2.0421  0.9652
 2796TIP3    H229804   1.286   0.442   4.818  1.5744  3.7598 -0.4582
 2797TIP3   OH229805   1.931   0.019   0.860 -0.2566 -0.2376  0.6262
 2797TIP3    H129806   1.948  -0.043   0.789 -0.1041  0.0501  0.4126
 2797TIP3    H229807   1.839   0.043   0.849 -0.1991 -0.0980  0.4516
 2798TIP3   OH229808   1.278   1.345   2.909  0.2986  0.0524 -0.6973
 2798TIP3    H129809   1.230   1.423   2.881  0.5996 -0.0066 -1.4004
 2798TIP3    H229810   1.326   1.374   2.987 -0.4148  0.2715 -0.3398
 2799TIP3   OH229811   0.078   0.690  14.796 -0.2427  0.1249  0.6162
 2799TIP3    H129812   0.102   0.599  14.813  0.2349 -0.0687 -0.9776
 2799TIP3    H229813   0.012   0.711  14.863 -1.5296 -1.8994  0.0368
 2800TIP3   OH229814   1.534   3.920  11.735  0.1118  0.1186  0.3885
 2800TIP3    H129815   1.515   3.860  11.807 -3.1538  0.0067 -0.4819
 2800TIP3    H229816   1.502   3.874  11.657 -0.9139  2.2387 -0.4934
 2801TIP3   OH229817   3.807   2.595   5.573 -0.2331 -1.0799  0.1632
 2801TIP3    H129818   3.898   2.577   5.550 -0.8037 -0.8003 -2.5002
 2801TIP3    H229819   3.761   2.512   5.561 -0.6376 -0.8009 -0.2891
 2802TIP3   OH229820   6.134   0.979  17.186 -0.2398 -0.1736 -0.6468
 2802TIP3    H129821   6.075   1.024  17.247 -1.0092 -1.6782 -0.2677
 2802TIP3    H229822   6.222   1.005  17.215 -0.5628 -1.2277  1.4208
 2803TIP3   OH229823   6.245   4.456  16.788  0.2995 -0.7364 -0.2155
 2803TIP3    H129824   6.209   4.368  16.802  0.5409 -0.9384 -0.8196
 2803TIP3    H229825   6.170   4.508  16.759 -0.3194 -0.1796  2.2571
 2804TIP3   OH229826   3.806   2.912  14.699 -0.3499  0.1291 -0.5013
 2804TIP3    H129827   3.725   2.950  14.666 -1.1867 -1.5964 -0.4488
 2804TIP3    H229828   3.781   2.868  14.780  0.9256  0.8278  0.2979
 2805TIP3   OH229829   5.320   5.993  14.733 -0.0597  0.3347  0.6936
 2805TIP3    H129830   5.307   6.058  14.803  0.3331  1.2826 -0.0929
 2805TIP3    H229831   5.402   6.021  14.690 -0.7766  0.3079 -0.7150
 2806TIP3   OH229832   2.077   6.653  12.233 -0.2241 -0.1015  0.7061
 2806TIP3    H129833   2.133   6.692  12.300 -0.1652  0.2218  0.4681
 2806TIP3    H229834   2.021   6.725  12.204 -0.0222 -0.1568  0.1694
 2807TIP3   OH229835   1.305   0.895   1.023  0.0062 -0.9356  0.3117
 2807TIP3    H129836   1.373   0.829   1.032 -0.0128 -0.7662  1.8200
 2807TIP3    H229837   1.277   0.914   1.113  0.5036  1.6146 -0.0332
 2808TIP3   OH229838   1.822   3.908  16.058 -0.1493  0.3216 -0.1216
 2808TIP3    H129839   1.911   3.941  16.050 -0.7833  2.3861  1.0702
 2808TIP3    H229840   1.811   3.851  15.981  2.2838 -0.2535 -0.0848
 2809TIP3   OH229841   0.137   2.690   2.619  0.3665 -0.2927  0.7924
 2809TIP3    H129842   0.065   2.726   2.671  1.0917 -0.1095  1.6798
 2809TIP3    H229843   0.190   2.767   2.596 -1.1201 -0.0414 -2.1161
 2810TIP3   OH229844   3.375   3.135  16.898 -1.2395  0.6519  0.1660
 2810TIP3    H129845   3.355   3.067  16.834 -1.6366  0.0718  0.9054
 2810TIP3    H229846   3.293   3.149  16.946 -0.5847  0.1182  1.4592
 2811TIP3   OH229847   0.354   1.122   4.478  0.6439 -0.2830  0.1695
 2811TIP3    H129848   0.372   1.216   4.471  2.9181 -0.6588  0.6281
 2811TIP3    H229849   0.273   1.117   4.529  1.0609  1.3869  1.0472
 2812TIP3   OH229850   1.473   5.774  13.587 -0.3522  0.1065  0.3940
 2812TIP3    H129851   1.553   5.757  13.537 -1.1742 -1.1983 -0.5062
 2812TIP3    H229852   1.494   5.748  13.676  0.3122  0.0253  0.2203
 2813TIP3   OH229853   5.671   4.023   1.115 -0.0817  0.1615  0.1196
 2813TIP3    H129854   5.681   3.976   1.032 -1.9565 -0.8945  0.4500
 2813TIP3    H229855   5.728   4.099   1.107  0.2977 -0.2976 -1.8569
 2814TIP3   OH229856   4.476   5.579   4.299  0.1281  0.1759 -0.3622
 2814TIP3    H129857   4.432   5.501   4.266 -1.1993  0.5328  0.4988
 2814TIP3    H229858   4.411   5.649   4.287  0.5577  0.7663  0.6965
 2815TIP3   OH229859   2.523   2.178   3.788  0.3340 -0.1608  0.7816
 2815TIP3    H129860   2.512   2.249   3.724 -0.8265 -0.5693  0.5123
 2815TIP3    H229861   2.538   2.100   3.735  1.8700 -0.0920  1.0878
 2816TIP3   OH229862   5.162   4.908  15.098  0.0365 -0.8570 -0.4953
 2816TIP3    H129863   5.215   4.829  15.112  0.3404 -0.6874 -0.6959
 2816TIP3    H229864   5.072   4.875  15.094 -0.1413 -0.8740  2.3035
 2817TIP3   OH229865   4.075   5.573  14.954  0.0718 -0.1296  0.2026
 2817TIP3    H129866   4.110   5.589  14.866  1.2498  0.3219  0.7528
 2817TIP3    H229867   4.028   5.654  14.975  0.8391  0.2373  0.4963
 2818TIP3   OH229868   2.521   1.180  11.546  0.0885  0.5888 -0.1229
 2818TIP3    H129869   2.461   1.235  11.595  0.8861  1.2145  0.1740
 2818TIP3    H229870   2.466   1.115  11.503 -0.7967  1.2101  0.0735
 2819TIP3   OH229871   1.201   1.960  11.442  0.5239 -0.7183  0.1467
 2819TIP3    H129872   1.233   1.870  11.434 -2.2306 -1.7658  0.3503
 2819TIP3    H229873   1.208   1.995  11.353  0.0564 -1.6907 -0.2779
 2820TIP3   OH229874   0.863   1.331   3.181  0.2487 -0.2781 -0.4069
 2820TIP3    H129875   0.959   1.336   3.173  0.3145 -1.0414 -0.1331
 2820TIP3    H229876   0.831   1.352   3.093  0.6479  0.5650 -0.3558
 2821TIP3   OH229877   3.146   3.695  15.062 -0.3960  0.1202 -0.2307
 2821TIP3    H129878   3.192   3.615  15.036 -2.4156 -0.9966 -0.4160
 2821TIP3    H229879   3.058   3.666  15.085 -0.2995  1.8681  2.6240
 2822TIP3   OH229880   4.631   3.914  11.838  0.1258 -0.3232 -0.2261
 2822TIP3    H129881   4.721   3.925  11.808  0.0740  1.2015  0.1207
 2822TIP3    H229882   4.578   3.960  11.772 -0.5850 -2.8684 -1.4936
 2823TIP3   OH229883   0.574   3.204  12.933  0.0909 -0.6053  0.1752
 2823TIP3    H129884   0.611   3.149  12.864 -2.2708  0.5723 -2.1296
 2823TIP3    H229885   0.516   3.146  12.983 -0.2463 -0.8648 -0.5095
 2824TIP3   OH229886   4.369   0.981  14.585 -0.1717  0.6651  0.0205
 2824TIP3    H129887   4.427   0.905  14.595 -1.7907 -0.6359 -0.2378
 2824TIP3    H229888   4.316   0.981  14.665 -0.7443  1.0263 -0.3568
 2825TIP3   OH229889   0.088   4.757   1.633  0.0473 -0.1597  0.4498
 2825TIP3    H129890   0.064   4.791   1.546 -0.5116 -1.7420 -0.0346
 2825TIP3    H229891   0.181   4.738   1.627 -0.1748 -1.1071 -0.1065
 2826TIP3   OH229892   1.659   2.457  12.412  0.0116  0.3739 -1.0098
 2826TIP3    H129893   1.580   2.420  12.452  0.0097  0.5945 -0.8094
 2826TIP3    H229894   1.650   2.552  12.424  0.9336  0.3168  0.1789
 2827TIP3   OH229895   5.978   0.528  14.301  0.1326 -0.2109  0.1491
 2827TIP3    H129896   5.912   0.521  14.370 -1.1005 -1.0803 -1.0760
 2827TIP3    H229897   6.024   0.445  14.303  0.0297 -0.2759 -0.1297
 2828TIP3   OH229898   5.741   5.877   3.143  0.0595  0.0586  0.2344
 2828TIP3    H129899   5.690   5.887   3.223 -0.7753  0.9000 -0.3936
 2828TIP3    H229900   5.701   5.802   3.099 -1.7215  1.6958 -1.0335
 2829TIP3   OH229901   2.538   0.734  13.574  0.2561 -0.8170  0.0653
 2829TIP3    H129902   2.517   0.819  13.613 -0.9377 -1.0234 -0.1096
 2829TIP3    H229903   2.498   0.670  13.633  1.4644 -1.2866  0.4032
 2830TIP3   OH229904   6.109   0.475   0.033  0.0933 -0.2013  0.0429
 2830TIP3    H129905   6.030   0.466  -0.021  0.1882 -0.9755  0.0310
 2830TIP3    H229906   6.107   0.399   0.091  1.7834 -1.2188 -1.1935
 2831TIP3   OH229907   4.161   5.956   1.062  0.6836  0.1257  0.1879
 2831TIP3    H129908   4.241   5.978   1.015  0.9706 -0.1009  0.5677
 2831TIP3    H229909   4.104   5.917   0.996  0.1564  2.0129 -0.5142
 2832TIP3   OH229910   3.142   2.694  17.144 -0.3369 -0.2644  0.2116
 2832TIP3    H129911   3.158   2.780  17.106  0.0538 -0.3797  0.1140
 2832TIP3    H229912   3.178   2.700  17.232 -1.2201 -0.0042  0.5665
 2833TIP3   OH229913   2.725   2.850   2.329 -0.2666  0.3582 -0.3471
 2833TIP3    H129914   2.759   2.880   2.245  0.5097 -0.1235 -0.2059
 2833TIP3    H229915   2.802   2.822   2.378 -0.8316 -0.5542  0.0473
 2834TIP3   OH229916   3.331   3.153  12.061 -0.5054  0.3757  0.1555
 2834TIP3    H129917   3.309   3.218  12.127 -0.6926 -0.3465  0.8168
 2834TIP3    H229918   3.378   3.201  11.994  0.9371  0.8651  1.4913
 2835TIP3   OH229919   4.563   1.145  15.619 -0.3031 -0.4193 -0.2151
 2835TIP3    H129920   4.635   1.083  15.607  0.2096  0.0964  0.1841
 2835TIP3    H229921   4.530   1.126  15.707  0.7863  0.8381  0.4748
 2836TIP3   OH229922   2.846   1.093   3.747 -0.6053  0.8124  0.5604
 2836TIP3    H129923   2.920   1.064   3.694 -1.7669  0.4499 -0.8839
 2836TIP3    H229924   2.870   1.069   3.837  0.5902 -0.1724 -0.0162
 2837TIP3   OH229925   5.584   1.877   3.371  0.2659  0.1804  0.1618
 2837TIP3    H129926   5.626   1.800   3.331 -1.1023 -0.8484  0.6718
 2837TIP3    H229927   5.656   1.938   3.385  1.1092 -0.2419 -1.9992
 2838TIP3   OH229928   2.865   0.319  13.426 -0.2229  0.0567 -0.1234
 2838TIP3    H129929   2.778   0.358  13.414 -0.0568  0.3082 -0.4967
 2838TIP3    H229930   2.880   0.267  13.348 -0.4401 -0.7647  0.3720
 2839TIP3   OH229931   6.423   6.514  14.431  0.5402 -0.0656  0.6296
 2839TIP3    H129932   6.432   6.599  14.388 -1.4199 -0.7585 -1.2158
 2839TIP3    H229933   6.403   6.536  14.522  0.0947  1.4591  0.1785
 2840TIP3   OH229934   4.509   5.345  13.553 -0.1131 -0.0570  0.2547
 2840TIP3    H129935   4.591   5.321  13.511  0.0215  0.5702  0.1666
 2840TIP3    H229936   4.463   5.399  13.489 -1.1023 -1.3322 -0.1529
 2841TIP3   OH229937   5.662   2.584  14.458  0.3360  0.3569 -0.5100
 2841TIP3    H129938   5.670   2.641  14.381  0.1236 -0.2022 -0.9452
 2841TIP3    H229939   5.589   2.526  14.437  0.2440  0.2374  0.1404
 2842TIP3   OH229940   6.015   1.497  16.310  0.5951 -0.0488  0.0687
 2842TIP3    H129941   5.955   1.567  16.336  0.2216  0.2898 -1.6332
 2842TIP3    H229942   5.958   1.425  16.284  0.9794 -0.9876  1.7634
 2843TIP3   OH229943   5.489   0.006   4.080 -0.1447 -0.4935  0.1541
 2843TIP3    H129944   5.540  -0.014   4.002 -1.0299  0.6474 -0.7252
 2843TIP3    H229945   5.467   0.099   4.072 -2.7043 -1.0475  0.3280
 2844TIP3   OH229946   4.538   1.883  16.038 -0.0232  0.4465 -0.5418
 2844TIP3    H129947   4.593   1.898  16.115 -0.3619  0.8917 -0.3904
 2844TIP3    H229948   4.530   1.787  16.034  0.5093  0.3927 -0.3889
 2845TIP3   OH229949   4.438   2.243   3.001 -0.0698 -0.2381  0.6739
 2845TIP3    H129950   4.503   2.241   2.930 -0.0322  5.1525  0.2914
 2845TIP3    H229951   4.490   2.260   3.080 -0.7823  2.7654  0.5595
 2846TIP3   OH229952   2.244   0.870  14.034 -0.4636  0.2051 -0.4825
 2846TIP3    H129953   2.283   0.912  14.111 -1.2208  1.2104 -0.6349
 2846TIP3    H229954   2.306   0.802  14.010 -0.2414 -0.1558  1.0470
 2847TIP3   OH229955   0.069   0.675   1.517 -0.0718  0.1321  0.4116
 2847TIP3    H129956   0.165   0.665   1.511 -0.1869 -1.1429  0.4059
 2847TIP3    H229957   0.038   0.588   1.542 -1.3039  0.3011 -0.4688
 2848TIP3   OH229958   3.029   1.621   6.972  0.1993  0.3137  0.1555
 2848TIP3    H129959   3.081   1.541   6.983 -1.1281 -0.5902  0.0123
 2848TIP3    H229960   3.041   1.644   6.880 -0.9099 -0.8068 -0.2889
 2849TIP3   OH229961   5.656   6.365  12.323 -0.1665 -0.3122 -0.8776
 2849TIP3    H129962   5.707   6.443  12.345 -2.8687  0.7492  2.0906
 2849TIP3    H229963   5.675   6.303  12.394 -0.9100 -0.9185 -1.1948
 2850TIP3   OH229964   0.539   4.452  17.172 -0.1859  0.1481 -0.4549
 2850TIP3    H129965   0.496   4.456  17.258  2.1706  0.0646  0.7731
 2850TIP3    H229966   0.550   4.543  17.146 -0.6265  0.1843 -0.5066
 2851TIP3   OH229967   3.115   1.045  12.312 -0.5484  0.3971  0.5281
 2851TIP3    H129968   3.089   0.955  12.291  0.6698  0.3661 -0.9722
 2851TIP3    H229969   3.081   1.097  12.239  1.3302  0.7115 -0.1506
 2852TIP3   OH229970   6.280   0.709  13.794 -0.0234 -0.4662 -0.2582
 2852TIP3    H129971   6.315   0.762  13.865 -1.4730 -0.0667  0.1775
 2852TIP3    H229972   6.236   0.636  13.838 -0.7188 -0.3446 -0.7420
 2853TIP3   OH229973   1.576   5.750   0.961  0.3777  0.4830  0.4132
 2853TIP3    H129974   1.554   5.701   1.039  0.4360  0.5527  0.4742
 2853TIP3    H229975   1.670   5.769   0.970  0.2062  1.1944  0.7219
 2854TIP3   OH229976   6.487   2.545  16.615  0.0991 -0.3181  0.4020
 2854TIP3    H129977   6.550   2.501  16.558  0.4660  0.5701  0.1118
 2854TIP3    H229978   6.531   2.552  16.700  0.2843  0.0322  0.2808
 2855TIP3   OH229979   6.592   5.557  14.017 -0.3222 -0.4119 -0.3245
 2855TIP3    H129980   6.602   5.514  14.103  2.4637 -2.7448 -1.7181
 2855TIP3    H229981   6.673   5.606  14.006 -0.3404 -0.7164 -1.9119
 2856TIP3   OH229982   2.559   6.255   0.802  0.4880 -0.1869 -0.2832
 2856TIP3    H129983   2.571   6.288   0.713  0.7327 -0.2524 -0.2741
 2856TIP3    H229984   2.464   6.245   0.812  0.2872  2.0241  0.2438
 2857TIP3   OH229985   5.522   0.209  14.905  0.4892 -0.8295  0.3389
 2857TIP3    H129986   5.615   0.210  14.883  0.3227  0.9707 -0.3618
 2857TIP3    H229987   5.481   0.163  14.832  0.6961 -0.6175  0.0899
 2858TIP3   OH229988   5.110   2.799  11.356  0.3839 -0.3136 -0.1430
 2858TIP3    H129989   5.044   2.749  11.308 -0.6876  1.7137 -0.8464
 2858TIP3    H229990   5.193   2.754  11.339 -0.8288 -3.1253  1.0702
 2859TIP3   OH229991   2.740   5.683   3.293  0.0463 -0.3177 -0.1029
 2859TIP3    H129992   2.654   5.688   3.253 -0.0948  0.9944  0.3349
 2859TIP3    H229993   2.733   5.736   3.372  0.2912 -2.9556  1.7579
 2860TIP3   OH229994   4.031   2.385  14.012 -0.7674  0.5593  0.6337
 2860TIP3    H129995   4.115   2.356  13.976 -0.8995 -0.6732  1.3121
 2860TIP3    H229996   4.019   2.473  13.976 -0.0720  0.0258 -0.9503
 2861TIP3   OH229997   0.769   3.936  11.717 -0.6619  0.1049  0.7053
 2861TIP3    H129998   0.824   3.881  11.662  0.0818 -1.1005  2.6085
 2861TIP3    H229999   0.708   3.978  11.656  1.1891  0.0770 -1.2080
 2862TIP3   OH230000   2.019   0.448  16.732  0.0127  0.1319  0.1039
 2862TIP3    H130001   1.983   0.529  16.697  1.4644  0.3387 -0.9701
 2862TIP3    H230002   1.978   0.378  16.682 -0.7806  0.2346  0.6134
 2863TIP3   OH230003   4.378   3.665  14.978  0.3554  0.5978  0.4129
 2863TIP3    H130004   4.438   3.729  14.939 -0.0162  1.7754  1.7251
 2863TIP3    H230005   4.293   3.709  14.975 -0.8164 -1.7377 -3.0376
 2864TIP3   OH230006   1.929   0.102  12.191 -0.2706 -0.2193  0.0892
 2864TIP3    H130007   1.997   0.165  12.169  0.3467 -1.2779 -1.1466
 2864TIP3    H230008   1.894   0.074  12.107 -0.7281 -1.3038  0.6242
 2865TIP3   OH230009   1.891   6.454   5.019  0.1481 -0.0027 -0.1621
 2865TIP3    H130010   1.983   6.428   5.028  0.1193 -0.3461 -0.8150
 2865TIP3    H230011   1.859   6.402   4.946 -1.0323 -1.1522  1.1276
 2866TIP3   OH230012   5.559   5.820  11.808  0.0338 -0.2808 -0.1165
 2866TIP3    H130013   5.467   5.795  11.794 -0.2481  1.1276 -0.8864
 2866TIP3    H230014   5.606   5.785  11.733 -0.0544 -0.1070 -0.2540
 2867TIP3   OH230015   3.951   3.616   1.879  0.6927 -0.3918 -0.2735
 2867TIP3    H130016   3.895   3.595   1.804 -0.2463 -0.9284  0.5531
 2867TIP3    H230017   3.890   3.620   1.953  1.0646  3.6130 -0.0943
 2868TIP3   OH230018   4.464   3.634   3.256 -0.2415 -0.3960  0.0265
 2868TIP3    H130019   4.440   3.616   3.165 -0.8362  1.0393 -0.1219
 2868TIP3    H230020   4.559   3.636   3.256 -0.2384 -0.5202 -0.5412
 2869TIP3   OH230021   0.208   2.894  10.984  0.5754  0.0992 -0.8175
 2869TIP3    H130022   0.151   2.947  10.928  0.8477  0.0840 -1.1059
 2869TIP3    H230023   0.284   2.874  10.930  1.7987  1.8066  0.2127
 2870TIP3   OH230024   2.505   5.526  16.344  0.3672 -0.0902 -0.6625
 2870TIP3    H130025   2.529   5.557  16.256  1.7946 -1.3171 -0.7341
 2870TIP3    H230026   2.410   5.530  16.345  0.3884  1.3032 -1.7606
 2871TIP3   OH230027   2.633   1.111   1.198  0.2387 -0.6816  0.2023
 2871TIP3    H130028   2.680   1.037   1.236 -1.6184 -1.9652  0.0499
 2871TIP3    H230029   2.667   1.188   1.245  2.2677 -1.6049  0.2642
 2872TIP3   OH230030   3.106   4.266  13.195 -0.4542  0.2596  0.0645
 2872TIP3    H130031   3.168   4.211  13.148 -0.3993  0.8880 -0.6139
 2872TIP3    H230032   3.122   4.248  13.287  0.5875  0.2564 -0.1125
 2873TIP3   OH230033   5.031   1.240   0.206  0.7911 -0.2622  0.1584
 2873TIP3    H130034   5.102   1.197   0.254  1.4789 -1.2569 -1.6716
 2873TIP3    H230035   4.953   1.190   0.228  0.4279  1.4664  2.9997
 2874TIP3   OH230036   5.950   4.698   0.250 -0.6735 -0.4305  0.0336
 2874TIP3    H130037   6.036   4.736   0.268 -0.2332 -2.0920  1.6005
 2874TIP3    H230038   5.902   4.768   0.206  0.6774  1.3734  1.3224
 2875TIP3   OH230039   6.339   5.042  14.566 -0.2607 -0.8788  0.4177
 2875TIP3    H130040   6.427   5.078  14.583  0.1465 -0.7340 -1.8308
 2875TIP3    H230041   6.280   5.113  14.592  0.4525  0.5004 -1.5795
 2876TIP3   OH230042   6.340   4.936   1.900  0.0902 -0.7229 -0.2314
 2876TIP3    H130043   6.335   4.877   1.974  2.4237 -1.8481 -0.9120
 2876TIP3    H230044   6.358   4.880   1.825 -0.1353  0.6053 -1.3146
 2877TIP3   OH230045   4.979   5.580  15.531 -0.6414 -0.0232 -0.2148
 2877TIP3    H130046   5.041   5.591  15.603 -0.0042 -3.1875 -0.1912
 2877TIP3    H230047   5.032   5.549  15.458 -1.6329  1.0002 -1.4032
 2878TIP3   OH230048   5.590   2.894  12.901 -0.7484 -0.0290 -0.6330
 2878TIP3    H130049   5.580   2.940  12.818 -0.3139 -1.4962 -1.5318
 2878TIP3    H230050   5.672   2.846  12.891  0.0289  0.9022  1.2036
 2879TIP3   OH230051   1.259   2.350   0.396  0.2608 -0.4167 -0.0931
 2879TIP3    H130052   1.300   2.392   0.320  0.5315 -0.3478  0.0884
 2879TIP3    H230053   1.263   2.256   0.377  0.3405 -0.4003 -0.1579
 2880TIP3   OH230054   1.890   0.648   4.418 -0.3040  0.0964 -0.1907
 2880TIP3    H130055   1.851   0.652   4.330  1.1604 -0.8965 -0.9155
 2880TIP3    H230056   1.840   0.581   4.463  0.6544 -1.3207 -1.1872
 2881TIP3   OH230057   2.051   6.341   6.614  0.8015  0.2196  0.3548
 2881TIP3    H130058   2.008   6.276   6.558  2.2609 -0.0700 -0.4362
 2881TIP3    H230059   2.100   6.289   6.678  1.3213  0.5490  0.2251
 2882TIP3   OH230060   5.747   2.911   5.372  0.0097 -0.0078 -0.8729
 2882TIP3    H130061   5.688   2.958   5.431 -0.8698 -0.1012 -1.6542
 2882TIP3    H230062   5.755   2.969   5.296  0.0110 -0.5066 -1.2551
 2883TIP3   OH230063   2.014   4.913   0.588  0.5859  0.3296  0.1925
 2883TIP3    H130064   2.016   4.827   0.547 -0.0859  0.4519 -0.1034
 2883TIP3    H230065   2.035   4.896   0.680 -1.0315 -0.3414  0.4556
 2884TIP3   OH230066   1.401   1.623  16.311 -0.3995 -0.3879  0.3528
 2884TIP3    H130067   1.357   1.578  16.383 -2.2461 -0.4362 -0.7700
 2884TIP3    H230068   1.451   1.554  16.267 -1.6384 -0.9592 -0.1801
 2885TIP3   OH230069   6.086   1.626   0.649  0.3680 -0.3348 -0.2962
 2885TIP3    H130070   6.041   1.549   0.684 -0.3659  0.9197  1.6439
 2885TIP3    H230071   6.048   1.639   0.562 -3.4848  0.9554  1.4465
 2886TIP3   OH230072   5.492   1.596  13.054  0.5255  0.0140 -0.1159
 2886TIP3    H130073   5.587   1.589  13.048  0.5707 -0.3860  0.9924
 2886TIP3    H230074   5.474   1.688  13.036  1.2501  0.4215  1.1944
 2887TIP3   OH230075   1.800   0.939   5.001 -0.0841 -0.2459 -0.1380
 2887TIP3    H130076   1.801   0.930   4.906  0.7882  0.0627 -0.1629
 2887TIP3    H230077   1.827   0.853   5.034  2.1622  0.3893 -0.2381
 2888TIP3   OH230078   5.168   1.273   3.715  0.5562  0.3586 -0.0342
 2888TIP3    H130079   5.101   1.215   3.678  0.8855  0.3372 -0.6045
 2888TIP3    H230080   5.236   1.276   3.648  0.5955  1.3115  0.0481
 2889TIP3   OH230081   6.490   0.955  15.878  0.0538  0.4502  0.2979
 2889TIP3    H130082   6.466   0.905  15.800 -0.3566  0.2896  0.5250
 2889TIP3    H230083   6.527   0.890  15.938  1.6620  0.8054 -0.2983
 2890TIP3   OH230084   1.870   6.503  11.968  0.4630  0.0115 -0.1393
 2890TIP3    H130085   1.869   6.451  11.888  0.0165 -1.6939  0.9510
 2890TIP3    H230086   1.793   6.474  12.016  0.9175  0.7816  1.0642
 2891TIP3   OH230087   3.338   6.210   0.531  0.2602 -0.3557 -0.4722
 2891TIP3    H130088   3.355   6.302   0.509  0.6759  0.0606  1.5389
 2891TIP3    H230089   3.245   6.198   0.515  0.4533  0.0583 -1.9694
 2892TIP3   OH230090   4.226   2.340   0.680 -0.1555  0.4668 -0.0367
 2892TIP3    H130091   4.266   2.412   0.728  0.3329  1.3558 -1.7484
 2892TIP3    H230092   4.300   2.283   0.658 -0.4753 -0.3146  0.8868
 2893TIP3   OH230093   4.348   0.602  13.841  0.0687  0.2743 -0.1858
 2893TIP3    H130094   4.388   0.521  13.872 -1.5286  0.1285  1.5692
 2893TIP3    H230095   4.355   0.662  13.916 -1.0549  0.9341 -0.5936
 2894TIP3   OH230096   3.090   5.886  14.959  0.2183 -0.2142  0.1272
 2894TIP3    H130097   3.156   5.887  15.028  0.5098  1.3695 -0.1650
 2894TIP3    H230098   3.071   5.978  14.942 -1.3311 -0.6271 -0.5061
 2895TIP3   OH230099   3.261   2.215   3.510  0.2902 -0.4960 -0.2407
 2895TIP3    H130100   3.227   2.155   3.443 -1.5446  0.3290 -0.0804
 2895TIP3    H230101   3.232   2.176   3.592 -0.2446  0.1993 -0.0988
 2896TIP3   OH230102   0.925   4.827   6.515 -0.4180  0.7800 -0.3836
 2896TIP3    H130103   0.984   4.850   6.443 -0.7912  1.8446 -0.3636
 2896TIP3    H230104   0.981   4.822   6.592  0.0052 -0.4817 -0.7627
 2897TIP3   OH230105   4.008   4.620  13.620 -0.3069  0.2937  0.1692
 2897TIP3    H130106   4.027   4.696  13.565 -1.3776 -0.5151 -1.3511
 2897TIP3    H230107   3.984   4.551  13.559 -2.2387 -0.4297  1.6735
 2898TIP3   OH230108   5.763   6.596   0.981  0.2069  0.7122  0.5105
 2898TIP3    H130109   5.724   6.645   1.053  1.4345  3.0688 -0.3855
 2898TIP3    H230110   5.844   6.561   1.018  2.1829  4.1172 -0.3720
 2899TIP3   OH230111   0.071   0.870  15.868  0.0145 -0.4690 -0.0811
 2899TIP3    H130112   0.003   0.901  15.928 -1.0100 -0.4978 -1.1995
 2899TIP3    H230113   0.125   0.948  15.851 -1.5361  0.3127 -1.5451
 2900TIP3   OH230114   4.242   3.082  12.461 -0.1319 -0.0250 -0.0921
 2900TIP3    H130115   4.325   3.078  12.509  0.0827  1.8295 -0.2782
 2900TIP3    H230116   4.176   3.054  12.525  0.4429 -0.0233  0.5059
 2901TIP3   OH230117   5.152   2.323  11.393 -0.3925  0.3469  0.2838
 2901TIP3    H130118   5.237   2.339  11.352 -1.0249  0.1597 -1.1302
 2901TIP3    H230119   5.138   2.399  11.450  0.5366  0.5752  0.2185
 2902TIP3   OH230120   2.943   5.108   0.748 -0.0234 -0.2405  0.3124
 2902TIP3    H130121   2.888   5.152   0.682 -0.4644 -2.6144 -0.9601
 2902TIP3    H230122   3.013   5.170   0.766 -0.9915  1.2606 -0.9411
 2903TIP3   OH230123   3.781   6.363   6.362  0.1864  0.6531 -0.1536
 2903TIP3    H130124   3.725   6.296   6.401 -1.4645  2.0919  0.0269
 2903TIP3    H230125   3.869   6.326   6.365 -0.6520 -1.3731  0.2003
 2904TIP3   OH230126   3.257   1.537   6.012 -0.1380  0.1392  0.4190
 2904TIP3    H130127   3.185   1.570   6.065  0.1525  1.0351  0.2607
 2904TIP3    H230128   3.216   1.513   5.928 -0.1587  1.2666  0.0890
 2905TIP3   OH230129   1.185   3.548  14.313  0.1948  0.2565 -0.1558
 2905TIP3    H130130   1.126   3.558  14.239  1.1828  0.6698 -0.8924
 2905TIP3    H230131   1.260   3.604  14.293  0.8154 -0.2069  0.7941
 2906TIP3   OH230132   5.302   1.060   3.881  0.2760 -0.0091 -0.3314
 2906TIP3    H130133   5.249   1.136   3.855  1.9520  2.0725  2.0263
 2906TIP3    H230134   5.253   1.021   3.954  0.1508 -0.3338 -0.5864
 2907TIP3   OH230135   4.670   1.894   2.256 -0.1483  0.1009  0.5728
 2907TIP3    H130136   4.626   1.809   2.257  0.6648 -0.3331 -0.2929
 2907TIP3    H230137   4.598   1.957   2.261 -0.9315 -0.5867 -1.2995
 2908TIP3   OH230138   5.564   1.988  12.687 -0.1756  0.1650  0.9794
 2908TIP3    H130139   5.484   1.942  12.661  1.5311 -2.5304  0.3831
 2908TIP3    H230140   5.597   2.027  12.606 -0.1890  0.2194  0.9996
 2909TIP3   OH230141   5.106   0.425   3.709 -0.5485 -0.2950 -0.4872
 2909TIP3    H130142   5.192   0.385   3.696 -0.1946  0.0104  0.8076
 2909TIP3    H230143   5.119   0.486   3.782 -1.8637 -0.2223 -0.3014
 2910TIP3   OH230144   6.364   0.996   3.876 -0.4768  0.0772  0.9259
 2910TIP3    H130145   6.443   0.953   3.844 -1.0407 -1.0509  1.0281
 2910TIP3    H230146   6.379   1.006   3.970  0.3155  1.5504  0.6646
 2911TIP3   OH230147   0.730   5.084   0.262 -0.2526 -0.1004 -0.0344
 2911TIP3    H130148   0.652   5.104   0.313 -0.8465  0.2650 -1.0586
 2911TIP3    H230149   0.746   4.990   0.277  0.3176  0.2744  1.7844
 2912TIP3   OH230150   3.211   0.565   5.450  0.5214  0.3429 -0.7914
 2912TIP3    H130151   3.118   0.585   5.448  0.1598 -0.8990  1.5478
 2912TIP3    H230152   3.246   0.604   5.370 -1.9578  0.9870 -1.6036
 2913TIP3   OH230153   1.736   4.251  16.952  0.1148 -0.3931  0.0102
 2913TIP3    H130154   1.763   4.310  17.022 -0.7154 -1.3550  1.1644
 2913TIP3    H230155   1.681   4.305  16.896  0.2291  0.2135  0.4660
 2914TIP3   OH230156   2.197   4.494   2.063 -0.3266  0.3270  0.0788
 2914TIP3    H130157   2.143   4.527   2.134 -2.3350 -0.5098 -1.0250
 2914TIP3    H230158   2.274   4.456   2.106 -0.9183  0.9607  1.7023
 2915TIP3   OH230159   2.218   4.609   6.385 -0.2785 -0.1512  0.2815
 2915TIP3    H130160   2.183   4.671   6.321  1.4173  1.2488  0.6787
 2915TIP3    H230161   2.156   4.613   6.458 -1.7609 -1.1308 -0.9028
 2916TIP3   OH230162   0.337   6.339  16.771  0.3933  0.1481 -0.2792
 2916TIP3    H130163   0.259   6.378  16.809  0.5933  1.4525 -1.1782
 2916TIP3    H230164   0.384   6.301  16.845 -2.0228 -2.3710  0.0275
 2917TIP3   OH230165   4.085   1.187   2.813 -0.1350 -0.7628  0.2392
 2917TIP3    H130166   4.125   1.121   2.870 -2.1717 -2.1052  0.1751
 2917TIP3    H230167   4.117   1.270   2.846  1.8711 -1.7479  0.8162
 2918TIP3   OH230168   5.836   5.209  15.888  0.4271 -0.0344  0.1489
 2918TIP3    H130169   5.780   5.187  15.962 -0.1150 -1.2820 -0.6195
 2918TIP3    H230170   5.916   5.159  15.902 -0.2524 -1.4627 -0.8523
 2919TIP3   OH230171   2.082   4.038  14.925 -0.0492 -0.6160  0.1571
 2919TIP3    H130172   2.137   4.010  14.852  2.1073  0.6715  1.2203
 2919TIP3    H230173   2.033   3.959  14.950  0.8232 -1.6242 -1.2716
 2920TIP3   OH230174   2.384   5.299   1.185  0.1770  0.0354 -0.0809
 2920TIP3    H130175   2.386   5.302   1.089 -1.3951  0.2124 -0.1206
 2920TIP3    H230176   2.420   5.214   1.207  1.8939  0.5596 -0.7719
 2921TIP3   OH230177   2.400   6.222  11.165  0.0249  0.6554  0.5550
 2921TIP3    H130178   2.430   6.302  11.123  0.9517  0.1811  0.2928
 2921TIP3    H230179   2.377   6.164  11.092 -0.2542  0.5344  0.7365
 2922TIP3   OH230180   3.703   6.129   3.405 -0.2209  0.0775  0.2977
 2922TIP3    H130181   3.762   6.163   3.472 -1.1535  0.8491  0.7261
 2922TIP3    H230182   3.619   6.170   3.423 -1.1725 -1.8435  0.3582
 2923TIP3   OH230183   2.045   1.110  14.770  0.1384  0.2636  0.0955
 2923TIP3    H130184   2.129   1.069  14.792  0.6342  0.9719 -0.4497
 2923TIP3    H230185   1.987   1.086  14.842 -0.3481 -3.6392 -1.4967
 2924TIP3   OH230186   4.088   0.235  14.380  0.0832 -0.6581  0.0574
 2924TIP3    H130187   4.101   0.258  14.288  0.0472 -1.4096 -0.1440
 2924TIP3    H230188   4.065   0.317  14.423  0.4554 -0.2413 -0.5389
 2925TIP3   OH230189   6.459   0.864  16.203 -0.1485 -0.0710  0.1118
 2925TIP3    H130190   6.365   0.873  16.213  0.1450  0.7055  2.2522
 2925TIP3    H230191   6.494   0.953  16.210  0.7810 -0.3795 -0.4019
 2926TIP3   OH230192   2.565   0.093   3.357  0.5144 -0.2470 -0.2863
 2926TIP3    H130193   2.631   0.088   3.288  1.7781 -1.0316  0.9730
 2926TIP3    H230194   2.614   0.115   3.436 -0.9013  0.4280  0.4192
 2927TIP3   OH230195   4.026   0.232  15.395  0.1711 -0.0066 -0.5098
 2927TIP3    H130196   3.993   0.187  15.472  0.5620 -0.0700 -0.3758
 2927TIP3    H230197   3.990   0.182  15.321 -2.1619  1.4564 -0.4182
 2928TIP3   OH230198   1.385   3.714  15.216  0.9201  0.2279 -0.0062
 2928TIP3    H130199   1.296   3.706  15.180  0.7037  1.6394  0.1872
 2928TIP3    H230200   1.385   3.656  15.293 -0.0745  0.7916  0.4311
 2929TIP3   OH230201   0.732   2.694   1.014  0.3019 -0.4859 -0.4287
 2929TIP3    H130202   0.773   2.781   1.018  2.0555 -1.2634 -1.0767
 2929TIP3    H230203   0.702   2.678   1.103 -0.0383  0.7900 -0.3018
 2930TIP3   OH230204   3.230   5.443   4.124 -0.3894 -0.1864  0.4112
 2930TIP3    H130205   3.230   5.479   4.035  0.1713  1.0526  0.9011
 2930TIP3    H230206   3.178   5.505   4.175 -1.3988 -1.3243  0.7952
 2931TIP3   OH230207   1.539   1.800   1.468 -0.4091  0.3490  0.3822
 2931TIP3    H130208   1.481   1.768   1.399 -0.9618 -0.0870  1.0508
 2931TIP3    H230209   1.518   1.747   1.545 -1.5551  2.5050  1.5907
 2932TIP3   OH230210   1.352   1.892   6.103 -0.5387  0.1590  0.0222
 2932TIP3    H130211   1.356   1.835   6.180 -2.4063 -1.4914 -1.0348
 2932TIP3    H230212   1.443   1.912   6.083 -0.0100  0.1809  2.3306
 2933TIP3   OH230213   4.982   2.421   5.423 -0.3727  0.6990 -0.6558
 2933TIP3    H130214   4.930   2.415   5.343 -0.7578  0.1803 -0.3728
 2933TIP3    H230215   4.960   2.507   5.459 -1.6196  0.1949 -0.1571
 2934TIP3   OH230216   2.954   3.775  13.261 -0.5171 -0.2333 -0.3629
 2934TIP3    H130217   2.994   3.753  13.177 -1.0756  1.6821 -1.1495
 2934TIP3    H230218   2.880   3.714  13.268  0.7317 -1.7797 -0.2749
 2935TIP3   OH230219   2.984   0.190   2.752 -0.2952  0.0054  0.2378
 2935TIP3    H130220   2.905   0.194   2.698  0.4682  0.1065 -0.8897
 2935TIP3    H230221   3.028   0.273   2.735  1.4302 -1.1999 -1.2666
 2936TIP3   OH230222   5.395   5.930   2.980  0.2783 -0.9443 -0.4121
 2936TIP3    H130223   5.313   5.907   2.936 -0.7757  0.4156  0.7766
 2936TIP3    H230224   5.444   5.979   2.915 -0.7255 -0.0377 -0.5112
 2937TIP3   OH230225   3.985   2.410  14.303  0.1729 -0.8336  0.1413
 2937TIP3    H130226   3.995   2.399  14.209  1.7806 -0.7287  0.2963
 2937TIP3    H230227   3.900   2.371  14.322  1.5439 -4.4729 -0.7416
 2938TIP3   OH230228   6.211   0.868  13.330 -0.5204 -1.0115 -0.1566
 2938TIP3    H130229   6.231   0.846  13.239  1.1010 -0.0353 -0.0606
 2938TIP3    H230230   6.240   0.792  13.380  0.6328 -0.6495 -0.2611
 2939TIP3   OH230231   3.734   1.893  16.354  0.1000  0.6558 -0.5608
 2939TIP3    H130232   3.643   1.862  16.358  0.3069  0.2701  1.4440
 2939TIP3    H230233   3.737   1.966  16.416  1.2963  0.3281 -0.2224
 2940TIP3   OH230234   5.251   1.040  12.091  0.4671 -0.0018 -0.0026
 2940TIP3    H130235   5.327   0.986  12.071  1.8205  2.0675 -0.5971
 2940TIP3    H230236   5.255   1.055  12.185  0.0433 -0.9679  0.1767
 2941TIP3   OH230237   0.274   2.472   3.863  0.0241  0.1586  0.4306
 2941TIP3    H130238   0.205   2.537   3.853 -0.7305 -0.9109 -1.5910
 2941TIP3    H230239   0.351   2.511   3.822 -0.2118  0.1204 -0.0532
 2942TIP3   OH230240   3.980   0.136  12.028 -0.6371  0.5151 -0.1246
 2942TIP3    H130241   4.003   0.156  11.937  0.6087 -0.8396 -0.1174
 2942TIP3    H230242   4.019   0.207  12.079  0.5248  0.1022 -0.4419
 2943TIP3   OH230243   5.371   3.246  14.206  0.6328  0.8434  0.6886
 2943TIP3    H130244   5.288   3.218  14.167  1.2839 -0.9946  0.5762
 2943TIP3    H230245   5.434   3.240  14.134  1.3302 -0.0570  1.3730
 2944TIP3   OH230246   4.024   1.313  15.691 -0.0061  0.4029  0.0362
 2944TIP3    H130247   4.114   1.285  15.705 -0.2017  0.6975  2.1952
 2944TIP3    H230248   3.971   1.247  15.736 -0.7392  1.3171  0.5379
 2945TIP3   OH230249   1.846   2.379   3.647  0.1422  0.0042 -0.1908
 2945TIP3    H130250   1.921   2.355   3.702 -0.7157 -0.0452  0.9923
 2945TIP3    H230251   1.803   2.295   3.627 -0.4320  0.1539  0.3839
 2946TIP3   OH230252   5.646   0.995   0.441 -0.1448 -0.1613 -0.0122
 2946TIP3    H130253   5.593   0.930   0.395 -0.5360 -0.6278  1.0888
 2946TIP3    H230254   5.736   0.970   0.423 -0.2533 -2.3431  2.1922
 2947TIP3   OH230255   5.115   6.225  11.159  0.8645  0.1006 -0.0103
 2947TIP3    H130256   5.169   6.146  11.167  2.4692  1.0286 -1.5904
 2947TIP3    H230257   5.128   6.272  11.242  1.5416 -0.2590  0.0895
 2948TIP3   OH230258   3.223   0.907  12.943  0.4943 -0.4145 -0.1434
 2948TIP3    H130259   3.314   0.888  12.921  0.9371  2.7400 -1.2296
 2948TIP3    H230260   3.219   0.898  13.038  1.7896 -1.1301 -0.1437
 2949TIP3   OH230261   1.922   2.174  11.066 -0.0498  0.7858  0.6993
 2949TIP3    H130262   1.884   2.257  11.095 -0.1267  0.2827  2.0719
 2949TIP3    H230263   1.896   2.111  11.134  1.1546 -0.0751  0.3755
 2950TIP3   OH230264   1.901   5.491  13.853  0.4149 -0.3629 -0.2103
 2950TIP3    H130265   1.932   5.433  13.922  0.6113 -1.5792 -1.3016
 2950TIP3    H230266   1.828   5.444  13.813 -0.1625  0.6507 -0.3743
 2951TIP3   OH230267   2.997   3.231  12.234 -0.0830  0.7577 -0.5751
 2951TIP3    H130268   3.061   3.276  12.289 -0.2455  0.0508  0.1955
 2951TIP3    H230269   2.912   3.261  12.267 -0.1945 -0.2201  0.0391
 2952TIP3   OH230270   1.684   1.048   3.610  0.1963  0.2389 -0.5374
 2952TIP3    H130271   1.679   1.131   3.657 -1.4469  0.6866 -1.4595
 2952TIP3    H230272   1.677   1.072   3.518  2.3885 -0.7027 -0.9723
 2953TIP3   OH230273   2.256   4.028   5.894 -0.0113  0.3527  0.8292
 2953TIP3    H130274   2.258   4.118   5.925  0.7831  0.4755  0.4242
 2953TIP3    H230275   2.204   3.981   5.960  0.6628  0.8470  1.7212
 2954TIP3   OH230276   3.541   3.254  11.909 -0.0086 -0.3403  0.8093
 2954TIP3    H130277   3.618   3.305  11.935 -1.3846  3.0149 -1.4243
 2954TIP3    H230278   3.565   3.217  11.824 -1.2307  1.6979 -0.4602
 2955TIP3   OH230279   5.370   1.325  15.639 -0.0930  0.1940 -0.2604
 2955TIP3    H130280   5.280   1.350  15.618 -0.4934  0.5084  1.7452
 2955TIP3    H230281   5.369   1.230  15.641 -0.4652  0.2065  0.1323
 2956TIP3   OH230282   1.683   3.256   5.894  0.6106 -0.6224  0.5456
 2956TIP3    H130283   1.660   3.239   5.986  1.1168 -1.2679  0.5523
 2956TIP3    H230284   1.608   3.304   5.859  1.0696  1.0243  1.7322
 2957TIP3   OH230285   3.241   0.590  15.839 -0.1830 -0.2288  0.5479
 2957TIP3    H130286   3.222   0.636  15.757 -1.8010 -0.9611  0.4847
 2957TIP3    H230287   3.287   0.655  15.893 -0.4151  0.7301 -0.3841
 2958TIP3   OH230288   3.744   3.135  11.542 -0.6002  0.1371 -0.3670
 2958TIP3    H130289   3.688   3.212  11.546  0.8729  1.2201 -0.3224
 2958TIP3    H230290   3.743   3.108  11.450  1.1835  1.9638 -0.9592
 2959TIP3   OH230291   5.152   3.229   3.114 -0.1065  0.3383  0.1635
 2959TIP3    H130292   5.215   3.237   3.043 -1.1050 -0.6155 -0.8416
 2959TIP3    H230293   5.194   3.171   3.177  0.2360  0.1260 -0.2586
 2960TIP3   OH230294   5.618   6.539   1.457  0.2816 -0.6555  1.1678
 2960TIP3    H130295   5.656   6.452   1.442  1.7263 -0.3195  2.7238
 2960TIP3    H230296   5.630   6.554   1.551 -1.3406  0.5975  1.1890
 2961TIP3   OH230297   4.751   2.017  15.377 -0.3407  0.1737 -0.1102
 2961TIP3    H130298   4.796   1.989  15.456 -1.3284 -1.6077 -0.1620
 2961TIP3    H230299   4.737   1.937  15.327 -1.1120  1.0683 -1.3625
 2962TIP3   OH230300   2.202   6.472   3.639  0.2194  0.2234  0.4758
 2962TIP3    H130301   2.224   6.564   3.650  1.1611 -0.2443  2.8999
 2962TIP3    H230302   2.190   6.440   3.728 -1.0995 -1.7636 -0.3871
 2963TIP3   OH230303   3.972   0.282   1.360  0.2202 -0.2614  0.2365
 2963TIP3    H130304   3.948   0.192   1.383 -1.9920  0.2703  0.1419
 2963TIP3    H230305   3.952   0.333   1.438 -0.0236  0.3806 -0.2385
 2964TIP3   OH230306   4.708   2.051   3.994 -0.1204  0.1345  0.0856
 2964TIP3    H130307   4.801   2.030   4.004  0.5785  3.4271  0.7782
 2964TIP3    H230308   4.667   2.016   4.073  1.1848  2.1829  1.7171
 2965TIP3   OH230309   4.487   5.616  12.623  0.4171  0.5253 -0.1703
 2965TIP3    H130310   4.430   5.669  12.678  0.3570  0.7870 -0.4866
 2965TIP3    H230311   4.568   5.666  12.617  0.9022 -0.1345  0.7826
 2966TIP3   OH230312   5.690   3.965   0.816 -0.1062  0.2416  0.1090
 2966TIP3    H130313   5.728   4.002   0.737 -2.2977  3.1310  0.3038
 2966TIP3    H230314   5.598   3.993   0.814 -0.2183  0.4594  3.6637
 2967TIP3   OH230315   6.759   5.169  12.493 -0.1581  0.7894 -0.1485
 2967TIP3    H130316   6.754   5.236  12.425 -1.9854  0.8143 -0.0059
 2967TIP3    H230317   6.771   5.087  12.444 -1.8806  0.7565 -0.5480
 2968TIP3   OH230318   1.785   2.396   1.048 -0.1473  0.3246  0.6548
 2968TIP3    H130319   1.847   2.420   0.978 -0.3915 -1.4313 -0.1901
 2968TIP3    H230320   1.699   2.400   1.006 -0.3507 -0.1265  1.0199
 2969TIP3   OH230321   6.289   3.366  12.800  0.3531  0.2390 -0.2740
 2969TIP3    H130322   6.295   3.284  12.751 -0.1877  0.4681 -0.7165
 2969TIP3    H230323   6.341   3.428  12.749 -0.8318  0.6750 -0.9656
 2970TIP3   OH230324   1.362   2.378  12.474  0.0272 -0.4526  0.4679
 2970TIP3    H130325   1.311   2.330  12.408 -2.5521  1.4769  1.0164
 2970TIP3    H230326   1.341   2.334  12.556 -0.6629  0.2579  0.6738
 2971TIP3   OH230327   3.605   6.092  11.311  0.2491 -0.2052 -0.3937
 2971TIP3    H130328   3.613   6.001  11.338 -2.0065 -0.3980 -0.2851
 2971TIP3    H230329   3.573   6.088  11.221  1.3508  0.4837 -0.8277
 2972TIP3   OH230330   3.038   1.013   2.535 -0.3235 -0.4336  0.0392
 2972TIP3    H130331   2.981   1.043   2.606 -0.9670  0.8400 -1.0035
 2972TIP3    H230332   3.101   1.083   2.524  0.6305 -1.2481  0.2762
 2973TIP3   OH230333   1.453   1.951  11.701  0.1571 -0.2727  0.0456
 2973TIP3    H130334   1.502   2.012  11.757  0.9871 -0.8769 -0.0212
 2973TIP3    H230335   1.461   1.866  11.744  0.1370 -0.5913 -0.5620
 2974TIP3   OH230336   1.236   2.061  10.388 -0.2050 -0.2788 -0.0389
 2974TIP3    H130337   1.188   1.984  10.359 -0.7361 -0.1126  0.3796
 2974TIP3    H230338   1.308   2.026  10.441 -2.4511 -0.4018  3.1006
 2975TIP3   OH230339   4.333   3.119   5.266 -0.2764  0.0224 -0.0357
 2975TIP3    H130340   4.361   3.140   5.176 -0.7227  1.0820  0.0631
 2975TIP3    H230341   4.394   3.168   5.321  0.7329 -1.5381  0.2871
 2976TIP3   OH230342   0.710   0.940  12.824  0.5785 -0.1069  0.5274
 2976TIP3    H130343   0.741   0.979  12.742  0.7595  1.5618  1.3529
 2976TIP3    H230344   0.633   0.888  12.799  1.0448 -0.1661 -0.7939
 2977TIP3   OH230345   5.155   5.878   0.872  0.0112 -0.1746  0.0904
 2977TIP3    H130346   5.208   5.802   0.897  0.6683 -0.4055 -1.9020
 2977TIP3    H230347   5.193   5.907   0.789 -1.4084  1.2091 -0.0897
 2978TIP3   OH230348   0.178   3.791   1.091  0.5273  0.4040  0.0323
 2978TIP3    H130349   0.098   3.827   1.054  0.1185  0.0411  0.5479
 2978TIP3    H230350   0.158   3.698   1.104 -0.2554  0.9862  3.5145
 2979TIP3   OH230351   6.630   0.442  10.521 -0.0306 -0.1732  0.3795
 2979TIP3    H130352   6.549   0.446  10.571 -0.3863 -1.0787 -0.1113
 2979TIP3    H230353   6.698   0.470  10.583 -0.6548  0.1799  0.9121
 2980TIP3   OH230354   6.494   3.314   5.331  0.1834 -0.0538 -0.1420
 2980TIP3    H130355   6.409   3.314   5.374  0.5569 -1.0812  0.6267
 2980TIP3    H230356   6.538   3.235   5.364  1.4306  0.4628 -0.5170
 2981TIP3   OH230357   1.946   1.400  15.320  0.1875  0.1225 -0.2267
 2981TIP3    H130358   1.858   1.373  15.345 -0.0801  1.2558  0.0619
 2981TIP3    H230359   1.987   1.319  15.289 -0.9470 -0.4136 -0.3700
 2982TIP3   OH230360   1.062   0.996  16.970 -0.3520 -0.2460  0.2047
 2982TIP3    H130361   1.111   1.058  16.916 -0.5319 -0.5056 -0.2640
 2982TIP3    H230362   1.101   0.910  16.950  1.0692 -0.0911  2.1623
 2983TIP3   OH230363   2.924   5.076   3.525 -0.0179  0.5651 -0.2861
 2983TIP3    H130364   2.908   5.068   3.619  2.0316 -0.0512  0.0310
 2983TIP3    H230365   2.894   4.993   3.488  1.6910 -0.3067  0.2144
 2984TIP3   OH230366   1.954   4.264  16.764 -0.5405  0.0449  0.6885
 2984TIP3    H130367   1.959   4.200  16.692  0.0422  1.0629 -0.1909
 2984TIP3    H230368   1.867   4.251  16.801 -0.7275 -0.7242  0.0015
 2985TIP3   OH230369   0.524   6.603   1.022 -0.0395  0.0751  0.3115
 2985TIP3    H130370   0.617   6.589   1.006 -0.1936  0.4312 -1.0136
 2985TIP3    H230371   0.492   6.519   1.053  0.7540 -0.0093  0.9104
 2986TIP3   OH230372   4.494   5.692  14.228 -0.3825  0.1068  0.1986
 2986TIP3    H130373   4.588   5.671  14.225 -0.4782 -0.4161  0.7016
 2986TIP3    H230374   4.454   5.625  14.172 -0.1424  2.2197 -2.5745
 2987TIP3   OH230375   0.070   2.542   5.625 -0.5036 -0.4908  0.3606
 2987TIP3    H130376   0.052   2.551   5.532 -0.9635  1.0294  0.5774
 2987TIP3    H230377   0.145   2.600   5.641 -0.8499 -0.2231  1.0422
 2988TIP3   OH230378   5.177   4.756  13.317 -0.4034  0.1173  0.1025
 2988TIP3    H130379   5.090   4.717  13.314 -0.9721  1.2223  1.6920
 2988TIP3    H230380   5.187   4.801  13.233 -0.8975 -0.9738 -0.5448
 2989TIP3   OH230381   3.449   3.464  15.730 -0.0954  0.1721  0.2791
 2989TIP3    H130382   3.382   3.470  15.798 -2.0863 -0.2574 -1.6017
 2989TIP3    H230383   3.413   3.514  15.656  2.0116  0.5976 -0.5003
 2990TIP3   OH230384   2.666   5.273  16.623 -0.0072 -0.2934  0.2715
 2990TIP3    H130385   2.659   5.274  16.718 -1.3682 -1.4486  0.2007
 2990TIP3    H230386   2.608   5.343  16.594 -0.1595 -0.4212  0.2645
 2991TIP3   OH230387   3.309   1.797   3.532 -0.1649 -0.6276 -0.1320
 2991TIP3    H130388   3.231   1.851   3.525  0.2468  0.3216  2.2265
 2991TIP3    H230389   3.276   1.707   3.541 -0.8694 -0.6929 -2.8686
 2992TIP3   OH230390   1.696   0.310  12.176 -0.0597 -0.3639 -0.1700
 2992TIP3    H130391   1.690   0.301  12.081 -2.2729  0.5982 -0.1612
 2992TIP3    H230392   1.646   0.236  12.210 -0.1902 -0.0907  0.2341
 2993TIP3   OH230393   2.952   5.930  11.833  0.5857 -0.0095 -0.1725
 2993TIP3    H130394   2.976   6.023  11.839  0.2225  0.2156 -1.9022
 2993TIP3    H230395   3.020   5.892  11.777 -0.7916 -0.2195 -1.7222
 2994TIP3   OH230396   1.043   2.936   5.093  0.8049 -0.3011  0.5675
 2994TIP3    H130397   1.067   2.939   5.185 -1.2546  0.4698  1.0997
 2994TIP3    H230398   1.060   3.025   5.061 -3.0285  0.8377  1.4365
 2995TIP3   OH230399   0.487   0.007  13.111 -0.2506  0.4540  0.1354
 2995TIP3    H130400   0.472   0.029  13.203 -1.5562  0.3320 -0.0457
 2995TIP3    H230401   0.583   0.006  13.103 -0.0715 -1.4772  1.9642
 2996TIP3   OH230402   5.243   3.887  12.751 -0.4225 -0.4559  0.3177
 2996TIP3    H130403   5.202   3.839  12.679 -0.3587 -0.4208  0.2559
 2996TIP3    H230404   5.216   3.840  12.830 -1.4851  0.2245  0.3617
 2997TIP3   OH230405   4.630   4.761  12.145 -0.5962 -0.4019 -0.0358
 2997TIP3    H130406   4.681   4.702  12.089 -0.3097 -1.4691  1.3430
 2997TIP3    H230407   4.694   4.820  12.184 -0.9170  1.1023 -1.6822
 2998TIP3   OH230408   1.901   2.232   1.740  0.2738 -0.4100  0.2717
 2998TIP3    H130409   1.874   2.181   1.816  0.9482  0.6605  1.2414
 2998TIP3    H230410   1.821   2.277   1.711  0.2211 -0.1007  0.9042
 2999TIP3   OH230411   6.506   0.599  15.201  0.3494  0.4994  0.2197
 2999TIP3    H130412   6.418   0.635  15.195  0.0465  0.1128  2.1704
 2999TIP3    H230413   6.519   0.581  15.294  2.6924  1.0569  0.0463
 3000TIP3   OH230414   5.725   0.892   4.038  0.5612 -0.6635 -0.5555
 3000TIP3    H130415   5.733   0.806   4.079  0.6595 -0.6824 -0.6150
 3000TIP3    H230416   5.644   0.929   4.075  0.9870 -0.4188  0.1418
 3001TIP3   OH230417   1.715   0.686   0.663  1.0104 -0.1819  0.0225
 3001TIP3    H130418   1.638   0.647   0.706 -0.0690 -0.4880 -2.1100
 3001TIP3    H230419   1.785   0.623   0.678  0.1884 -1.1694 -0.1972
 3002TIP3   OH230420   2.503   4.487   4.524 -0.1927 -0.1765  0.6593
 3002TIP3    H130421   2.517   4.532   4.607 -1.4151  0.0219  0.7658
 3002TIP3    H230422   2.500   4.394   4.547  0.4378 -0.1806  0.7066
 3003TIP3   OH230423   2.170   5.087   5.125 -0.3798 -0.9540  0.2877
 3003TIP3    H130424   2.220   5.073   5.205 -0.1820 -0.6846  0.2117
 3003TIP3    H230425   2.235   5.114   5.060 -0.4775 -1.5970 -0.0802
 3004TIP3   OH230426   6.076   5.004   6.428 -0.9670  0.6493  0.3000
 3004TIP3    H130427   6.022   4.959   6.363  0.0815  0.7172 -0.6220
 3004TIP3    H230428   6.029   4.991   6.510 -3.7724  2.9168 -0.8641
 3005TIP3   OH230429   5.864   0.626  15.307 -0.1222  0.3386 -0.2342
 3005TIP3    H130430   5.920   0.632  15.230 -0.3862  0.3406 -0.4283
 3005TIP3    H230431   5.872   0.711  15.350  1.1700 -0.1617  0.5506
 3006TIP3   OH230432   1.130   3.483  16.759  0.1713 -0.0456  0.7059
 3006TIP3    H130433   1.116   3.578  16.761  0.8186  0.0553  0.5491
 3006TIP3    H230434   1.050   3.448  16.719  0.1055  0.4688  0.3756
 3007TIP3   OH230435   4.346   6.423  14.222  0.6549  0.0036  0.3317
 3007TIP3    H130436   4.275   6.361  14.209  1.3943 -1.1832  1.8330
 3007TIP3    H230437   4.371   6.451  14.133 -0.5220 -0.8701 -0.2789
 3008TIP3   OH230438   2.625   6.424   5.912 -0.3312  0.2483  0.2921
 3008TIP3    H130439   2.650   6.379   5.992 -1.8049  0.0940  0.6732
 3008TIP3    H230440   2.684   6.387   5.845  0.6623  0.1251  1.2124
 3009TIP3   OH230441   2.955   6.504   5.068  0.1174  0.1198  0.0753
 3009TIP3    H130442   2.887   6.486   5.003  0.4612 -2.3443  0.3515
 3009TIP3    H230443   3.023   6.440   5.050  1.1659  0.8018  1.5295
 3010TIP3   OH230444   4.883   3.292   6.093  0.1017 -0.0505  0.7046
 3010TIP3    H130445   4.928   3.223   6.044 -1.8124 -0.5626 -0.4015
 3010TIP3    H230446   4.841   3.246   6.166 -0.1223  0.1421  0.6975
 3011TIP3   OH230447   0.665   5.416   2.010 -0.0100  0.0983  0.4509
 3011TIP3    H130448   0.659   5.320   2.011  4.9156 -0.3679  0.4770
 3011TIP3    H230449   0.645   5.440   1.919 -0.7957 -1.0150  0.3195
 3012TIP3   OH230450   4.376   3.671  11.305  0.6927  0.9886 -0.5672
 3012TIP3    H130451   4.445   3.605  11.313  0.3800  0.7105 -0.1654
 3012TIP3    H230452   4.420   3.748  11.269  0.7727  0.0826 -2.4654
 3013TIP3   OH230453   1.921   1.946   6.011 -0.3680  0.0413 -0.4317
 3013TIP3    H130454   1.893   1.861   5.977 -2.2670  0.0476  1.0756
 3013TIP3    H230455   2.014   1.952   5.986 -0.6479 -1.7150 -2.0099
 3014TIP3   OH230456   2.267   5.112  15.324 -0.4257 -0.0943 -0.1196
 3014TIP3    H130457   2.247   5.193  15.277 -0.0265  0.3692  0.5016
 3014TIP3    H230458   2.333   5.069  15.270  0.2581  0.5820  0.1711
 3015TIP3   OH230459   0.905   2.505  16.480  0.6174 -0.0590 -0.2640
 3015TIP3    H130460   0.955   2.583  16.504 -1.2622  0.2168  3.1258
 3015TIP3    H230461   0.953   2.432  16.518  0.6091 -0.2298 -0.5724
 3016TIP3   OH230462   1.000   2.575   1.276  0.6123 -0.2431  0.2710
 3016TIP3    H130463   1.066   2.516   1.313 -0.5052 -0.5207  1.9091
 3016TIP3    H230464   1.021   2.660   1.314  0.7435 -0.0838 -0.1552
 3017TIP3   OH230465   6.388   1.373   3.835  0.5822  0.1806  0.2029
 3017TIP3    H130466   6.384   1.362   3.740  1.4522 -0.7078  0.2553
 3017TIP3    H230467   6.479   1.400   3.853  0.6397 -0.4153  0.8444
 3018TIP3   OH230468   6.538   1.207  15.457 -0.8302 -0.1864  0.5264
 3018TIP3    H130469   6.464   1.220  15.398 -1.9632 -0.1713  1.9138
 3018TIP3    H230470   6.514   1.130  15.509  1.6673 -2.3044 -1.2984
 3019TIP3   OH230471   2.022   3.672  15.201 -0.1363  0.2158  0.2473
 3019TIP3    H130472   2.118   3.677  15.207 -0.1802  2.1700 -0.3519
 3019TIP3    H230473   1.991   3.704  15.286 -0.2765 -0.0081  0.2819
 3020TIP3   OH230474   3.652   3.626  13.218  0.4062  0.0551  0.3051
 3020TIP3    H130475   3.629   3.715  13.192  1.9633 -0.0561 -1.5515
 3020TIP3    H230476   3.734   3.635  13.267  0.6826 -0.3879 -0.0743
 3021TIP3   OH230477   0.926   4.074  13.505  0.0940 -0.7464 -0.4091
 3021TIP3    H130478   1.012   4.033  13.498 -0.3259 -1.6039 -0.5059
 3021TIP3    H230479   0.868   4.004  13.533 -1.0706 -0.7449 -2.7860
 3022TIP3   OH230480   4.243   5.995   1.767  0.0051  0.2294 -0.5084
 3022TIP3    H130481   4.306   5.939   1.811  0.9753  2.6158  1.2520
 3022TIP3    H230482   4.205   5.940   1.698  0.7551 -2.5874  1.2734
 3023TIP3   OH230483   0.453   6.727   0.301 -0.4682  0.1194  0.6202
 3023TIP3    H130484   0.406   6.670   0.362  1.2231 -1.6578  0.3121
 3023TIP3    H230485   0.522   6.671   0.264  0.5689  2.0792 -0.4945
 3024TIP3   OH230486   0.115   3.286   2.853 -0.4428  0.0031 -0.4141
 3024TIP3    H130487   0.059   3.362   2.838 -0.2420  0.3168  0.4166
 3024TIP3    H230488   0.096   3.259   2.943 -0.4963 -0.9169 -0.6892
 3025TIP3   OH230489   0.108   0.977   3.567 -0.3158 -0.1047  0.3017
 3025TIP3    H130490   0.130   1.026   3.646  1.7338  0.8162 -0.7964
 3025TIP3    H230491   0.033   1.022   3.530  0.7428  1.4328  0.0052
 3026TIP3   OH230492   3.373   5.387   6.390 -0.2156  0.1103  0.7667
 3026TIP3    H130493   3.278   5.399   6.398 -0.8915 -0.4672 -4.7352
 3026TIP3    H230494   3.406   5.476   6.374 -0.0534  0.0668  0.8630
 3027TIP3   OH230495   6.484   2.080   1.132  0.2819 -0.2320 -0.5823
 3027TIP3    H130496   6.425   2.129   1.189  1.8592 -2.6193  3.2203
 3027TIP3    H230497   6.428   2.010   1.095 -0.2731  0.1507 -0.4772
 3028TIP3   OH230498   5.153   6.222   2.078  0.4872 -0.4328  0.0430
 3028TIP3    H130499   5.146   6.203   1.984  1.0146  2.0952 -0.5449
 3028TIP3    H230500   5.066   6.200   2.113 -1.1074  2.5608 -1.8142
 3029TIP3   OH230501   1.980   2.128  11.884 -0.1995 -0.5762 -0.0296
 3029TIP3    H130502   2.063   2.098  11.846 -0.3176 -2.5986  1.2677
 3029TIP3    H230503   1.996   2.220  11.906  2.0781 -1.2210  1.2234
 3030TIP3   OH230504   6.358   2.988   3.424 -0.6772  0.0601  0.8098
 3030TIP3    H130505   6.300   3.038   3.368 -0.0521  0.2366  0.3107
 3030TIP3    H230506   6.366   3.040   3.504 -1.0768  0.1096  0.8167
 3031TIP3   OH230507   3.777   6.627   4.816 -0.2455  0.3113  0.1475
 3031TIP3    H130508   3.702   6.685   4.822  0.3743  0.9174  2.6453
 3031TIP3    H230509   3.749   6.547   4.860  0.2068  0.1465  0.1411
 3032TIP3   OH230510   4.480   5.877   4.477 -0.5909  0.5849  0.4115
 3032TIP3    H130511   4.391   5.863   4.444 -0.7827 -0.0100  1.1703
 3032TIP3    H230512   4.468   5.927   4.558 -0.3403 -0.7865  1.3122
 3033TIP3   OH230513   5.653   2.214  14.966 -0.4766 -0.3374 -0.3150
 3033TIP3    H130514   5.741   2.176  14.958 -1.0941 -1.7190 -0.6563
 3033TIP3    H230515   5.607   2.182  14.888 -1.1366  0.7977 -0.3994
 3034TIP3   OH230516   5.941   3.269   3.519  0.2961 -0.2061  0.3719
 3034TIP3    H130517   6.023   3.308   3.489  0.7999  0.0592  2.0449
 3034TIP3    H230518   5.907   3.332   3.583 -1.2721 -0.2572 -0.4013
 3035TIP3   OH230519   3.727   0.563  14.598  0.5988 -0.7869 -0.3618
 3035TIP3    H130520   3.822   0.563  14.607  0.3947 -0.8849  2.2140
 3035TIP3    H230521   3.699   0.482  14.640 -0.7264  0.1086  0.5397
 3036TIP3   OH230522   3.600   4.083  13.725  0.1130 -0.1775 -0.2850
 3036TIP3    H130523   3.693   4.067  13.740  0.0792 -0.4057 -0.3097
 3036TIP3    H230524   3.571   4.132  13.802  0.3133  0.1302 -0.4068
 3037TIP3   OH230525   5.674   4.580   3.913  0.0390 -0.1421 -0.1488
 3037TIP3    H130526   5.627   4.525   3.976 -0.3934  0.2268 -0.1427
 3037TIP3    H230527   5.656   4.540   3.828  1.9136 -1.5594  0.0995
 3038TIP3   OH230528   1.807   2.019   5.230 -0.1706 -0.0719 -0.4950
 3038TIP3    H130529   1.895   1.982   5.230 -0.1616 -0.1236 -2.7884
 3038TIP3    H230530   1.816   2.101   5.279  1.5055  0.6373 -1.9194
 3039TIP3   OH230531   1.126   3.749   3.961 -0.1836 -0.0996 -0.2883
 3039TIP3    H130532   1.112   3.820   4.022 -0.8245  0.1329 -0.6996
 3039TIP3    H230533   1.138   3.671   4.016  0.6384  0.3349  0.1606
 3040TIP3   OH230534   2.193   3.397   4.379  0.2149 -0.7246  0.0151
 3040TIP3    H130535   2.233   3.448   4.449 -1.1189 -1.3511  1.2573
 3040TIP3    H230536   2.252   3.322   4.367  1.7505  0.6596 -1.2599
 3041TIP3   OH230537   2.640   0.893   1.894 -0.2851  0.2605 -0.7675
 3041TIP3    H130538   2.658   0.828   1.827 -0.2045  0.1914 -0.6792
 3041TIP3    H230539   2.544   0.893   1.903 -0.2234 -0.5764 -0.0472
 3042TIP3   OH230540   2.385   3.869  11.799 -0.3752  0.7225 -0.0561
 3042TIP3    H130541   2.332   3.931  11.748 -0.6402  1.0020  0.5551
 3042TIP3    H230542   2.365   3.889  11.890 -0.1876 -0.0271  0.1559
 3043TIP3   OH230543   2.392   0.052   4.097  0.2096 -0.6270 -0.6337
 3043TIP3    H130544   2.297   0.059   4.094  0.0050 -1.5858  2.0300
 3043TIP3    H230545   2.424   0.134   4.060 -1.6603  0.3433 -0.1511
 3044TIP3   OH230546   5.531   2.833   1.750 -0.1061  0.0090  0.0792
 3044TIP3    H130547   5.550   2.919   1.788 -1.1722  0.7805 -1.0984
 3044TIP3    H230548   5.605   2.779   1.776  0.3383  1.1463  1.2619
 3045TIP3   OH230549   1.681   3.455   1.955  0.1051 -0.2141  0.6537
 3045TIP3    H130550   1.748   3.481   1.891 -0.9581  0.4950 -0.1979
 3045TIP3    H230551   1.629   3.534   1.968  0.1838 -0.4061  2.2690
 3046TIP3   OH230552   0.915   3.286  12.198  0.2266  0.1814  0.5102
 3046TIP3    H130553   0.991   3.241  12.235  0.9648  1.9812  1.2170
 3046TIP3    H230554   0.856   3.300  12.273  0.9586  2.2819  0.7287
 3047TIP3   OH230555   3.894   1.761   5.451  0.0366  0.1567 -0.6835
 3047TIP3    H130556   3.832   1.688   5.459 -0.5766  0.8800  1.3691
 3047TIP3    H230557   3.899   1.799   5.538  2.5635  0.8046 -1.0541
 3048TIP3   OH230558   3.922   0.843  12.211  0.7251 -0.4611  0.5177
 3048TIP3    H130559   3.905   0.925  12.259 -0.2320 -0.0852 -0.4511
 3048TIP3    H230560   3.872   0.777  12.259 -0.8743  0.0562 -0.4010
 3049TIP3   OH230561   3.932   1.443   3.553  0.5341  0.3772  0.3834
 3049TIP3    H130562   3.860   1.481   3.502  0.2791 -0.3621  0.1875
 3049TIP3    H230563   3.971   1.378   3.494 -0.9361 -1.8335  1.7640
 3050TIP3   OH230564   2.257   4.584   5.925 -0.1161 -0.6408  0.4186
 3050TIP3    H130565   2.328   4.561   5.865  0.2824 -0.4844  0.8307
 3050TIP3    H230566   2.271   4.528   6.001 -0.5642 -0.7668  0.4099
 3051TIP3   OH230567   3.878   3.839   4.203 -0.0663 -0.3370  0.0603
 3051TIP3    H130568   3.958   3.892   4.209 -0.6001  0.5207 -0.4263
 3051TIP3    H230569   3.807   3.903   4.199 -0.7118 -1.0914 -0.5337
 3052TIP3   OH230570   0.050   6.194  15.676 -0.1232  0.3056 -0.0676
 3052TIP3    H130571   0.142   6.192  15.701  0.1720  0.9794 -1.0782
 3052TIP3    H230572   0.027   6.101  15.663 -0.3746 -0.0947  2.9023
 3053TIP3   OH230573   0.001   5.741  11.374  0.2256  0.1338 -0.0849
 3053TIP3    H130574   0.082   5.745  11.425  0.7034 -2.0660 -0.6362
 3053TIP3    H230575  -0.048   5.668  11.412 -1.3849  1.2720  0.0575
 3054TIP3   OH230576   1.802   2.455   5.093 -0.1842  0.5879 -0.3446
 3054TIP3    H130577   1.734   2.480   5.155 -0.4901 -1.4193  0.1704
 3054TIP3    H230578   1.874   2.423   5.149  0.1417  0.2122 -0.9768
 3055TIP3   OH230579   1.035   3.122   2.898 -0.1096  0.4316  0.3398
 3055TIP3    H130580   0.947   3.125   2.936 -0.2448  0.6220  0.0132
 3055TIP3    H230581   1.086   3.073   2.962 -0.2174  1.1673  1.0044
 3056TIP3   OH230582   0.950   1.436   3.588  0.1159 -0.1832 -0.2632
 3056TIP3    H130583   0.945   1.341   3.578 -1.4818 -0.1978  0.6013
 3056TIP3    H230584   0.951   1.451   3.682 -3.7352  0.8202 -0.2956
 3057TIP3   OH230585   6.483   4.990  15.131 -0.0528  0.0687 -0.4065
 3057TIP3    H130586   6.558   5.037  15.166  0.2808 -1.4020  0.9079
 3057TIP3    H230587   6.415   4.999  15.198 -0.1999 -0.7597 -0.4355
 3058TIP3   OH230588   2.910   4.625   3.371  0.6751 -0.5810  0.3231
 3058TIP3    H130589   2.835   4.683   3.388  1.4630  0.5482  0.0084
 3058TIP3    H230590   2.877   4.537   3.388 -1.1309 -0.2084 -1.2096
 3059TIP3   OH230591   0.386   2.689  15.806 -0.3290  0.3486  0.1633
 3059TIP3    H130592   0.453   2.681  15.874 -0.0449  2.8338  0.2330
 3059TIP3    H230593   0.421   2.641  15.731  1.2406  1.0747  0.4148
 3060TIP3   OH230594   4.499   4.259   2.444 -0.6374  0.2614 -0.2537
 3060TIP3    H130595   4.423   4.316   2.455 -0.6545  0.0908  0.4962
 3060TIP3    H230596   4.499   4.204   2.522  0.5707  0.6199  0.0013
 3061TIP3   OH230597   1.524   4.726  14.724  0.2163 -0.3564 -0.2812
 3061TIP3    H130598   1.499   4.817  14.713 -1.0824 -0.5597  0.7679
 3061TIP3    H230599   1.557   4.721  14.814  0.3068 -0.9154 -0.3434
 3062TIP3   OH230600   1.350   0.717  15.992 -0.1048 -0.5395  0.2233
 3062TIP3    H130601   1.263   0.677  15.997  0.4209 -1.4444  2.7745
 3062TIP3    H230602   1.332   0.809  15.973 -1.9706  0.2300  4.7953
 3063TIP3   OH230603   4.428   5.813   0.038  0.4990  0.2553  0.6378
 3063TIP3    H130604   4.423   5.894  -0.013  1.7321  1.0768  1.7888
 3063TIP3    H230605   4.521   5.805   0.059  0.4921 -1.8103 -0.0042
 3064TIP3   OH230606   4.316   3.340   5.704 -0.3360 -0.1863 -0.1569
 3064TIP3    H130607   4.342   3.303   5.788 -1.6738 -0.1804  0.2610
 3064TIP3    H230608   4.307   3.264   5.646 -1.4071 -0.3800  0.2505
 3065TIP3   OH230609   4.921   6.354   1.199 -0.7175 -0.0532  0.2755
 3065TIP3    H130610   4.965   6.342   1.115 -0.5004 -1.0262  0.5177
 3065TIP3    H230611   4.852   6.288   1.199 -1.0621  0.3058  0.6370
 3066TIP3   OH230612   0.788   1.682  11.300  0.5248  0.4423  0.4809
 3066TIP3    H130613   0.772   1.774  11.321  0.9573  0.6842 -0.2248
 3066TIP3    H230614   0.881   1.679  11.276 -0.0490  0.2766 -1.8600
 3067TIP3   OH230615   4.126   4.959   1.179  0.1876 -0.6558 -0.1858
 3067TIP3    H130616   4.051   4.932   1.231  0.0803 -0.2738 -0.1414
 3067TIP3    H230617   4.200   4.911   1.217  0.5522  1.5242  1.9888
 3068TIP3   OH230618   5.285   0.424  15.742  0.7298  0.2360  0.0668
 3068TIP3    H130619   5.237   0.499  15.779  2.9048  3.0427 -2.4942
 3068TIP3    H230620   5.359   0.412  15.801  0.2407 -0.1111  0.6226
 3069TIP3   OH230621   3.303   1.304   2.983  0.3958  0.1020 -0.3557
 3069TIP3    H130622   3.274   1.214   2.964  0.1911  0.3908 -1.4259
 3069TIP3    H230623   3.396   1.295   3.006 -0.0585 -0.5989  1.3256
 3070TIP3   OH230624   0.662   1.996  11.658  0.3442 -0.1194  0.3406
 3070TIP3    H130625   0.744   2.025  11.618  1.2628  0.3852  2.5214
 3070TIP3    H230626   0.594   2.022  11.595  1.6510  1.6148 -0.4082
 3071TIP3   OH230627   5.463   4.583   1.304  0.4427 -0.2197 -0.3648
 3071TIP3    H130628   5.432   4.673   1.318  0.8189 -0.1476  0.0028
 3071TIP3    H230629   5.396   4.528   1.344 -0.4920 -0.1601 -1.7976
 3072TIP3   OH230630   4.040   4.982  14.404  0.1705 -0.1257 -0.2833
 3072TIP3    H130631   3.963   4.930  14.430 -1.5126  0.9783 -2.8125
 3072TIP3    H230632   4.094   4.921  14.355 -1.3939  0.2097 -2.5158
 3073TIP3   OH230633   4.669   4.963   1.741 -0.0558 -0.7371 -0.0838
 3073TIP3    H130634   4.591   5.010   1.769  0.0159 -0.7918  0.2080
 3073TIP3    H230635   4.741   5.020   1.765  0.0642 -1.2408  0.7750
 3074TIP3   OH230636   0.049   3.407  13.394 -0.4783 -0.1664  0.5468
 3074TIP3    H130637   0.089   3.387  13.309  2.6351  0.4782  1.8157
 3074TIP3    H230638   0.046   3.323  13.439  3.1631  0.3617  1.9361
 3075TIP3   OH230639   3.894   5.261  13.659 -0.1397  0.7140 -0.0482
 3075TIP3    H130640   3.906   5.205  13.736  0.9801  0.3572 -0.4742
 3075TIP3    H230641   3.982   5.272  13.624 -0.7836 -0.2038 -2.0319
 3076TIP3   OH230642   4.601   1.548  13.350  0.3737  0.2013 -0.8007
 3076TIP3    H130643   4.547   1.478  13.385  1.1741  0.0871  0.2253
 3076TIP3    H230644   4.546   1.626  13.354  0.3469  0.1216  0.3996
 3077TIP3   OH230645   1.039   2.200  10.548  0.7195 -0.0359 -0.1906
 3077TIP3    H130646   1.035   2.279  10.494  2.2799 -1.0251 -1.8006
 3077TIP3    H230647   1.104   2.144  10.504  1.7807 -1.0044  2.5105
 3078TIP3   OH230648   6.655   5.645   5.388 -0.4607  0.5960  0.1931
 3078TIP3    H130649   6.652   5.612   5.298 -2.6825 -0.7779  0.7260
 3078TIP3    H230650   6.563   5.654   5.412  0.1126  0.1490  2.6141
 3079TIP3   OH230651   6.227   1.806  12.661 -0.0160 -0.3333  0.0594
 3079TIP3    H130652   6.235   1.870  12.732 -1.3636 -0.5761  0.4417
 3079TIP3    H230653   6.262   1.725  12.698 -1.1581 -0.5817  0.6317
 3080TIP3   OH230654   5.611   3.928   4.047 -0.5039  0.0660  0.1136
 3080TIP3    H130655   5.527   3.958   4.011  0.7987  1.7075 -1.6948
 3080TIP3    H230656   5.654   3.882   3.975  0.8691  0.7375  0.4764
 3081TIP3   OH230657   0.672   1.524   5.190  0.6673  0.2600 -0.2088
 3081TIP3    H130658   0.751   1.578   5.191 -0.0015  1.2526  0.2992
 3081TIP3    H230659   0.637   1.532   5.279  0.1367 -0.3703 -0.3568
 3082TIP3   OH230660   2.483   1.335   0.839 -0.3689  0.2622  0.5346
 3082TIP3    H130661   2.578   1.350   0.841  0.3252 -3.7513  0.3003
 3082TIP3    H230662   2.460   1.317   0.930 -0.1786 -2.6827  0.0379
 3083TIP3   OH230663   4.484   0.235  15.044  0.7212 -0.3031  0.3778
 3083TIP3    H130664   4.401   0.264  15.082 -1.1511 -4.5575 -0.2556
 3083TIP3    H230665   4.538   0.211  15.119  0.5382  0.1974  0.6761
 3084TIP3   OH230666   2.558   2.155   2.352  0.4978 -0.0351 -0.1631
 3084TIP3    H130667   2.482   2.177   2.299 -0.5783 -2.8479  0.1109
 3084TIP3    H230668   2.528   2.170   2.442  0.7681  0.2762 -0.1256
 3085TIP3   OH230669   1.905   2.008  13.901  0.2681 -0.2089  0.0967
 3085TIP3    H130670   1.916   2.012  13.806  0.5616  1.3871  0.1849
 3085TIP3    H230671   1.984   1.964  13.932  0.6529  0.1954 -0.3103
 3086TIP3   OH230672   0.230   4.068  14.576 -0.0953 -0.4569  0.0298
 3086TIP3    H130673   0.226   4.041  14.484 -0.8211 -0.8402  0.1699
 3086TIP3    H230674   0.165   4.138  14.583 -1.4181 -1.7081  0.6627
 3087TIP3   OH230675   2.220   2.534   4.575  0.2779  0.8380 -0.3776
 3087TIP3    H130676   2.310   2.566   4.568 -0.0351  1.4764 -1.5742
 3087TIP3    H230677   2.229   2.444   4.608  1.3355  0.9417 -0.3623
 3088TIP3   OH230678   0.775   5.969   1.742 -0.2980 -0.2004  0.0222
 3088TIP3    H130679   0.841   5.965   1.672  1.0191 -1.9366  1.3103
 3088TIP3    H230680   0.692   5.973   1.696  0.6385  0.4133 -1.6553
 3089TIP3   OH230681   0.272   5.555  16.171  1.2279 -0.2963 -0.0795
 3089TIP3    H130682   0.245   5.639  16.133 -0.1787 -0.6755  0.0602
 3089TIP3    H230683   0.326   5.515  16.103  1.0256  0.2564 -0.5764
 3090TIP3   OH230684   3.921   3.449  14.437  0.0639 -0.4623  1.2085
 3090TIP3    H130685   3.915   3.432  14.531 -2.1039  1.2441  1.4301
 3090TIP3    H230686   3.851   3.396  14.399 -0.3281  0.3374  0.8051
 3091TIP3   OH230687   6.685   3.532   5.452  0.1725  0.0825 -0.4314
 3091TIP3    H130688   6.610   3.498   5.501 -0.7001  0.4047 -1.5168
 3091TIP3    H230689   6.694   3.471   5.378 -1.0568  1.8649 -2.0861
 3092TIP3   OH230690   6.402   2.837   0.895 -0.0400 -0.1167  0.7509
 3092TIP3    H130691   6.367   2.772   0.956 -0.1321 -0.2376  0.5681
 3092TIP3    H230692   6.386   2.800   0.808 -1.7519  0.9458  0.5738
 3093TIP3   OH230693   5.366   0.674   1.607 -0.0585 -0.2343 -0.3107
 3093TIP3    H130694   5.312   0.656   1.684  1.7971  1.0707  1.3368
 3093TIP3    H230695   5.318   0.742   1.559 -0.7216 -0.3232  0.2300
 3094TIP3   OH230696   4.994   1.683   4.544  0.5303  0.0446 -0.0126
 3094TIP3    H130697   5.069   1.700   4.486  2.3459 -0.6977  2.0451
 3094TIP3    H230698   4.955   1.603   4.508  0.9168  0.2488 -0.9151
 3095TIP3   OH230699   4.305   6.163   3.006 -0.3537 -0.1726  0.1723
 3095TIP3    H130700   4.220   6.121   3.018 -0.5740  0.0576 -0.5626
 3095TIP3    H230701   4.358   6.096   2.963 -0.7860  0.3804 -1.2472
 3096TIP3   OH230702   6.238   0.505  13.961  0.2441  0.5340  0.1127
 3096TIP3    H130703   6.242   0.564  14.036  1.0007 -0.1393  0.6023
 3096TIP3    H230704   6.310   0.444  13.974 -0.0998 -0.0702 -0.7620
 3097TIP3   OH230705   4.083   5.688  13.075 -0.2160 -0.2238 -0.4853
 3097TIP3    H130706   4.006   5.668  13.022 -0.3310 -0.7946 -0.1049
 3097TIP3    H230707   4.106   5.778  13.051 -0.6933 -0.2336 -0.9787
 3098TIP3   OH230708   3.651   0.889   5.286 -0.3010  0.3068  0.0607
 3098TIP3    H130709   3.611   0.884   5.373  1.7669  1.3030  1.1150
 3098TIP3    H230710   3.734   0.843   5.295 -0.5383 -0.4876 -1.6909
 3099TIP3   OH230711   6.129   3.610   4.954 -0.5706  0.4516 -0.1760
 3099TIP3    H130712   6.139   3.515   4.945 -1.2049  0.4161 -0.5211
 3099TIP3    H230713   6.076   3.621   5.032  1.0353  0.5968  0.9232
 3100TIP3   OH230714   0.872   3.357  11.890 -0.0772  0.4837 -0.0739
 3100TIP3    H130715   0.899   3.386  11.977 -0.1517  2.0692 -0.5801
 3100TIP3    H230716   0.821   3.277  11.906 -0.0241  0.7289  1.3272
 3101TIP3   OH230717   1.396   3.068  12.791 -0.2294  0.6211  0.0869
 3101TIP3    H130718   1.462   3.048  12.725  0.3063 -0.6508  0.9696
 3101TIP3    H230719   1.336   3.128  12.748  1.4635  1.7498 -0.7607
 3102TIP3   OH230720   3.186   1.945  17.210  0.0943 -0.6999 -0.3094
 3102TIP3    H130721   3.147   2.030  17.191  0.1293 -0.4594  0.6547
 3102TIP3    H230722   3.261   1.939  17.151  1.1724  0.7380  0.8637
 3103TIP3   OH230723   0.700   0.865   4.975 -0.4316  0.3070  0.6041
 3103TIP3    H130724   0.682   0.835   5.064 -0.9092  0.1936  0.4698
 3103TIP3    H230725   0.617   0.856   4.929 -0.4345  1.2960  0.4067
 3104TIP3   OH230726   3.240   3.326  12.606  0.0517  0.4521 -0.0068
 3104TIP3    H130727   3.261   3.355  12.694 -0.3059 -0.5745  0.4173
 3104TIP3    H230728   3.290   3.245  12.594 -0.4227  0.2240 -0.5010
 3105TIP3   OH230729   4.344   0.133   2.999  0.2319 -0.0743 -0.5238
 3105TIP3    H130730   4.353   0.041   3.023  1.3136  0.2260  0.2298
 3105TIP3    H230731   4.393   0.181   3.066 -1.0310  1.1098 -0.4179
 3106TIP3   OH230732   2.962   0.004  15.096 -0.4518 -0.2600 -0.0658
 3106TIP3    H130733   2.928  -0.015  15.183 -1.8291 -0.4066 -0.6069
 3106TIP3    H230734   2.971   0.099  15.093 -0.3970 -0.2572  0.2492
 3107TIP3   OH230735   3.568   0.456   4.576  0.3146 -0.3157  0.5273
 3107TIP3    H130736   3.642   0.437   4.519 -0.3956  1.4498 -1.0408
 3107TIP3    H230737   3.491   0.444   4.521 -0.4295  0.4138  1.3856
 3108TIP3   OH230738   0.033   4.281   1.697 -0.2874  0.7176  0.3075
 3108TIP3    H130739  -0.028   4.233   1.640 -0.8607  0.9919  0.6824
 3108TIP3    H230740  -0.017   4.296   1.777 -0.4331  2.7464 -0.1424
 3109TIP3   OH230741   0.529   4.575  13.943  0.4658 -0.0631  0.2116
 3109TIP3    H130742   0.489   4.556  13.858 -0.2866  1.9758  0.0888
 3109TIP3    H230743   0.622   4.553  13.931  0.2127 -0.5900 -0.8801
 3110TIP3   OH230744   3.094   3.413   1.878  0.5483 -0.1950 -0.1643
 3110TIP3    H130745   3.142   3.336   1.847  1.1366  0.5222 -1.0338
 3110TIP3    H230746   3.065   3.458   1.799  0.1062  0.4195  0.3399
 3111TIP3   OH230747   1.756   0.079   3.775  0.4553 -1.1864 -0.6263
 3111TIP3    H130748   1.782   0.161   3.733  1.1864 -1.0735  0.0479
 3111TIP3    H230749   1.704   0.034   3.708 -0.0451 -0.1282 -0.9615
 3112TIP3   OH230750   6.273   3.675   3.107 -0.9898 -0.5459 -0.6108
 3112TIP3    H130751   6.312   3.754   3.144 -0.7890 -1.1694  0.5319
 3112TIP3    H230752   6.223   3.706   3.031 -0.8119  0.6582 -0.2436
 3113TIP3   OH230753   1.693   4.782   2.707  0.6105  0.2231 -0.2752
 3113TIP3    H130754   1.648   4.717   2.761 -0.0968  1.0433  0.1457
 3113TIP3    H230755   1.622   4.838   2.674  1.1943  0.6938 -0.7409
 3114TIP3   OH230756   4.455   1.102  12.563 -0.0051  0.7016  0.0539
 3114TIP3    H130757   4.504   1.184  12.555 -1.0171  1.3996  0.8422
 3114TIP3    H230758   4.457   1.082  12.657 -0.2393  0.1290 -0.0616
 3115TIP3   OH230759   3.521   2.384   1.824  0.4245  0.1426 -0.2500
 3115TIP3    H130760   3.431   2.351   1.819  0.5182  0.1302 -2.0127
 3115TIP3    H230761   3.569   2.333   1.760  1.1409  1.8854 -1.1404
 3116TIP3   OH230762   2.391   0.156  16.515 -0.3090  0.3564 -0.1171
 3116TIP3    H130763   2.373   0.074  16.470 -2.0693  1.3482 -1.2805
 3116TIP3    H230764   2.371   0.224  16.450 -1.4884  1.7673  1.6741
 3117TIP3   OH230765   1.171   1.024  13.648 -0.9797 -0.0834 -0.2983
 3117TIP3    H130766   1.236   1.038  13.579 -0.2576 -0.0499  0.3761
 3117TIP3    H230767   1.191   0.937  13.682 -1.8361 -0.4190 -0.6618
 3118TIP3   OH230768   3.995   1.525   2.408  0.1703 -0.4617  0.7732
 3118TIP3    H130769   4.053   1.449   2.401  1.0491  0.1605  1.2942
 3118TIP3    H230770   3.930   1.512   2.339 -0.2720 -2.2070  1.4932
 3119TIP3   OH230771   0.720   1.663   5.607  0.6095  0.0375  0.0938
 3119TIP3    H130772   0.779   1.735   5.628  0.1310  0.1182  1.2363
 3119TIP3    H230773   0.775   1.585   5.608  1.0207  0.3220 -0.5638
 3120TIP3   OH230774   5.597   2.823  13.836  0.8914  0.7488  0.0015
 3120TIP3    H130775   5.652   2.793  13.907  0.1058  1.8798  1.1245
 3120TIP3    H230776   5.571   2.912  13.862 -1.3291  0.2884 -0.5593
 3121TIP3   OH230777   1.950   0.863  13.056 -0.1618  0.6042 -0.5779
 3121TIP3    H130778   1.881   0.903  13.003  0.0015  0.7656 -0.6698
 3121TIP3    H230779   2.020   0.929  13.057 -0.4786  0.9303  0.4958
 3122TIP3   OH230780   3.725   2.318  14.380  0.0061 -0.1120 -0.7008
 3122TIP3    H130781   3.700   2.238  14.333  0.0156 -1.7367  1.9664
 3122TIP3    H230782   3.643   2.351  14.416  0.4230 -0.6429  0.7753
 3123TIP3   OH230783   4.027   0.321  16.686  0.6263  0.2746 -0.5039
 3123TIP3    H130784   4.064   0.401  16.724 -1.4221  1.0041  0.0307
 3123TIP3    H230785   3.933   0.331  16.697  0.3546 -2.3652 -0.1888
 3124TIP3   OH230786   5.571   0.137  11.643  0.6009  0.0247  0.3974
 3124TIP3    H130787   5.564   0.221  11.688 -1.2994  0.3786 -0.4850
 3124TIP3    H230788   5.641   0.150  11.579 -0.1144  1.1666 -0.1737
 3125TIP3   OH230789   1.802   4.028   3.126 -0.7887 -0.0016 -0.3204
 3125TIP3    H130790   1.800   4.021   3.031 -2.3004  0.7707 -0.3581
 3125TIP3    H230791   1.846   4.112   3.143 -0.0562 -0.3808 -0.3158
 3126TIP3   OH230792   5.232   4.028   2.517  0.1319 -0.2037  0.5890
 3126TIP3    H130793   5.314   4.073   2.496  0.2741 -0.6741  0.1069
 3126TIP3    H230794   5.171   4.057   2.449  0.4966 -1.4705 -0.3009
 3127TIP3   OH230795   5.802   1.980   1.262 -0.0780 -0.0735  0.4539
 3127TIP3    H130796   5.776   1.888   1.260  0.3197 -0.1719 -0.7163
 3127TIP3    H230797   5.863   1.989   1.188  0.1124  1.0562  0.7420
 3128TIP3   OH230798   5.102   0.480  11.766  0.6820 -0.2152 -0.4385
 3128TIP3    H130799   5.056   0.397  11.777 -0.3723  0.3751 -0.2209
 3128TIP3    H230800   5.185   0.468  11.812 -0.0433 -0.6985  0.7960
 3129TIP3   OH230801   3.406   2.214  16.884 -0.0426 -0.4271 -0.2002
 3129TIP3    H130802   3.330   2.157  16.870 -0.4150  0.2899 -1.2168
 3129TIP3    H230803   3.466   2.191  16.813  0.0281  0.0772 -0.3058
 3130TIP3   OH230804   3.945   3.771  15.985 -0.1477 -0.1909 -0.3958
 3130TIP3    H130805   3.989   3.697  16.028  0.8322 -0.1933 -1.3867
 3130TIP3    H230806   3.915   3.735  15.902 -1.0083  0.1327 -0.2288
 3131TIP3   OH230807   1.157   2.338   4.445 -0.0868 -0.2817  1.1596
 3131TIP3    H130808   1.132   2.426   4.418  1.9805 -0.3323 -1.0384
 3131TIP3    H230809   1.233   2.350   4.502 -0.8920 -0.5580  2.3223
 3132TIP3   OH230810   5.114   0.212   2.068 -0.1928 -0.4318  0.5573
 3132TIP3    H130811   5.038   0.224   2.126  0.2437 -2.2933  1.5491
 3132TIP3    H230812   5.098   0.272   1.995 -2.2254 -0.1943  1.1627
 3133TIP3   OH230813   2.303   1.790   3.749 -0.4905  0.2407  0.0287
 3133TIP3    H130814   2.370   1.858   3.756 -0.4274  0.1557  0.2472
 3133TIP3    H230815   2.223   1.833   3.778 -0.4566  0.2289  0.1389
 3134TIP3   OH230816   4.037   5.158   3.395  0.3100  0.4183 -0.0440
 3134TIP3    H130817   3.997   5.119   3.472  1.3126  0.5559  0.5608
 3134TIP3    H230818   3.992   5.118   3.321 -0.5111  0.1230  0.6087
 3135TIP3   OH230819   4.555   5.134  11.463 -0.0199 -0.1151  0.1418
 3135TIP3    H130820   4.490   5.082  11.509 -2.3264  2.4155 -0.1141
 3135TIP3    H230821   4.519   5.146  11.375  1.9287 -0.6157 -0.7685
 3136TIP3   OH230822   2.564   4.646   2.252  0.1073 -0.2006 -0.0261
 3136TIP3    H130823   2.486   4.592   2.269  0.4983 -1.7833 -2.9060
 3136TIP3    H230824   2.534   4.711   2.188  0.1322  1.8481  1.9935
 3137TIP3   OH230825   6.337   2.858  15.498 -0.0893 -0.1316 -0.3665
 3137TIP3    H130826   6.424   2.886  15.526 -0.3633 -0.1990  0.5699
 3137TIP3    H230827   6.289   2.843  15.580 -1.6282  1.9267 -0.8341
 3138TIP3   OH230828   2.943   0.842  17.049  0.2629 -0.3729  0.4718
 3138TIP3    H130829   2.963   0.864  16.958 -1.1131  0.4976  0.3611
 3138TIP3    H230830   3.025   0.853  17.095  0.3028  2.1798 -0.1271
 3139TIP3   OH230831   6.155   5.101   5.892  0.4139 -0.2805 -0.0856
 3139TIP3    H130832   6.113   5.163   5.952  0.2045  1.3354 -1.8382
 3139TIP3    H230833   6.084   5.044   5.862  0.2051 -0.0135 -0.0991
 3140TIP3   OH230834   3.643   2.650  13.767  0.7354  0.5249  0.0741
 3140TIP3    H130835   3.732   2.683  13.754  1.2097 -0.7533 -0.0411
 3140TIP3    H230836   3.595   2.680  13.690  1.0282  1.3090  0.1859
 3141TIP3   OH230837   3.821   3.153   3.614  0.3661 -1.0462 -0.7293
 3141TIP3    H130838   3.758   3.207   3.566 -1.9790  0.3276  3.5864
 3141TIP3    H230839   3.898   3.209   3.625  0.2580 -0.7635 -1.3890
 3142TIP3   OH230840   6.036   6.161  15.736  0.1784  0.0604 -0.1603
 3142TIP3    H130841   5.985   6.094  15.689  0.0637 -0.8205  1.2004
 3142TIP3    H230842   6.091   6.201  15.669 -1.5992  0.3619 -1.4884
 3143TIP3   OH230843   1.776   2.417  15.885 -0.0550 -0.0101 -0.2103
 3143TIP3    H130844   1.837   2.355  15.845  0.7843 -0.8186  2.2441
 3143TIP3    H230845   1.833   2.483  15.925 -0.9012  1.2550 -1.0702
 3144TIP3   OH230846   4.467   0.376  12.899 -0.5821 -0.3370  0.5144
 3144TIP3    H130847   4.492   0.462  12.933 -2.7689  0.2553  0.7046
 3144TIP3    H230848   4.522   0.315  12.947 -1.2731  0.7368  2.7555
 3145TIP3   OH230849   4.684   6.356   1.802  0.1346 -0.5790  0.6983
 3145TIP3    H130850   4.632   6.402   1.737  0.2287 -0.5958  0.6113
 3145TIP3    H230851   4.643   6.378   1.886 -0.1884 -0.8285  0.6025
 3146TIP3   OH230852   5.795   4.513   6.719  0.4832 -0.1668  0.6860
 3146TIP3    H130853   5.781   4.534   6.627  2.4433  0.8371  0.5927
 3146TIP3    H230854   5.822   4.595   6.758  0.7010 -0.8322  1.9503
 3147TIP3   OH230855   2.952   0.964  16.795 -0.2279 -0.0883  0.0141
 3147TIP3    H130856   2.953   1.054  16.827 -1.0799 -0.5891  1.5472
 3147TIP3    H230857   2.864   0.952  16.759  0.4952  0.2482 -1.8978
 3148TIP3   OH230858   2.339   5.103  14.019  0.3165 -0.1531  0.5410
 3148TIP3    H130859   2.303   5.185  14.051 -0.9005  0.1871 -1.5750
 3148TIP3    H230860   2.275   5.073  13.954  0.4739 -3.0274  1.6363
 3149TIP3   OH230861   4.463   6.534   5.432 -0.2285  0.2805 -0.5149
 3149TIP3    H130862   4.428   6.496   5.352 -0.0016  1.3089 -1.1199
 3149TIP3    H230863   4.410   6.497   5.502  0.0775 -1.2396 -1.0674
 3150TIP3   OH230864   3.914   2.693   0.792 -0.3854  0.4681  0.1148
 3150TIP3    H130865   3.849   2.728   0.731 -0.8032  0.3056  0.4637
 3150TIP3    H230866   3.910   2.751   0.868 -0.8917 -0.1660  0.5845
 3151TIP3   OH230867   2.379   5.639   5.802 -0.0121  0.5440 -0.4077
 3151TIP3    H130868   2.321   5.563   5.808  1.5880 -0.7531 -0.5935
 3151TIP3    H230869   2.352   5.696   5.873 -0.5512 -0.7395  0.4451
 3152TIP3   OH230870   3.603   5.865   2.166 -0.1580  0.1725 -0.9621
 3152TIP3    H130871   3.669   5.836   2.103  0.3602 -0.0529 -0.3210
 3152TIP3    H230872   3.595   5.959   2.151  0.8868  0.3408 -0.5224
 3153TIP3   OH230873   4.482   6.673   1.935  0.3056 -0.7175  0.2251
 3153TIP3    H130874   4.576   6.685   1.949  0.3018  0.0641 -0.3327
 3153TIP3    H230875   4.470   6.687   1.841 -0.3601 -0.8676  0.2832
 3154TIP3   OH230876   2.986   0.597   6.041  0.4142 -0.4114 -0.2051
 3154TIP3    H130877   3.032   0.646   5.973  1.6413  0.6506  1.3388
 3154TIP3    H230878   2.903   0.643   6.053 -0.4441 -1.4654 -1.9778
 3155TIP3   OH230879   2.138   3.838  12.091 -0.0679 -0.0791  0.3973
 3155TIP3    H130880   2.152   3.842  12.186  1.9294 -0.8928  0.1626
 3155TIP3    H230881   2.046   3.816  12.081 -0.2539 -0.1392  2.1657
 3156TIP3   OH230882   5.457   6.102   1.962  0.1940 -0.2281 -0.1204
 3156TIP3    H130883   5.446   6.010   1.941 -0.4182  0.1195 -1.4182
 3156TIP3    H230884   5.457   6.106   2.058  0.5934 -1.6024 -0.0596
 3157TIP3   OH230885   4.251   5.755   4.793 -0.0010  0.7538  0.0505
 3157TIP3    H130886   4.314   5.732   4.724 -0.8409 -0.4694 -0.3307
 3157TIP3    H230887   4.297   5.817   4.848  1.9250 -0.9092  0.3813
 3158TIP3   OH230888   0.349   5.978   4.828 -0.0376  0.0276 -0.2914
 3158TIP3    H130889   0.335   6.054   4.884  0.0386 -0.4017  0.3143
 3158TIP3    H230890   0.441   5.956   4.840  0.4021  0.9200 -1.8385
 3159TIP3   OH230891   2.210   2.872   0.335  0.5264  0.4488  0.1057
 3159TIP3    H130892   2.257   2.955   0.330  0.3850  0.3745 -3.3640
 3159TIP3    H230893   2.118   2.897   0.346  0.6188  0.7116  0.2899
 3160TIP3   OH230894   3.111   1.198   1.426  0.6730 -0.2525  0.3259
 3160TIP3    H130895   3.122   1.103   1.413 -0.7502 -0.2973 -0.7496
 3160TIP3    H230896   3.039   1.221   1.367 -0.9829  0.9765  2.7423
 3161TIP3   OH230897   5.703   5.322   0.547  0.4675 -0.5107 -0.0857
 3161TIP3    H130898   5.757   5.394   0.580  0.5611  0.2698 -1.8704
 3161TIP3    H230899   5.697   5.338   0.453  1.0659 -3.2199 -0.6417
 3162TIP3   OH230900   0.756   2.050  16.082  0.0900  0.2854 -0.7218
 3162TIP3    H130901   0.707   1.976  16.118  0.4543  0.0938 -0.6207
 3162TIP3    H230902   0.694   2.093  16.023  0.4827 -1.2400 -2.3027
 3163TIP3   OH230903   5.754   5.713  14.722  0.3537 -0.4146 -0.2009
 3163TIP3    H130904   5.824   5.748  14.667  0.2341 -1.9280 -1.3586
 3163TIP3    H230905   5.685   5.688  14.660 -0.0766 -1.4628  0.6856
 3164TIP3   OH230906   5.398   4.101  12.476 -0.1959  0.0207 -0.0831
 3164TIP3    H130907   5.419   4.077  12.566 -0.0467 -0.7915 -0.3277
 3164TIP3    H230908   5.451   4.179  12.458 -1.1567  0.9296  0.9348
 3165TIP3   OH230909   5.791   5.792  11.647 -0.2267 -0.8354  0.1332
 3165TIP3    H130910   5.868   5.758  11.601 -0.7936 -0.0924 -1.4199
 3165TIP3    H230911   5.757   5.861  11.589 -1.1104 -0.0255  1.5721
 3166TIP3   OH230912   0.655   2.906   5.566 -0.4576 -0.4041  0.9651
 3166TIP3    H130913   0.671   2.848   5.641  0.9041 -0.3851  0.7021
 3166TIP3    H230914   0.585   2.964   5.596 -0.3047 -0.7459  2.0291
 3167TIP3   OH230915   5.832   3.680   5.858 -0.0587 -0.1273 -0.2709
 3167TIP3    H130916   5.805   3.597   5.818  0.3974  0.0321 -0.9203
 3167TIP3    H230917   5.786   3.747   5.808  1.5113  0.1461 -1.3938
 3168TIP3   OH230918   6.770   6.775  11.710 -0.2410  0.1423 -0.2865
 3168TIP3    H130919   6.816   6.764  11.793  1.0315  1.8730 -0.7323
 3168TIP3    H230920   6.840   6.773  11.644 -1.1897 -0.7434 -1.2801
 3169TIP3   OH230921   3.936   2.932   2.900  0.1869  0.4429  0.2821
 3169TIP3    H130922   3.928   2.880   2.821  1.3556 -0.0321  0.4620
 3169TIP3    H230923   3.881   2.888   2.964  2.4327 -1.5640  0.9140
 3170TIP3   OH230924   1.659   5.439   5.467  0.4652  0.5765  0.2107
 3170TIP3    H130925   1.641   5.532   5.451  0.0600  0.2217 -1.4841
 3170TIP3    H230926   1.731   5.418   5.408 -1.5719 -0.9545 -1.8186
 3171TIP3   OH230927   6.135   2.643  13.905  0.0234  0.5995  0.0305
 3171TIP3    H130928   6.169   2.610  13.822  0.9663  3.3204 -0.7273
 3171TIP3    H230929   6.052   2.685  13.882 -0.5942 -0.1759  0.7848
 3172TIP3   OH230930   6.337   6.059  12.191  0.1670 -0.2384  0.3530
 3172TIP3    H130931   6.246   6.085  12.173  0.4355 -0.1017 -0.8245
 3172TIP3    H230932   6.358   5.997  12.122  0.0959 -2.3756  2.1646
 3173TIP3   OH230933   4.835   3.972  10.876 -0.3348  1.0224  0.0380
 3173TIP3    H130934   4.779   3.895  10.877 -0.0507  0.8118 -0.2395
 3173TIP3    H230935   4.862   3.981  10.784  1.5282  0.0872  0.4688
 3174TIP3   OH230936   2.611   3.993   0.759 -0.6282 -0.0103  0.0961
 3174TIP3    H130937   2.534   3.981   0.703  0.6262  0.7612 -1.8686
 3174TIP3    H230938   2.667   3.918   0.739  0.4745  1.0237 -0.8372
 3175TIP3   OH230939   5.259   0.647  14.544  0.2856 -0.4305  0.6431
 3175TIP3    H130940   5.253   0.552  14.534  0.9320 -0.5521  1.3590
 3175TIP3    H230941   5.171   0.679  14.522  0.0732 -1.1871  0.3743
 3176TIP3   OH230942   2.994   2.774   0.784  0.0967 -0.1668  0.6062
 3176TIP3    H130943   2.927   2.841   0.771  0.3401  0.2335  1.4076
 3176TIP3    H230944   3.059   2.792   0.716  1.2879  1.8199  2.2096
 3177TIP3   OH230945   3.276   0.583  10.355  0.2751  0.5368  0.1078
 3177TIP3    H130946   3.272   0.598  10.449  0.3949  0.4306  0.1294
 3177TIP3    H230947   3.330   0.654  10.321  0.7486  0.2205  0.1970
 3178TIP3   OH230948   1.261   4.764   1.313 -0.7703 -0.1025  0.3789
 3178TIP3    H130949   1.253   4.763   1.217  1.6962 -0.0745  0.1254
 3178TIP3    H230950   1.254   4.672   1.338 -1.3667 -0.1176  0.1760
 3179TIP3   OH230951   4.515   6.518  15.571 -0.1283 -0.1482 -0.8039
 3179TIP3    H130952   4.569   6.453  15.617 -0.2159  1.2199  1.3304
 3179TIP3    H230953   4.523   6.495  15.479  3.0718 -0.7512 -0.4303
 3180TIP3   OH230954   0.557   1.751   6.471 -0.4906 -0.3721  0.2944
 3180TIP3    H130955   0.636   1.793   6.440 -1.9127  1.2093 -1.2980
 3180TIP3    H230956   0.536   1.686   6.404  0.7760 -2.5072  1.9176
 3181TIP3   OH230957   3.106   1.804  13.226 -0.2682 -0.0183 -0.1255
 3181TIP3    H130958   3.169   1.867  13.192 -0.9260  0.2596 -0.8593
 3181TIP3    H230959   3.032   1.857  13.255 -0.5502 -0.3999 -0.1334
 3182TIP3   OH230960   4.338   5.698  16.651  0.1753 -0.6807 -0.4115
 3182TIP3    H130961   4.398   5.703  16.725  0.3845 -0.2024 -0.6129
 3182TIP3    H230962   4.264   5.646  16.683 -1.1138  2.0020  1.0578
 3183TIP3   OH230963   4.728   2.128   3.488 -0.0747 -0.1103  0.0353
 3183TIP3    H130964   4.634   2.131   3.474 -0.2232  0.5907  1.1104
 3183TIP3    H230965   4.764   2.190   3.425 -0.4989  1.0432  0.9184
 3184TIP3   OH230966   1.472   3.861   2.692  0.0939  0.4272 -0.2579
 3184TIP3    H130967   1.464   3.779   2.741  2.8271 -0.8172 -1.7529
 3184TIP3    H230968   1.433   3.841   2.607  1.8125  0.2720 -1.0272
 3185TIP3   OH230969   2.247   2.384   6.285 -0.5378 -0.3013 -0.0677
 3185TIP3    H130970   2.215   2.344   6.366  1.1441 -0.1152  0.7106
 3185TIP3    H230971   2.343   2.386   6.295 -0.3584  0.4155 -1.7316
 3186TIP3   OH230972   1.012   3.646  12.892 -0.7228 -0.6031 -0.0107
 3186TIP3    H130973   0.934   3.616  12.845  0.0871 -2.3350 -0.2620
 3186TIP3    H230974   1.032   3.576  12.953 -0.1040  0.4169  0.9845
 3187TIP3   OH230975   3.830   6.497   2.605 -0.0066 -0.0570 -0.2634
 3187TIP3    H130976   3.815   6.428   2.670 -1.3911 -1.7495 -2.3203
 3187TIP3    H230977   3.748   6.546   2.603  0.0158 -0.0385 -0.7626
 3188TIP3   OH230978   4.628   1.111   5.824  0.3542  0.4984 -0.0391
 3188TIP3    H130979   4.701   1.057   5.793 -0.8691 -1.5032  0.4693
 3188TIP3    H230980   4.613   1.174   5.753  0.2530 -1.3893 -1.7265
 3189TIP3   OH230981   2.883   3.393   5.126  0.3231  0.0229  0.3300
 3189TIP3    H130982   2.854   3.324   5.184 -1.4222 -0.4471 -1.0668
 3189TIP3    H230983   2.948   3.352   5.069 -1.1184 -0.6468 -0.8666
 3190TIP3   OH230984   3.196   4.413  12.390 -0.0202 -0.3155  0.1722
 3190TIP3    H130985   3.239   4.434  12.307  0.0107  1.4094  0.5981
 3190TIP3    H230986   3.103   4.424  12.372  0.0541  1.4461  0.6956
 3191TIP3   OH230987   2.408   0.672  16.725 -0.0998  0.0904  0.0354
 3191TIP3    H130988   2.373   0.662  16.814  1.8793 -0.1243  0.8278
 3191TIP3    H230989   2.393   0.587  16.684  0.8978 -0.5338  0.9078
 3192TIP3   OH230990   0.590   6.660  12.025  0.5257  0.4118  0.6419
 3192TIP3    H130991   0.519   6.719  11.998  1.2287  1.1911  0.4469
 3192TIP3    H230992   0.550   6.574  12.029  0.0225  0.5174 -1.4173
 3193TIP3   OH230993   2.206   6.541  15.147  0.2419  0.2639 -0.3459
 3193TIP3    H130994   2.144   6.557  15.075 -1.3171  1.0630  1.1262
 3193TIP3    H230995   2.187   6.611  15.210 -0.3658 -2.0065  2.1054
 3194TIP3   OH230996   5.101   0.542  15.193 -0.0570  0.6435 -0.1159
 3194TIP3    H130997   5.087   0.572  15.103 -0.8410 -1.1464 -0.6150
 3194TIP3    H230998   5.092   0.447  15.188 -2.7050  0.7158  2.3289
 3195TIP3   OH230999   1.742   0.670  15.225 -0.0618  0.2817 -0.0094
 3195TIP3    H131000   1.731   0.597  15.164  0.2045 -0.3420  0.6783
 3195TIP3    H231001   1.828   0.705  15.206  0.7139 -0.9579  1.0977
 3196TIP3   OH231002   0.496   6.160   5.018  0.3343  0.5099 -0.2845
 3196TIP3    H131003   0.558   6.100   4.977  0.6847  0.6333  0.0651
 3196TIP3    H231004   0.543   6.243   5.024 -0.1572  0.8225 -0.7843
 3197TIP3   OH231005   6.079   4.487  17.073 -0.3261 -0.2839  0.4059
 3197TIP3    H131006   6.047   4.433  17.001 -0.7523 -1.2687  1.3206
 3197TIP3    H231007   6.001   4.509  17.123 -0.5254  3.4063 -1.4132
 3198TIP3   OH231008   1.315   0.584  16.668  0.0326 -0.2351  0.1851
 3198TIP3    H131009   1.296   0.567  16.576 -0.6408 -1.7268  0.5811
 3198TIP3    H231010   1.358   0.669  16.669 -0.0762 -0.1537 -1.4939
 3199TIP3   OH231011   6.500   6.122   4.745  0.3523  0.0485 -0.4052
 3199TIP3    H131012   6.543   6.199   4.781  1.1835 -0.8988  0.6971
 3199TIP3    H231013   6.567   6.078   4.694 -0.4719  0.7001 -2.0776
 3200TIP3   OH231014   6.575   0.859  15.430 -0.1976 -0.0903 -0.3732
 3200TIP3    H131015   6.544   0.882  15.342 -0.2349  0.8861 -0.1101
 3200TIP3    H231016   6.665   0.893  15.432 -0.2162 -0.0659 -0.0172
 3201TIP3   OH231017   3.303   4.996   0.776 -0.4953  0.1487  0.2894
 3201TIP3    H131018   3.377   4.940   0.800 -0.5478  0.0296  0.1760
 3201TIP3    H231019   3.226   4.943   0.793 -0.4846 -0.5793 -1.7219
 3202TIP3   OH231020   1.639   0.133   3.076  0.2874  0.1030 -0.3891
 3202TIP3    H131021   1.666   0.223   3.092  0.9275 -0.2389  0.4804
 3202TIP3    H231022   1.721   0.085   3.066 -0.0464 -0.1136 -2.4584
 3203TIP3   OH231023   5.463   1.992  11.696 -0.0921 -0.1166 -0.1752
 3203TIP3    H131024   5.552   2.015  11.725  0.1670 -0.0011 -1.0384
 3203TIP3    H231025   5.422   2.076  11.677 -0.2497 -0.1924 -0.1663
 3204TIP3   OH231026   0.827   5.616  17.019  0.1774 -0.1589 -0.2300
 3204TIP3    H131027   0.889   5.589  17.087  0.2017  0.0731 -0.1607
 3204TIP3    H231028   0.855   5.570  16.940 -0.1229 -0.7830  0.0230
 3205TIP3   OH231029   1.754   0.772   3.331  0.1544 -0.0031  0.1290
 3205TIP3    H131030   1.776   0.844   3.391  1.2640  0.9315 -1.3455
 3205TIP3    H231031   1.765   0.810   3.244  0.5422 -1.9102 -0.6768
 3206TIP3   OH231032   4.333   3.818  17.010  0.1742  0.5071 -0.3727
 3206TIP3    H131033   4.371   3.783  17.091 -1.1484  0.2791  0.1671
 3206TIP3    H231034   4.280   3.746  16.976  0.1738  0.8385 -1.0798
 3207TIP3   OH231035   2.915   0.501   2.333  0.7646 -0.0145 -0.3406
 3207TIP3    H131036   3.008   0.477   2.337  0.5262 -0.6760  2.0400
 3207TIP3    H231037   2.908   0.579   2.387  0.0013  0.2556 -0.8319
 3208TIP3   OH231038   1.558   3.763  11.951 -0.6136  0.1688  0.8284
 3208TIP3    H131039   1.495   3.767  12.023  0.5188  0.6480  1.7936
 3208TIP3    H231040   1.624   3.700  11.980  0.4013  1.1501  0.6476
 3209TIP3   OH231041   2.666   0.497  12.771 -0.1842  0.4643  0.2521
 3209TIP3    H131042   2.720   0.573  12.795 -0.0657 -0.2390  2.3425
 3209TIP3    H231043   2.576   0.527  12.786 -0.1457  0.2517  0.9216
 3210TIP3   OH231044   2.601   3.348   6.366  0.3057  0.3324 -0.0664
 3210TIP3    H131045   2.671   3.352   6.302 -1.1786 -0.4997 -1.7960
 3210TIP3    H231046   2.532   3.297   6.323 -1.9440  2.3777  1.0224
 3211TIP3   OH231047   4.858   5.986  11.521 -0.0624  0.0658 -0.0636
 3211TIP3    H131048   4.861   6.081  11.512 -1.1381  0.0524 -0.7210
 3211TIP3    H231049   4.846   5.971  11.615  0.1264  0.5750  0.0432
 3212TIP3   OH231050   1.775   1.784  16.746  0.3141  0.2547  0.3687
 3212TIP3    H131051   1.754   1.834  16.825 -2.1890  1.5198 -1.0591
 3212TIP3    H231052   1.731   1.830  16.675  2.2901 -1.0348 -1.7593
 3213TIP3   OH231053   5.950   3.473   0.500  0.1192 -0.1671 -0.6501
 3213TIP3    H131054   6.025   3.417   0.521  1.0618  0.1844 -2.8913
 3213TIP3    H231055   5.933   3.455   0.408 -0.6361  1.9791 -0.9433
 3214TIP3   OH231056   4.504   1.924   3.458  0.8391 -0.2581  0.1690
 3214TIP3    H131057   4.545   1.843   3.487 -0.8896 -0.9821  0.6840
 3214TIP3    H231058   4.495   1.976   3.538  1.5027  0.2449 -0.0797
 3215TIP3   OH231059   0.472   3.160  12.452 -0.0323 -0.2011 -0.6673
 3215TIP3    H131060   0.549   3.110  12.425  0.1123 -0.8447  0.9042
 3215TIP3    H231061   0.402   3.128  12.395  0.5257 -0.6828 -1.0909
 3216TIP3   OH231062   6.356   4.986  13.905  0.0675  0.0076 -0.3955
 3216TIP3    H131063   6.363   4.892  13.925 -0.0643 -0.1310 -0.9923
 3216TIP3    H231064   6.447   5.016  13.898  0.1395  0.2370  1.1988
 3217TIP3   OH231065   1.704   6.277  14.042 -0.1284  0.3852  0.4293
 3217TIP3    H131066   1.751   6.334  13.981 -0.0310  0.9116  0.9902
 3217TIP3    H231067   1.744   6.191  14.030  0.1099  0.5578 -0.0209
 3218TIP3   OH231068   5.197   1.284  13.455 -0.1199  0.8853 -0.5076
 3218TIP3    H131069   5.172   1.333  13.377 -1.9733 -1.5309 -1.5010
 3218TIP3    H231070   5.115   1.270  13.503  0.2231 -1.7658 -0.5985
 3219TIP3   OH231071   5.010   3.893   2.167  0.7307 -0.6117 -0.0077
 3219TIP3    H131072   5.065   3.926   2.095 -0.1882  0.4281 -0.2544
 3219TIP3    H231073   5.060   3.821   2.205  1.7057 -0.4755 -1.0168
 3220TIP3   OH231074   2.035   5.899  15.821  0.2317  0.1971  0.7121
 3220TIP3    H131075   2.058   5.982  15.861  0.3331  0.7446 -0.4740
 3220TIP3    H231076   2.115   5.871  15.776  0.4593 -0.9622  1.8062
 3221TIP3   OH231077   1.968   1.886   0.564  0.6151 -0.4186  0.3344
 3221TIP3    H131078   1.877   1.906   0.586  0.0299 -1.6423 -0.8976
 3221TIP3    H231079   1.964   1.853   0.474  2.3374 -0.0338  0.1023
 3222TIP3   OH231080   4.456   4.562   4.397 -0.0656  0.8725  0.2361
 3222TIP3    H131081   4.383   4.619   4.372  0.8322  1.6947 -0.5509
 3222TIP3    H231082   4.500   4.542   4.315  0.3790  0.0641  0.6641
 3223TIP3   OH231083   6.502   0.560  13.670 -0.1868 -0.4073  0.3074
 3223TIP3    H131084   6.548   0.622  13.614 -2.2763 -0.4231 -1.4934
 3223TIP3    H231085   6.426   0.610  13.703  0.3558 -0.7654  2.1763
 3224TIP3   OH231086   0.935   4.421   0.980  0.2403 -0.0750  0.6713
 3224TIP3    H131087   0.958   4.333   1.009  1.1368  0.3428  1.2663
 3224TIP3    H231088   0.990   4.435   0.902  1.1108  0.4659  1.3765
 3225TIP3   OH231089   5.468   0.334   0.858 -0.1694  0.2425 -0.1732
 3225TIP3    H131090   5.413   0.300   0.787  0.9909 -1.5240 -0.2513
 3225TIP3    H231091   5.519   0.259   0.887 -0.0483  1.1421  2.0137
 3226TIP3   OH231092   3.350   6.391   4.802 -0.2258  0.3497  0.4243
 3226TIP3    H131093   3.276   6.367   4.857  2.1591 -1.6816  2.8727
 3226TIP3    H231094   3.389   6.467   4.845 -0.8268  1.4010 -0.8450
 3227TIP3   OH231095   1.466   0.051  14.717  0.1742 -0.0431 -0.2769
 3227TIP3    H131096   1.449  -0.035  14.677 -0.0477 -0.4648  0.7123
 3227TIP3    H231097   1.386   0.071  14.766 -0.9326  2.0633 -2.8050
 3228TIP3   OH231098   0.135   5.555   1.213  0.2367  0.2710  0.8072
 3228TIP3    H131099   0.214   5.534   1.263 -0.1756  1.6229  2.0492
 3228TIP3    H231100   0.063   5.537   1.272 -0.5194 -2.4532 -0.8469
 3229TIP3   OH231101   0.879   3.920   2.483 -0.5893  0.0291  0.2429
 3229TIP3    H131102   0.937   3.928   2.558  0.4618  0.2056 -0.5736
 3229TIP3    H231103   0.861   4.011   2.457 -1.9073 -0.0043  0.9925
 3230TIP3   OH231104   2.169   4.521  12.975  0.0071  0.2683 -0.8501
 3230TIP3    H131105   2.125   4.500  12.893 -1.5116 -0.5861  0.1592
 3230TIP3    H231106   2.130   4.603  13.003  0.5201  0.5569 -0.9674
 3231TIP3   OH231107   3.754   5.883   5.881 -0.0623  0.4411 -0.4947
 3231TIP3    H131108   3.684   5.948   5.879 -0.0169  0.4809 -2.5179
 3231TIP3    H231109   3.824   5.924   5.932 -0.7308  1.2296 -0.2056
 3232TIP3   OH231110   5.232   2.011   5.925  0.1494 -0.2509 -0.0022
 3232TIP3    H131111   5.321   2.013   5.961  0.1568  2.0293 -0.1204
 3232TIP3    H231112   5.190   1.937   5.970  2.2259 -1.6676 -0.3018
 3233TIP3   OH231113   2.742   3.366   5.398  0.3560  0.8388  0.2799
 3233TIP3    H131114   2.727   3.458   5.378  1.0347  0.6892 -0.9402
 3233TIP3    H231115   2.733   3.360   5.493  0.1369  2.1229  0.3445
 3234TIP3   OH231116   0.527   5.476  12.943 -0.5873 -0.1772 -0.3463
 3234TIP3    H131117   0.549   5.505  12.855  0.3219  3.0086  0.8544
 3234TIP3    H231118   0.606   5.431  12.974  0.9951  3.0293  0.5474
 3235TIP3   OH231119   6.357   6.584  17.100 -0.0334 -0.7453 -0.1570
 3235TIP3    H131120   6.267   6.577  17.131  0.0694  0.1065  0.3339
 3235TIP3    H231121   6.407   6.523  17.154 -0.0496 -0.0934  0.5907
 3236TIP3   OH231122   0.738   0.332  16.851  0.3712 -0.3971 -0.5675
 3236TIP3    H131123   0.708   0.346  16.761 -0.0415  0.6480 -0.2841
 3236TIP3    H231124   0.746   0.421  16.887 -0.1913 -0.8354  0.6624
 3237TIP3   OH231125   6.322   3.263   0.106 -0.0520  0.4280 -0.3963
 3237TIP3    H131126   6.389   3.219   0.158  0.0661  0.7254 -0.2948
 3237TIP3    H231127   6.360   3.349   0.086 -0.0946  0.3182 -0.9650
 3238TIP3   OH231128   5.957   5.912  14.839  0.5223 -0.2187 -0.0716
 3238TIP3    H131129   5.971   5.826  14.879  1.3535  0.2241  0.6044
 3238TIP3    H231130   5.923   5.893  14.752 -2.7746 -1.1985  1.3467
 3239TIP3   OH231131   4.695   6.153   2.262 -0.0688 -0.2678  0.4602
 3239TIP3    H131132   4.668   6.151   2.354 -0.7239  0.6627  0.2847
 3239TIP3    H231133   4.713   6.061   2.241 -0.5413 -0.5628  1.3300
 3240TIP3   OH231134   1.943   5.561  14.834  0.7413 -0.6980  0.0530
 3240TIP3    H131135   1.901   5.634  14.880 -0.9253 -0.1326 -2.3180
 3240TIP3    H231136   2.034   5.564  14.863  0.0026  0.3847  2.3622
 3241TIP3   OH231137   5.093   1.266   6.481 -0.0680  0.2710 -0.4707
 3241TIP3    H131138   5.116   1.358   6.471  0.8847 -0.2809 -3.8344
 3241TIP3    H231139   4.997   1.264   6.480 -0.0830  1.1705 -0.8033
 3242TIP3   OH231140   2.402   2.160   5.729  0.0937  0.1336  0.0837
 3242TIP3    H131141   2.352   2.231   5.770  0.4767  0.3116  0.2447
 3242TIP3    H231142   2.444   2.115   5.802 -0.3125 -0.3881 -0.0029
 3243TIP3   OH231143   2.720   3.094  15.701 -0.6387  0.0788 -0.2936
 3243TIP3    H131144   2.635   3.081  15.744  0.0700 -1.4508  0.6880
 3243TIP3    H231145   2.765   3.157  15.758 -0.6983  0.0710 -0.2372
 3244TIP3   OH231146   5.254   5.660   1.013  0.4784 -0.0013 -0.9347
 3244TIP3    H131147   5.293   5.691   1.094 -0.6198 -1.0931  0.0368
 3244TIP3    H231148   5.181   5.604   1.041 -0.5081  0.3717 -2.6768
 3245TIP3   OH231149   3.795   3.788  15.213 -0.0615  0.0010  0.3913
 3245TIP3    H131150   3.763   3.787  15.304 -1.1054  0.2518  0.0429
 3245TIP3    H231151   3.872   3.844  15.215  1.5921 -2.2458  1.6450
 3246TIP3   OH231152   6.450   4.061   5.315  0.4057 -0.3750 -0.1283
 3246TIP3    H131153   6.406   3.981   5.285  1.9467 -0.6761 -1.6564
 3246TIP3    H231154   6.481   4.040   5.403 -1.9057 -0.3817  0.7090
 3247TIP3   OH231155   2.519   0.290  16.897 -0.3499  0.1088 -0.6169
 3247TIP3    H131156   2.541   0.242  16.817 -1.8007 -1.1685 -0.2780
 3247TIP3    H231157   2.577   0.366  16.897  0.9368 -0.8643 -1.9380
 3248TIP3   OH231158   1.411   0.328   3.774 -0.4928  0.3706  0.1824
 3248TIP3    H131159   1.453   0.325   3.689  1.5864 -0.0256  1.1959
 3248TIP3    H231160   1.373   0.241   3.786 -0.2689  0.2360 -0.0799
 3249TIP3   OH231161   2.717   2.829   6.033  0.6684  0.3556  0.3105
 3249TIP3    H131162   2.801   2.784   6.029  0.8546  0.6835  0.4948
 3249TIP3    H231163   2.731   2.902   6.094  1.2624  2.5534 -2.3541
 3250TIP3   OH231164   5.412   5.762  15.010 -0.0107 -0.2697 -0.3477
 3250TIP3    H131165   5.321   5.785  15.028  0.1835 -0.1496  0.5158
 3250TIP3    H231166   5.442   5.718  15.090  0.8447  0.1847 -0.4081
 3251TIP3   OH231167   2.350   1.557  14.993  0.6019 -0.2691 -0.3245
 3251TIP3    H131168   2.370   1.588  15.081 -0.3484 -2.2078  0.6197
 3251TIP3    H231169   2.430   1.571  14.944  1.2261  0.6156  0.9275
 3252TIP3   OH231170   4.378   6.254   3.936  0.3167 -0.1346  0.0522
 3252TIP3    H131171   4.410   6.234   4.025  0.8391 -2.5272 -0.6328
 3252TIP3    H231172   4.452   6.234   3.879 -0.2065  0.8522 -0.9844
 3253TIP3   OH231173   5.138   0.267   0.454  0.2896 -0.6607  0.4342
 3253TIP3    H131174   5.156   0.250   0.362  0.7192  1.4256  0.1243
 3253TIP3    H231175   5.218   0.308   0.487 -0.1087 -0.7782  1.5661
 3254TIP3   OH231176   4.425   1.380   3.617  0.2531 -0.6315  0.5749
 3254TIP3    H131177   4.517   1.402   3.603  0.1158 -1.7331 -2.2811
 3254TIP3    H231178   4.391   1.453   3.670  1.9265  1.5701 -1.2860
 3255TIP3   OH231179   0.483   0.797   4.828 -0.0953 -0.4332 -0.4655
 3255TIP3    H131180   0.394   0.785   4.862 -0.0385  1.6436  0.5077
 3255TIP3    H231181   0.474   0.869   4.765  0.6336 -1.2167 -1.4684
 3256TIP3   OH231182   5.336   3.159  16.084 -0.1888 -0.3250  0.3215
 3256TIP3    H131183   5.245   3.138  16.105 -0.3523  0.6178  0.5739
 3256TIP3    H231184   5.380   3.166  16.168 -0.0802  0.1030  0.2293
 3257TIP3   OH231185   6.741   3.499   1.962 -0.3375 -0.4015  0.0821
 3257TIP3    H131186   6.669   3.560   1.946  0.3194  0.6009  0.9394
 3257TIP3    H231187   6.700   3.425   2.006 -1.2423 -0.8701 -1.4985
 3258TIP3   OH231188   5.626   0.784  16.365 -0.2238 -0.1054 -0.1000
 3258TIP3    H131189   5.717   0.794  16.338 -0.6923  0.0175 -1.6512
 3258TIP3    H231190   5.582   0.748  16.288 -1.3349 -0.9064  0.8966
 3259TIP3   OH231191   0.576   2.048   6.004  0.0180 -0.2619  0.3366
 3259TIP3    H131192   0.515   2.116   5.977 -0.2232 -0.0355  1.4291
 3259TIP3    H231193   0.660   2.075   5.967  0.0134  0.8744  1.1319
 3260TIP3   OH231194   3.065   6.413  13.027  0.2825 -0.0590  0.4887
 3260TIP3    H131195   3.078   6.507  13.041  1.7239 -0.0864 -0.5611
 3260TIP3    H231196   3.002   6.409  12.955  0.6984  0.1121  0.1119
 3261TIP3   OH231197   4.902   0.080  13.057 -0.3285  0.0289 -0.8673
 3261TIP3    H131198   4.952   0.131  12.993 -1.3959 -0.8729 -2.4581
 3261TIP3    H231199   4.918  -0.011  13.032  0.2005 -0.3811  0.9079
 3262TIP3   OH231200   4.523   3.240   5.411  0.1624 -0.6945  0.5531
 3262TIP3    H131201   4.578   3.185   5.467  0.1817 -1.7291 -0.4670
 3262TIP3    H231202   4.538   3.329   5.443  2.1079 -1.0067  0.5719
 3263TIP3   OH231203   2.261   6.062  17.202  0.2716 -0.1585  0.0278
 3263TIP3    H131204   2.231   6.153  17.205 -0.8157 -0.5216  0.5148
 3263TIP3    H231205   2.309   6.050  17.285 -1.9643 -0.8117  1.2690
 3264TIP3   OH231206   0.562   2.754   5.351  0.8624 -0.6161 -0.6237
 3264TIP3    H131207   0.605   2.786   5.430 -1.3448 -0.7582  0.6720
 3264TIP3    H231208   0.634   2.739   5.289  2.5436  0.2697  1.0610
 3265TIP3   OH231209   3.189   4.331   4.949  0.2653  0.6187  0.1983
 3265TIP3    H131210   3.267   4.311   4.899 -0.1344  1.2890 -0.7050
 3265TIP3    H231211   3.179   4.257   5.009  0.2919 -0.5723 -1.2570
 3266TIP3   OH231212   3.400   1.153   4.565  0.3550  0.0227  0.0006
 3266TIP3    H131213   3.377   1.246   4.568 -1.7260 -0.4998  0.7980
 3266TIP3    H231214   3.318   1.107   4.582  1.6330 -1.9476  0.9780
 3267TIP3   OH231215   5.402   2.077  16.523 -0.6864  0.3054 -0.8249
 3267TIP3    H131216   5.415   2.148  16.586  0.5630 -0.9237  0.3437
 3267TIP3    H231217   5.437   2.111  16.441  0.5307  0.8037 -0.1151
 3268TIP3   OH231218   2.517   2.131   4.294  0.1797 -0.0684 -0.0080
 3268TIP3    H131219   2.445   2.111   4.234 -0.2157  0.3168  0.3308
 3268TIP3    H231220   2.585   2.170   4.239 -0.6681  1.4222 -0.0265
 3269TIP3   OH231221   6.782   6.242   2.202 -0.7228  0.6048  0.0183
 3269TIP3    H131222   6.834   6.313   2.165 -1.0653  0.1374 -1.3949
 3269TIP3    H231223   6.845   6.172   2.218 -0.9925 -0.3175 -2.5894
 3270TIP3   OH231224   4.824   0.411  15.668  0.5009 -0.0285 -0.2942
 3270TIP3    H131225   4.894   0.387  15.607  1.9501 -0.7986  1.6190
 3270TIP3    H231226   4.829   0.345  15.737 -0.7590  1.1127  0.9216
 3271TIP3   OH231227   3.721   2.104   4.151 -0.0338  0.0161 -0.4521
 3271TIP3    H131228   3.644   2.136   4.199  0.5788 -0.8335  1.1642
 3271TIP3    H231229   3.743   2.022   4.195  1.4511 -0.0271 -1.2684
 3272TIP3   OH231230   5.820   5.558   2.296 -0.3335  0.4187 -0.4495
 3272TIP3    H131231   5.886   5.545   2.228  1.2117 -0.2187  1.1147
 3272TIP3    H231232   5.778   5.473   2.306 -0.3416  0.4291 -0.3926
 3273TIP3   OH231233   5.884   1.835   6.767  0.2735 -0.2980  0.0380
 3273TIP3    H131234   5.907   1.824   6.859 -1.0844 -1.2100  0.2858
 3273TIP3    H231235   5.925   1.918   6.741  0.5047  0.0518  1.5100
 3274TIP3   OH231236   6.634   2.120  17.091  1.2121 -0.0589 -0.2814
 3274TIP3    H131237   6.560   2.072  17.054  0.2879 -0.1461  1.6093
 3274TIP3    H231238   6.711   2.071  17.062  0.4880 -0.4865 -1.5220
 3275TIP3   OH231239   1.599   3.836   4.584  0.1120  0.4268  0.0098
 3275TIP3    H131240   1.597   3.905   4.651 -0.4954  0.7314 -0.3119
 3275TIP3    H231241   1.628   3.881   4.505 -0.4507  0.3510 -0.2403
 3276TIP3   OH231242   4.461   6.277   2.753 -0.1653 -0.0310  0.3285
 3276TIP3    H131243   4.524   6.298   2.822  1.4102 -1.6233 -0.5841
 3276TIP3    H231244   4.407   6.208   2.790 -0.4962  0.3784  0.6151
 3277TIP3   OH231245   1.447   3.204  14.590 -0.2171  0.3112  0.2848
 3277TIP3    H131246   1.463   3.279  14.532  0.4792 -0.2488 -0.2636
 3277TIP3    H231247   1.493   3.227  14.671  1.7700 -0.4175 -0.6045
 3278TIP3   OH231248   1.800   2.845  17.182 -0.9422  0.6061  0.2068
 3278TIP3    H131249   1.820   2.751  17.191 -1.9588  0.5329  1.8792
 3278TIP3    H231250   1.859   2.888  17.244  0.5053  1.2289 -1.5502
 3279TIP3   OH231251   6.294   1.994  15.133  0.7771  0.2923 -0.4139
 3279TIP3    H131252   6.348   1.916  15.119 -0.2215 -0.1982 -1.5907
 3279TIP3    H231253   6.262   2.018  15.046 -1.6713 -0.0079  0.3640
 3280TIP3   OH231254   1.781   6.234  15.956 -0.2321  0.0313 -0.5938
 3280TIP3    H131255   1.693   6.268  15.969 -0.0690  0.6615 -1.0860
 3280TIP3    H231256   1.834   6.278  16.023  0.1162  1.3092 -1.6955
 3281TIP3   OH231257   5.710   5.770   1.755 -0.5089  0.2016 -0.7398
 3281TIP3    H131258   5.793   5.805   1.723  0.0798 -0.0383  0.5042
 3281TIP3    H231259   5.667   5.736   1.676 -0.1735  1.8106 -1.6357
 3282TIP3   OH231260   0.078   6.730  12.959 -0.0780 -0.2198  0.0998
 3282TIP3    H131261   0.104   6.718  12.868  1.6467 -1.5858  0.7518
 3282TIP3    H231262   0.087   6.643  12.998 -1.5751  0.1867  1.3842
 3283TIP3   OH231263   2.831   3.597   3.135 -0.7019 -0.1200 -0.6710
 3283TIP3    H131264   2.746   3.566   3.105 -1.1661  0.0341  0.4518
 3283TIP3    H231265   2.813   3.640   3.219  0.3709  0.5477 -0.7699
 3284TIP3   OH231266   1.176   6.375  11.622  0.0531 -0.2405 -0.2687
 3284TIP3    H131267   1.267   6.344  11.629  0.0929  0.2395  1.5691
 3284TIP3    H231268   1.153   6.400  11.711 -1.3299  1.2567 -1.0428
 3285TIP3   OH231269   0.196   3.763  14.205 -0.2283 -0.3515  0.0483
 3285TIP3    H131270   0.231   3.677  14.229 -1.2699 -0.4295  1.3664
 3285TIP3    H231271   0.127   3.779  14.270 -0.3409  1.2795 -0.4638
 3286TIP3   OH231272   2.475   5.341  12.842 -0.5350 -1.1445  0.3611
 3286TIP3    H131273   2.527   5.406  12.796 -0.0405 -2.3429 -0.8005
 3286TIP3    H231274   2.385   5.360  12.818 -0.5880  0.4040  1.7002
 3287TIP3   OH231275   4.754   1.548   6.340 -0.4281 -0.2254 -0.3790
 3287TIP3    H131276   4.666   1.581   6.321 -0.4879 -0.5289 -0.6301
 3287TIP3    H231277   4.813   1.616   6.305 -0.5556 -0.2769 -0.6967
 3288TIP3   OH231278   0.159   6.038  10.809  0.0046  0.3214 -1.0853
 3288TIP3    H131279   0.160   5.950  10.770 -0.4328 -1.0435  1.8976
 3288TIP3    H231280   0.086   6.082  10.766 -2.4970 -2.2272  0.3783
 3289TIP3   OH231281   4.262   4.501   3.043 -0.5459 -0.6094  0.0232
 3289TIP3    H131282   4.349   4.479   3.009 -0.4930 -0.4931  0.0846
 3289TIP3    H231283   4.279   4.532   3.132 -0.7765 -1.8793  0.5298
 3290TIP3   OH231284   4.425   2.792  16.477 -0.0682  0.2250 -0.1798
 3290TIP3    H131285   4.418   2.697  16.487 -2.6163  0.6439  2.9927
 3290TIP3    H231286   4.336   2.820  16.454  0.4923  1.9373 -0.3124
 3291TIP3   OH231287   4.222   3.182  12.887 -0.2586  0.2409  0.0553
 3291TIP3    H131288   4.213   3.257  12.828 -2.0752  0.8449  1.0634
 3291TIP3    H231289   4.176   3.110  12.842  1.1510 -0.1816 -0.7338
 3292TIP3   OH231290   4.907   6.475   2.909 -0.2569  0.0544 -0.0908
 3292TIP3    H131291   4.957   6.472   2.990  0.2443 -2.6277 -0.4444
 3292TIP3    H231292   4.959   6.529   2.850  1.1967 -0.9621  0.2336
 3293TIP3   OH231293   6.003   1.813  13.608  0.6250 -0.4190 -0.1420
 3293TIP3    H131294   6.050   1.761  13.673 -0.7439 -1.0358  0.3863
 3293TIP3    H231295   6.001   1.901  13.644  2.1656 -0.1837 -0.6090
 3294TIP3   OH231296   3.680   6.580  15.689  0.8512  0.1198  0.3135
 3294TIP3    H131297   3.640   6.498  15.658 -2.7766  1.0563  2.1744
 3294TIP3    H231298   3.726   6.556  15.769 -0.6116 -0.0887  1.1203
 3295TIP3   OH231299   6.429   3.679  13.882 -0.2064 -0.3492 -0.4052
 3295TIP3    H131300   6.339   3.674  13.915 -0.3208  1.1371 -0.4877
 3295TIP3    H231301   6.447   3.590  13.849 -1.4852 -0.7689 -0.0031
 3296TIP3   OH231302   3.402   4.178   0.732  0.2027  0.6646 -0.5420
 3296TIP3    H131303   3.310   4.203   0.746 -0.4238 -0.9660 -1.5006
 3296TIP3    H231304   3.451   4.230   0.795 -1.3341  1.9627 -0.3710
 3297TIP3   OH231305   1.679   4.357  10.618  0.0994 -0.2394 -0.5705
 3297TIP3    H131306   1.662   4.451  10.614  0.0800 -0.1886  0.6353
 3297TIP3    H231307   1.748   4.342  10.553  1.2617  0.8684  0.3918
 3298TIP3   OH231308   2.664   3.492  14.500  0.3647 -0.1526 -0.4128
 3298TIP3    H131309   2.593   3.466  14.559 -0.3075  1.2293 -0.5959
 3298TIP3    H231310   2.642   3.451  14.416  0.0699 -0.1685 -0.3265
 3299TIP3   OH231311   2.769   1.055  13.089  0.0343 -0.2380 -0.0495
 3299TIP3    H131312   2.702   1.114  13.055 -0.5518 -0.1215  1.2467
 3299TIP3    H231313   2.735   0.967  13.071  0.0835 -0.1801 -0.4269
 3300TIP3   OH231314   0.372   6.592  12.853  0.1372 -0.4773  0.6729
 3300TIP3    H131315   0.456   6.638  12.858  0.2251 -0.7051  1.2740
 3300TIP3    H231316   0.339   6.613  12.766 -0.1302  1.2516  1.1737
 3301TIP3   OH231317   0.607   6.504   0.725 -0.5820 -0.1556 -0.0668
 3301TIP3    H131318   0.676   6.480   0.664  0.0903 -0.8316  0.9434
 3301TIP3    H231319   0.572   6.586   0.690 -1.4679 -1.4754 -2.3707
 3302TIP3   OH231320   0.064   0.001  16.598  0.4983 -0.0528 -0.0474
 3302TIP3    H131321   0.150  -0.026  16.631  0.2042 -1.2561 -0.2420
 3302TIP3    H231322   0.074  -0.000  16.503  1.6367  4.3638 -0.0920
 3303TIP3   OH231323   6.506   6.167   2.218 -0.1163  0.0230  0.0303
 3303TIP3    H131324   6.463   6.237   2.169 -1.2909 -0.4941  0.3148
 3303TIP3    H231325   6.599   6.194   2.221 -0.3631  1.0070 -0.8058
 3304TIP3   OH231326   2.277   6.426   1.237 -0.6126  0.0282  0.1305
 3304TIP3    H131327   2.357   6.396   1.194 -0.1910  0.3108  0.7067
 3304TIP3    H231328   2.240   6.348   1.278  1.4204  0.5678  3.1327
 3305TIP3   OH231329   0.028   0.543   1.943 -0.4221 -0.1704 -0.4994
 3305TIP3    H131330   0.108   0.568   1.897 -0.2606 -3.2461 -2.0236
 3305TIP3    H231331  -0.041   0.547   1.877 -1.1757  0.4990  0.3072
 3306TIP3   OH231332   0.458   1.436   1.167  0.3729  0.4743 -0.1197
 3306TIP3    H131333   0.438   1.343   1.158  0.2818  0.4899 -0.0731
 3306TIP3    H231334   0.536   1.449   1.112  1.7182 -0.0926  1.5937
 3307TIP3   OH231335   2.533   3.501  16.538  0.3330 -0.2274  0.1049
 3307TIP3    H131336   2.456   3.498  16.595  0.2756 -0.1294  0.0308
 3307TIP3    H231337   2.500   3.474  16.452  0.7772 -2.1095  0.5061
 3308TIP3   OH231338   2.977   2.785   1.106  0.3853 -0.1227  0.4672
 3308TIP3    H131339   2.894   2.790   1.059  1.2531 -1.2422 -1.2563
 3308TIP3    H231340   2.971   2.853   1.173 -1.4269  0.6195 -0.4112
 3309TIP3   OH231341   4.392   6.539  13.970  0.0931 -0.1506  0.3066
 3309TIP3    H131342   4.354   6.540  13.882  0.0911 -2.0156  0.2677
 3309TIP3    H231343   4.472   6.590  13.962 -0.4975  0.6597 -0.5086
 3310TIP3   OH231344   1.731   4.673  13.151 -0.1449  0.6917  0.5604
 3310TIP3    H131345   1.704   4.588  13.117 -0.8944 -0.2322  3.2947
 3310TIP3    H231346   1.670   4.689  13.223  0.2007  3.4002  0.2826
 3311TIP3   OH231347   5.779   6.744   5.277  0.0361  0.2689 -0.0029
 3311TIP3    H131348   5.705   6.713   5.329  0.2490 -1.3503 -0.6387
 3311TIP3    H231349   5.828   6.665   5.256  0.4209  0.9944 -1.9484
 3312TIP3   OH231350   1.722   2.188  14.009 -0.2048  0.2754 -0.1243
 3312TIP3    H131351   1.797   2.139  13.977  0.0704  1.4054 -1.2576
 3312TIP3    H231352   1.646   2.137  13.980  0.1012  0.0148 -0.4713
 3313TIP3   OH231353   4.542   4.282  12.115 -0.0426  0.5040 -0.4860
 3313TIP3    H131354   4.582   4.211  12.065  1.2301  0.1773  0.9765
 3313TIP3    H231355   4.449   4.278  12.092  0.1781 -1.0364 -1.1312
 3314TIP3   OH231356   0.089   5.047   0.958  0.3019 -0.3456  0.0407
 3314TIP3    H131357   0.066   5.115   0.896 -1.3566 -0.1263  0.8668
 3314TIP3    H231358   0.078   5.088   1.044 -1.8994 -1.9902  0.5806
 3315TIP3   OH231359   6.661   5.524  11.465 -0.1074 -0.2411  0.2911
 3315TIP3    H131360   6.683   5.452  11.407 -0.4537  0.9975 -1.4317
 3315TIP3    H231361   6.575   5.554  11.435 -0.0626  0.7645  1.1023
 3316TIP3   OH231362   0.247   2.221   3.155 -0.4562 -0.6812 -0.5491
 3316TIP3    H131363   0.237   2.190   3.245  1.2516 -1.1970 -0.5053
 3316TIP3    H231364   0.312   2.291   3.161  0.6620 -1.6098 -1.5329
 3317TIP3   OH231365   2.071   0.571   4.967  1.0353  0.4905  0.0705
 3317TIP3    H131366   2.113   0.647   4.926  1.6309  0.3924  0.4950
 3317TIP3    H231367   2.062   0.508   4.895  2.6902  0.0626  0.2072
 3318TIP3   OH231368   0.578   6.555   3.315 -1.0009 -0.6489 -0.3879
 3318TIP3    H131369   0.509   6.617   3.339 -1.4596 -0.3045 -2.4509
 3318TIP3    H231370   0.564   6.539   3.221  0.5925 -2.0083 -0.4198
 3319TIP3   OH231371   0.056   6.216  11.198 -0.3137 -0.0513 -0.2540
 3319TIP3    H131372  -0.031   6.244  11.170 -0.1887  0.9051  0.3094
 3319TIP3    H231373   0.076   6.271  11.273  0.1570 -1.2936  0.5414
 3320TIP3   OH231374   6.123   3.492   5.593 -0.2025 -0.7052  0.2043
 3320TIP3    H131375   6.035   3.456   5.594 -0.4719 -0.0643 -0.1426
 3320TIP3    H231376   6.150   3.492   5.685 -1.2798  0.8273  0.5393
 3321TIP3   OH231377   1.803   5.718  12.819 -0.5283 -0.0528  0.2207
 3321TIP3    H131378   1.819   5.800  12.864 -0.1957  0.2005 -0.3518
 3321TIP3    H231379   1.876   5.709  12.758 -0.9428 -0.4018 -0.2349
 3322TIP3   OH231380   5.202   2.428  12.446  0.6689 -0.5180  0.6044
 3322TIP3    H131381   5.189   2.347  12.494  1.4626 -0.6819  0.5561
 3322TIP3    H231382   5.121   2.477  12.459  0.0163 -1.4925  0.2868
 3323TIP3   OH231383   3.169   5.668  11.434 -0.0285 -0.3102 -0.1352
 3323TIP3    H131384   3.084   5.632  11.407 -0.7111  2.2204 -1.4462
 3323TIP3    H231385   3.219   5.675  11.353  0.6362  0.2454  0.3238
 3324TIP3   OH231386   1.719   6.106  13.179  0.0649  0.5513 -0.1075
 3324TIP3    H131387   1.809   6.116  13.150 -0.2724 -0.0557 -1.4231
 3324TIP3    H231388   1.714   6.016  13.212 -0.4652 -0.0127 -1.6488
 3325TIP3   OH231389   5.626   0.496  15.438  0.1539  0.7447  0.1209
 3325TIP3    H131390   5.660   0.560  15.376 -0.8244  1.0630 -0.0970
 3325TIP3    H231391   5.557   0.543  15.486 -0.3018 -0.0199  0.2274
 3326TIP3   OH231392   0.839   5.022   3.663 -0.5252 -0.0796  0.2138
 3326TIP3    H131393   0.767   4.962   3.644 -1.9709  1.8804 -0.7477
 3326TIP3    H231394   0.901   4.970   3.715 -2.2618 -2.0345  0.4071
 3327TIP3   OH231395   3.366   5.525   5.609 -0.2093 -0.3263  0.0970
 3327TIP3    H131396   3.430   5.494   5.545  0.7347 -0.2013  0.9726
 3327TIP3    H231397   3.322   5.445   5.638  0.8375 -0.6450  0.8593
 3328TIP3   OH231398   4.816   4.471  11.600  0.8095  0.1355  0.6381
 3328TIP3    H131399   4.820   4.514  11.515  0.6905  0.3265  0.7301
 3328TIP3    H231400   4.807   4.542  11.663  0.4471 -0.0286  0.7766
 3329TIP3   OH231401   3.163   0.557  12.444 -0.6405  0.3316 -0.4881
 3329TIP3    H131402   3.114   0.564  12.526 -0.3042 -0.7084 -0.1906
 3329TIP3    H231403   3.255   0.558  12.471 -0.4803  1.8851 -1.0095
 3330TIP3   OH231404   0.726   1.654  11.983 -0.5875  0.1357  0.4288
 3330TIP3    H131405   0.686   1.727  11.934 -1.1154  1.8229  3.2592
 3330TIP3    H231406   0.820   1.667  11.972 -0.6954 -0.1468 -0.9984
 3331TIP3   OH231407   4.867   6.696   1.398  0.1649 -0.3850 -0.4783
 3331TIP3    H131408   4.928   6.627   1.423  0.2684  0.4505  1.7266
 3331TIP3    H231409   4.921   6.774   1.389 -0.1906 -0.2253 -1.2951
 3332TIP3   OH231410   5.926   3.046   0.573 -0.0261 -0.0929 -0.0729
 3332TIP3    H131411   5.847   2.991   0.573 -0.2027  0.1233  1.3486
 3332TIP3    H231412   5.992   2.992   0.619  0.6426 -0.2442 -1.1844
 3333TIP3   OH231413   5.337   2.819   3.475 -0.6283 -0.1001  0.3249
 3333TIP3    H131414   5.390   2.885   3.430 -0.8182  0.1938  0.5338
 3333TIP3    H231415   5.247   2.848   3.464 -0.7373 -0.5118  0.1161
 3334TIP3   OH231416   6.367   0.675   4.856  0.8411  0.6678 -0.3648
 3334TIP3    H131417   6.394   0.632   4.937 -0.7514 -0.4745 -0.4179
 3334TIP3    H231418   6.278   0.704   4.873  0.2994 -0.0576 -1.8922
 3335TIP3   OH231419   5.804   2.032   0.657 -0.2790 -0.4047 -0.9664
 3335TIP3    H131420   5.792   2.116   0.614 -1.1391 -0.6144 -1.1365
 3335TIP3    H231421   5.881   2.045   0.714  0.1432  0.2172 -1.6672
 3336TIP3   OH231422   4.628   0.234   3.661 -0.0270 -0.5581 -0.4151
 3336TIP3    H131423   4.661   0.145   3.668  0.6522 -0.3549 -0.9479
 3336TIP3    H231424   4.699   0.289   3.694 -0.8341 -0.2717  0.8717
 3337TIP3   OH231425   3.114   5.727   5.383  1.1398  0.0463  0.2734
 3337TIP3    H131426   3.123   5.783   5.460 -0.7133 -2.0620  2.0827
 3337TIP3    H231427   3.147   5.641   5.411 -0.0300 -0.8799 -1.1061
 3338TIP3   OH231428   1.056   0.090  14.781  0.5130  0.2899  0.1958
 3338TIP3    H131429   1.004   0.020  14.743 -0.1974  0.4163  0.9221
 3338TIP3    H231430   0.992   0.152  14.816  1.1410  0.3783  1.2223
 3339TIP3   OH231431   1.586   0.375   0.087  0.0694  0.8797  0.4946
 3339TIP3    H131432   1.502   0.420   0.081 -0.0361  0.8268  1.4798
 3339TIP3    H231433   1.651   0.442   0.067 -0.2848  0.4847 -2.1517
 3340TIP3   OH231434   2.171   4.255   1.682 -0.0255 -0.2784 -0.6304
 3340TIP3    H131435   2.247   4.241   1.739 -0.5944 -0.5312  0.0645
 3340TIP3    H231436   2.183   4.190   1.612  0.5226 -0.1615 -0.6499
 3341TIP3   OH231437   3.711   3.994   1.146  0.2835 -0.3729  0.0842
 3341TIP3    H131438   3.792   4.044   1.157  0.3210 -0.8185  2.1130
 3341TIP3    H231439   3.737   3.903   1.159 -0.3809 -0.6027 -0.1669
 3342TIP3   OH231440   2.963   0.016   3.487  0.1716  0.1128 -0.4747
 3342TIP3    H131441   2.991   0.055   3.404 -0.7432 -0.6405 -1.1372
 3342TIP3    H231442   2.944  -0.075   3.466 -1.2913  0.2326  0.2886
 3343TIP3   OH231443   2.548   6.087   1.580  0.6272  0.0837 -0.5686
 3343TIP3    H131444   2.522   6.024   1.513 -3.0480  0.1999  0.6302
 3343TIP3    H231445   2.597   6.035   1.645  0.5402 -0.8382 -1.2394
 3344TIP3   OH231446   4.030   1.444  12.255  0.0942  0.5365 -0.3341
 3344TIP3    H131447   4.038   1.512  12.322 -0.6813  1.9138 -1.6155
 3344TIP3    H231448   4.043   1.490  12.172  0.4100 -1.0382 -1.1789
 3345TIP3   OH231449   2.201   5.022  12.413 -0.5402 -0.4361  0.0219
 3345TIP3    H131450   2.286   5.064  12.404 -0.3044 -0.8872  0.1403
 3345TIP3    H231451   2.153   5.078  12.474 -1.4014  1.4809 -2.3174
 3346TIP3   OH231452   5.226   3.344  12.989  0.2561 -0.2703 -0.4475
 3346TIP3    H131453   5.282   3.380  13.059 -0.3987 -1.1292  0.5317
 3346TIP3    H231454   5.277   3.357  12.909  0.7500  1.2966  0.1030
 3347TIP3   OH231455   5.417   5.091  14.547 -0.0910  0.3300 -0.8887
 3347TIP3    H131456   5.375   5.007  14.570 -0.3301  0.4184 -0.9967
 3347TIP3    H231457   5.498   5.066  14.503  0.4153  0.1534  0.1309
 3348TIP3   OH231458   6.218   1.232  16.655  0.5377  0.3647 -0.2989
 3348TIP3    H131459   6.134   1.278  16.660  0.9869  1.1899 -0.4205
 3348TIP3    H231460   6.223   1.184  16.738 -0.7909 -0.9734 -0.9591
 3349TIP3   OH231461   5.511   2.076  13.822  0.1853 -0.4494 -0.3238
 3349TIP3    H131462   5.443   2.128  13.779 -0.7406 -0.7926  0.7065
 3349TIP3    H231463   5.587   2.135  13.825 -1.0137  1.1051  1.3264
 3350TIP3   OH231464   6.130   3.703   5.422  0.3391 -0.5200  0.7441
 3350TIP3    H131465   6.092   3.637   5.479  0.4486 -1.7469 -0.5889
 3350TIP3    H231466   6.070   3.707   5.347  1.5751 -0.7514 -0.2546
 3351TIP3   OH231467   1.101   0.978   0.272 -0.7833 -0.5705 -0.1414
 3351TIP3    H131468   1.087   1.068   0.301 -0.8995 -0.2476 -1.1769
 3351TIP3    H231469   1.196   0.972   0.260 -0.8036 -0.5157 -0.3197
 3352TIP3   OH231470   3.798   4.887   2.605  0.4931  0.3012  0.0630
 3352TIP3    H131471   3.705   4.873   2.621  0.1350 -0.2379 -2.4102
 3352TIP3    H231472   3.835   4.799   2.601  0.9899  0.5004  0.2274
 3353TIP3   OH231473   6.596   0.963  12.075  0.0851 -0.5044 -0.0305
 3353TIP3    H131474   6.623   1.050  12.043 -0.7227 -0.5564 -0.8957
 3353TIP3    H231475   6.574   0.915  11.995 -2.8077 -0.3583  0.6297
 3354TIP3   OH231476   1.603   6.622  15.750 -0.3959  0.0404 -0.3321
 3354TIP3    H131477   1.596   6.534  15.713  0.8352  0.2931 -1.1710
 3354TIP3    H231478   1.512   6.652  15.756 -0.9763 -2.0016  1.7489
 3355TIP3   OH231479   5.542   1.714  14.514 -0.0583 -0.4980 -0.1928
 3355TIP3    H131480   5.623   1.678  14.549 -0.4315 -2.4736 -1.2743
 3355TIP3    H231481   5.571   1.784  14.455  0.7331  0.2254  1.0234
 3356TIP3   OH231482   3.272   2.902   0.954 -0.0069  0.2817 -0.2445
 3356TIP3    H131483   3.359   2.864   0.966 -0.6444 -1.7431 -1.7306
 3356TIP3    H231484   3.224   2.836   0.903 -1.8638  2.1322 -0.9449
 3357TIP3   OH231485   1.440   5.085  13.337 -0.6571  0.2024 -0.1393
 3357TIP3    H131486   1.458   5.179  13.337 -0.1338  0.1059 -0.2959
 3357TIP3    H231487   1.526   5.044  13.351 -0.5354 -0.3011 -2.1995
 3358TIP3   OH231488   3.283   3.608   0.211  0.1478  0.1521  0.3958
 3358TIP3    H131489   3.297   3.703   0.207 -0.8760  0.2678 -0.5496
 3358TIP3    H231490   3.311   3.575   0.126 -0.8389 -0.2069  0.1990
 3359TIP3   OH231491   3.610   3.445   4.867  0.2194 -0.7912 -0.4140
 3359TIP3    H131492   3.699   3.442   4.902  0.3710  1.2433 -0.5690
 3359TIP3    H231493   3.618   3.494   4.785 -1.0391 -0.5675 -0.4145
 3360TIP3   OH231494   1.812   3.983   0.453  0.1086 -0.2460 -0.0116
 3360TIP3    H131495   1.794   4.074   0.431 -0.6894 -0.5605 -0.7052
 3360TIP3    H231496   1.828   3.941   0.369  1.2900 -0.5864  0.3670
 3361TIP3   OH231497   5.185   6.135  15.308  0.0890 -0.5420 -0.1090
 3361TIP3    H131498   5.168   6.104  15.396  3.5306  0.2646  0.9290
 3361TIP3    H231499   5.118   6.094  15.254 -2.3553 -0.6810  2.9235
 3362TIP3   OH231500   1.648   2.887   0.198 -0.0207  0.1848 -0.5750
 3362TIP3    H131501   1.644   2.882   0.103 -1.4798 -0.2952 -0.5016
 3362TIP3    H231502   1.605   2.969   0.220 -0.3904 -0.0842 -0.2897
 3363TIP3   OH231503   0.003   6.759   4.874  0.1865 -0.0645 -0.1014
 3363TIP3    H131504  -0.087   6.774   4.902  0.1880 -0.6746  0.2258
 3363TIP3    H231505   0.045   6.715   4.948  1.2678  1.8723  0.4902
 3364TIP3   OH231506   1.773   2.660  10.503  0.0526  0.5822 -0.2212
 3364TIP3    H131507   1.851   2.636  10.552 -1.2109 -1.5160  0.8356
 3364TIP3    H231508   1.724   2.717  10.563  0.5387  1.5457 -0.7211
 3365TIP3   OH231509   5.184   5.564  15.773 -0.1046 -0.1927  0.1734
 3365TIP3    H131510   5.264   5.512  15.766 -0.0346 -0.2646  1.3533
 3365TIP3    H231511   5.136   5.525  15.846  0.0037  1.4851  1.1666
 3366TIP3   OH231512   4.823   3.699  13.790  0.0234 -0.0907  0.3104
 3366TIP3    H131513   4.754   3.766  13.787  0.9922  0.9182 -0.1323
 3366TIP3    H231514   4.845   3.684  13.698  1.6402  0.9239  0.5246
 3367TIP3   OH231515   5.945   1.363   3.475  0.4568 -0.5946  0.1191
 3367TIP3    H131516   5.885   1.402   3.539 -0.9607  2.2059 -2.7332
 3367TIP3    H231517   6.025   1.414   3.483  0.3933 -0.4652 -0.0378
 3368TIP3   OH231518   2.836   6.739  17.089  0.0026 -0.2930  0.2650
 3368TIP3    H131519   2.773   6.715  17.157  2.7436  2.4411  4.0788
 3368TIP3    H231520   2.890   6.661  17.077 -1.3742 -1.2430  0.2833
 3369TIP3   OH231521   4.160   3.623   0.256  0.2173 -0.7394  0.3643
 3369TIP3    H131522   4.109   3.560   0.307 -0.0141 -0.1950  0.8171
 3369TIP3    H231523   4.248   3.587   0.254  0.0865 -1.0724  0.6350
 3370TIP3   OH231524   4.820   2.468   2.134 -0.2602  0.6822 -0.1267
 3370TIP3    H131525   4.814   2.377   2.164  1.7696  0.5468 -0.0565
 3370TIP3    H231526   4.799   2.520   2.212  2.1535  0.2923  0.8411
 3371TIP3   OH231527   3.666   3.503  16.275 -0.3640 -0.1768  0.0721
 3371TIP3    H131528   3.700   3.467  16.194  0.4526 -0.1230  0.3891
 3371TIP3    H231529   3.734   3.564  16.306 -1.6897  1.6118 -0.4329
 3372TIP3   OH231530   4.100   6.342  11.332 -0.3363  0.1264  0.0133
 3372TIP3    H131531   4.168   6.304  11.278 -1.5446 -1.2863 -0.5473
 3372TIP3    H231532   4.101   6.291  11.413 -0.6721  0.1460  0.0346
 3373TIP3   OH231533   3.378   0.533   0.899 -0.2994 -0.0933  0.0489
 3373TIP3    H131534   3.338   0.614   0.930 -1.3272 -0.2848 -0.7505
 3373TIP3    H231535   3.304   0.478   0.874  0.4400 -0.6129 -1.0549
 3374TIP3   OH231536   2.507   2.480   0.909 -0.2560 -0.0251  0.4796
 3374TIP3    H131537   2.496   2.459   1.002 -0.3603 -0.8715  0.2774
 3374TIP3    H231538   2.457   2.413   0.863  1.7501 -1.0705 -0.2815
 3375TIP3   OH231539   5.451   5.937   1.148  0.4028 -0.0183  0.0832
 3375TIP3    H131540   5.415   6.023   1.127 -1.3468 -1.0616 -1.3608
 3375TIP3    H231541   5.376   5.887   1.180  1.4755 -0.9075  1.2196
 3376TIP3   OH231542   4.333   5.217   4.764  0.7235  0.5119 -0.4554
 3376TIP3    H131543   4.358   5.168   4.685  1.0996  1.5458 -0.9814
 3376TIP3    H231544   4.406   5.202   4.825 -1.2588 -3.3992  1.1459
 3377TIP3   OH231545   1.424   0.171   6.048  0.4055 -0.4495  0.3394
 3377TIP3    H131546   1.516   0.165   6.021  0.1826 -0.1654 -0.4950
 3377TIP3    H231547   1.407   0.265   6.057 -0.1715 -0.4427 -0.8015
 3378TIP3   OH231548   5.174   5.263  14.466 -0.1836 -0.1378  0.4492
 3378TIP3    H131549   5.243   5.244  14.529  1.2327  0.0070 -1.0206
 3378TIP3    H231550   5.119   5.184  14.465  1.4992 -1.3155 -0.3249
 3379TIP3   OH231551   4.145   2.027  11.134  0.2531 -0.2072 -0.3421
 3379TIP3    H131552   4.140   2.008  11.227  0.7880  1.4634  0.0335
 3379TIP3    H231553   4.075   1.974  11.095  0.0957 -0.9832  0.9858
 3380TIP3   OH231554   4.697   2.401  15.324  0.4074  0.2288  0.0943
 3380TIP3    H131555   4.792   2.400  15.337  0.3072  1.2430  1.0013
 3380TIP3    H231556   4.661   2.362  15.403  0.1404 -2.5018 -1.3190
 3381TIP3   OH231557   6.765   2.492   2.419 -0.5577 -0.0379  0.3489
 3381TIP3    H131558   6.781   2.545   2.497 -0.6554  1.3067 -0.5275
 3381TIP3    H231559   6.775   2.553   2.346  1.4970 -1.6846 -0.8188
 3382TIP3   OH231560   0.787   4.576  15.694  0.5656  0.2671 -0.1160
 3382TIP3    H131561   0.869   4.560  15.740 -0.0894 -1.4383  0.4615
 3382TIP3    H231562   0.719   4.568  15.761 -0.2508 -0.4816 -1.0322
 3383TIP3   OH231563   1.970   6.048  11.845  0.3473  0.6599 -0.8167
 3383TIP3    H131564   2.065   6.041  11.832  0.2053 -0.5964 -1.3005
 3383TIP3    H231565   1.944   6.123  11.792  0.9817  0.6000 -1.2239
 3384TIP3   OH231566   1.976   0.661   1.822 -0.1003  0.2390 -0.2041
 3384TIP3    H131567   1.991   0.571   1.790  1.2694  1.0571 -1.9641
 3384TIP3    H231568   1.930   0.649   1.905  0.1775 -2.1055 -0.3344
 3385TIP3   OH231569   2.739   2.795   3.816  0.3215 -0.3664 -0.7251
 3385TIP3    H131570   2.800   2.865   3.841  0.1513 -0.4897  0.0685
 3385TIP3    H231571   2.772   2.717   3.861 -2.6044  0.3663  3.0701
 3386TIP3   OH231572   3.487   5.474  16.827  0.2194 -0.1584  0.2632
 3386TIP3    H131573   3.547   5.469  16.901  2.2547 -1.2115 -1.4045
 3386TIP3    H231574   3.506   5.559  16.786  0.8398 -0.6347 -0.4556
 3387TIP3   OH231575   1.465   5.453  16.872 -0.0129  0.2697  0.2059
 3387TIP3    H131576   1.438   5.539  16.905  2.6312  0.6034  1.6271
 3387TIP3    H231577   1.446   5.392  16.943  0.2542  0.0554  0.0977
 3388TIP3   OH231578   2.368   4.827  11.745 -0.4330  0.3246 -0.1563
 3388TIP3    H131579   2.345   4.919  11.739 -2.3827  0.0269  2.1850
 3388TIP3    H231580   2.464   4.826  11.740 -0.3495  2.5328  0.6326
 3389TIP3   OH231581   1.632   3.393   4.519  0.0600 -0.0617  0.2017
 3389TIP3    H131582   1.653   3.322   4.579  2.5817 -0.4531 -1.0685
 3389TIP3    H231583   1.628   3.471   4.575  1.3487 -0.5710  1.0180
 3390TIP3   OH231584   3.434   0.014  12.368 -0.3472 -0.5010  0.6487
 3390TIP3    H131585   3.404  -0.073  12.396 -0.8153 -0.4498  0.3134
 3390TIP3    H231586   3.354   0.059  12.339  0.2162 -0.8051 -1.4564
 3391TIP3   OH231587   0.822   1.613   3.980 -0.0841  0.2538 -0.2555
 3391TIP3    H131588   0.849   1.671   4.051 -1.1600  0.3400  0.0761
 3391TIP3    H231589   0.838   1.525   4.014  0.4104  0.3203 -0.3093
 3392TIP3   OH231590   6.438   1.340  16.917 -0.5859 -0.6708 -0.5257
 3392TIP3    H131591   6.468   1.370  16.831 -0.7546  0.3836 -0.2236
 3392TIP3    H231592   6.443   1.245  16.912  0.4439 -0.5816 -1.3239
 3393TIP3   OH231593   2.256   4.702   0.737 -0.3928  0.2960 -0.1155
 3393TIP3    H131594   2.254   4.672   0.828 -0.2814  0.1096 -0.1745
 3393TIP3    H231595   2.201   4.640   0.690  0.3739 -0.1979 -0.3533
 3394TIP3   OH231596   6.609   2.390  17.083 -0.5652 -0.1795 -0.4527
 3394TIP3    H131597   6.592   2.297  17.099 -0.7211  0.0890  1.0388
 3394TIP3    H231598   6.534   2.435  17.122  1.0077  0.7398  1.6369
 3395TIP3   OH231599   5.851   6.225  14.871 -0.0723 -0.5381 -0.7668
 3395TIP3    H131600   5.763   6.210  14.905 -0.7337 -1.2136 -2.7220
 3395TIP3    H231601   5.848   6.314  14.836  0.0720 -0.5148 -0.7194
 3396TIP3   OH231602   3.942   6.580  13.974 -0.2741 -0.3726 -0.3261
 3396TIP3    H131603   4.000   6.615  14.042  0.3902  0.2274 -1.1918
 3396TIP3    H231604   3.941   6.647  13.906 -3.7906  0.6418  0.6288
 3397TIP3   OH231605   6.738   3.902   5.731 -0.0048 -0.1185 -0.3080
 3397TIP3    H131606   6.817   3.946   5.764  2.2475 -4.7501  0.9728
 3397TIP3    H231607   6.677   3.904   5.805 -0.5876  2.2229 -0.8215
 3398TIP3   OH231608   6.596   2.991   1.450 -0.9137  0.5486 -0.3558
 3398TIP3    H131609   6.568   2.944   1.372 -0.9849  0.6939 -0.4192
 3398TIP3    H231610   6.578   3.083   1.430 -1.1109  0.5670 -0.0939
 3399TIP3   OH231611   2.002   4.592  11.577  0.4329  0.0212  0.4569
 3399TIP3    H131612   2.079   4.546  11.543 -0.8182 -0.9506 -1.1406
 3399TIP3    H231613   1.928   4.551  11.531 -0.8136  2.8087 -0.0971
 3400TIP3   OH231614   1.005   2.570   5.975  0.2569 -0.3131 -0.3489
 3400TIP3    H131615   1.046   2.592   6.059  1.5986  1.4188 -1.4400
 3400TIP3    H231616   0.932   2.631   5.968  1.1645  0.7027 -1.1984
 3401TIP3   OH231617   3.085   2.157   1.706  0.0521  0.2684  0.0098
 3401TIP3    H131618   3.018   2.108   1.755 -1.0908  2.8215  1.0582
 3401TIP3    H231619   3.035   2.211   1.645  1.2914  0.3401 -0.9550
 3402TIP3   OH231620   5.985   4.798  16.912 -0.0414  0.2946  0.4314
 3402TIP3    H131621   5.943   4.884  16.910  1.3214  0.9623 -0.3694
 3402TIP3    H231622   6.068   4.813  16.957 -1.2187 -1.2816  3.1974
 3403TIP3   OH231623   4.053   1.376  14.543 -0.3382  0.0078 -0.1316
 3403TIP3    H131624   3.989   1.447  14.535 -0.4085 -0.0750 -0.3189
 3403TIP3    H231625   4.111   1.388  14.468  0.2158  0.4265  0.3608
 3404TIP3   OH231626   4.708   2.591  12.305 -0.3341  0.3600  0.6056
 3404TIP3    H131627   4.748   2.667  12.261 -0.6421 -0.0636 -0.4184
 3404TIP3    H231628   4.774   2.563  12.367  0.2345  0.7927  0.2090
 3405TIP3   OH231629   1.651   0.879   2.519 -0.5306  0.0673 -0.1755
 3405TIP3    H131630   1.651   0.972   2.542 -1.6372  0.3284 -1.1682
 3405TIP3    H231631   1.562   0.850   2.536 -0.6600 -0.3800 -1.5103
 3406TIP3   OH231632   5.761   6.561  16.502  0.4595 -0.8055 -0.5020
 3406TIP3    H131633   5.688   6.621  16.482  0.2972 -0.6511  0.5260
 3406TIP3    H231634   5.829   6.618  16.539  1.4410 -0.8192 -2.2215
 3407TIP3   OH231635   0.285   1.059   6.139  0.2825 -0.1263 -0.3496
 3407TIP3    H131636   0.317   1.009   6.213  0.2454  0.1728 -0.1319
 3407TIP3    H231637   0.206   1.103   6.171  3.1786  4.2834  1.0793
 3408TIP3   OH231638   0.919   1.504   4.959  0.3975  0.2077  0.1705
 3408TIP3    H131639   0.919   1.420   4.912  0.3356 -0.8313  2.0006
 3408TIP3    H231640   0.905   1.569   4.890  0.8340 -1.2422 -1.3312
 3409TIP3   OH231641   1.559   0.855  11.203  0.2113  0.2855 -0.3154
 3409TIP3    H131642   1.517   0.899  11.277 -0.3193 -0.7126 -0.0238
 3409TIP3    H231643   1.488   0.841  11.140  0.3144 -0.4068 -0.2854
 3410TIP3   OH231644   3.352   2.014   1.664  0.7265 -0.3745  0.3881
 3410TIP3    H131645   3.353   1.919   1.670 -0.2655 -0.7196 -3.3361
 3410TIP3    H231646   3.259   2.038   1.665  0.9487  0.5077  0.7533
 3411TIP3   OH231647   2.562   5.679  15.688 -0.0945 -0.3697  0.2489
 3411TIP3    H131648   2.482   5.715  15.724  0.7176 -1.1664  2.9330
 3411TIP3    H231649   2.540   5.589  15.666 -0.5257  0.0528 -1.1354
 3412TIP3   OH231650   3.475   3.781   6.204 -0.1384 -0.2870  0.0930
 3412TIP3    H131651   3.514   3.755   6.121 -1.3087  1.7764 -1.1439
 3412TIP3    H231652   3.479   3.702   6.258  1.3947 -1.4189 -1.6213
 3413TIP3   OH231653   1.865   2.983  11.306  0.5727  0.5602  0.4746
 3413TIP3    H131654   1.887   3.061  11.255 -0.8700  0.2254 -0.7089
 3413TIP3    H231655   1.907   2.911  11.259 -1.0982  0.2005 -0.5055
 3414TIP3   OH231656   2.319   3.301   6.722  0.7016 -0.4833  0.3872
 3414TIP3    H131657   2.345   3.391   6.739  2.4286 -0.4899 -1.9178
 3414TIP3    H231658   2.366   3.277   6.642 -0.3021 -3.1839  0.5379
 3415TIP3   OH231659   2.048   1.546   5.696 -0.7205  0.0783  0.5122
 3415TIP3    H131660   2.128   1.593   5.672 -1.5141  1.9783  1.4842
 3415TIP3    H231661   2.069   1.505   5.780 -0.3641 -0.4519  0.1661
 3416TIP3   OH231662   6.075   4.623   2.908 -0.6448 -0.5966  0.0056
 3416TIP3    H131663   6.044   4.694   2.965 -1.0234 -1.1357  0.4813
 3416TIP3    H231664   6.040   4.645   2.822  0.6813  0.7010 -0.2334
 3417TIP3   OH231665   3.415   2.104   5.435 -0.2896 -0.2181  0.2705
 3417TIP3    H131666   3.415   2.195   5.407 -1.3662 -0.0423  0.8307
 3417TIP3    H231667   3.414   2.107   5.531  1.9110 -0.8243  0.3389
 3418TIP3   OH231668   6.361   6.442   1.650  0.1220 -0.1596  0.7187
 3418TIP3    H131669   6.403   6.410   1.730  1.0265 -0.0561  0.2959
 3418TIP3    H231670   6.408   6.522   1.629 -2.3539  1.6830  1.9608
 3419TIP3   OH231671   3.743   6.044   2.823  1.0576  0.1199  0.1353
 3419TIP3    H131672   3.734   6.137   2.844  2.8320  0.4096 -0.3316
 3419TIP3    H231673   3.774   6.042   2.732 -1.0956 -0.9993 -0.6221
 3420TIP3   OH231674   1.338   1.032  12.411 -0.1218  0.4310 -0.5102
 3420TIP3    H131675   1.248   1.023  12.378 -0.4132  0.1133  0.3549
 3420TIP3    H231676   1.350   1.126  12.423  0.1822  0.6071 -2.0319
 3421TIP3   OH231677   6.353   3.818   5.207 -0.2626  0.1038  0.1732
 3421TIP3    H131678   6.363   3.810   5.112 -0.8807  1.3511 -0.0077
 3421TIP3    H231679   6.345   3.728   5.238  0.1161 -0.3198 -0.9415
 3422TIP3   OH231680   3.604   1.382   4.187  0.1132  0.0247 -0.2286
 3422TIP3    H131681   3.590   1.288   4.200  1.5561 -0.2898 -0.7904
 3422TIP3    H231682   3.591   1.421   4.274  0.1068 -0.7701  0.1299
 3423TIP3   OH231683   4.614   4.839   4.972 -0.0790 -0.2089 -0.0212
 3423TIP3    H131684   4.632   4.909   5.034 -0.7271  0.7152 -0.8621
 3423TIP3    H231685   4.530   4.802   5.001  0.9462 -1.5801  1.2566
 3424TIP3   OH231686   3.235   1.074   5.087 -0.4389  0.9077 -0.5639
 3424TIP3    H131687   3.152   1.119   5.101 -0.6508 -0.0385  1.4322
 3424TIP3    H231688   3.216   0.983   5.107  1.4749  0.9535  1.5713
 3425TIP3   OH231689   5.619   5.892   5.765 -0.0039 -0.3036 -0.1649
 3425TIP3    H131690   5.650   5.805   5.789 -1.8094 -0.4953  1.5635
 3425TIP3    H231691   5.537   5.903   5.813 -0.0023  2.1988 -0.6661
 3426TIP3   OH231692   3.338   2.326  15.464 -0.7264  0.0597 -0.2294
 3426TIP3    H131693   3.283   2.405  15.461 -0.7368  0.0381 -0.6440
 3426TIP3    H231694   3.424   2.358  15.491 -0.9662  0.0817  0.4968
 3427TIP3   OH231695   2.831   3.539   6.980 -0.3903 -0.1622 -0.3624
 3427TIP3    H131696   2.920   3.522   7.009  0.2382  2.3175 -0.6932
 3427TIP3    H231697   2.831   3.513   6.887 -0.4072 -1.4116 -0.0219
 3428TIP3   OH231698   2.623   6.772   0.340  0.1939  0.3110  0.0684
 3428TIP3    H131699   2.546   6.821   0.310  0.6919  1.3131  0.4158
 3428TIP3    H231700   2.672   6.753   0.260 -0.2691 -0.1042 -0.1253
 3429TIP3   OH231701   0.376   2.486   1.576 -0.0622 -0.1215 -0.5329
 3429TIP3    H131702   0.412   2.405   1.539  0.5216 -0.2363  0.2723
 3429TIP3    H231703   0.326   2.458   1.652  0.8977  0.3523  0.2874
 3430TIP3   OH231704   6.723   0.849   5.930  0.1538  0.0976  0.1426
 3430TIP3    H131705   6.651   0.887   5.980 -0.7065  1.3070 -1.9368
 3430TIP3    H231706   6.754   0.921   5.874  2.2690 -0.7074  0.2120
 3431TIP3   OH231707   5.389   2.999  15.841  0.1150 -0.0090 -0.1158
 3431TIP3    H131708   5.377   3.048  15.922 -1.6702  0.1055 -0.4354
 3431TIP3    H231709   5.445   3.055  15.787  0.5120  0.3437  0.6558
 3432TIP3   OH231710   1.837   0.637   6.325 -0.7586 -0.6385  0.5225
 3432TIP3    H131711   1.916   0.632   6.379 -1.1172 -0.1269  1.0947
 3432TIP3    H231712   1.771   0.675   6.382 -1.4086 -1.0131  0.0270
 3433TIP3   OH231713   1.626   6.494   5.338 -0.3460 -0.5973 -0.1398
 3433TIP3    H131714   1.655   6.529   5.254 -0.0930  0.3078  0.3267
 3433TIP3    H231715   1.580   6.566   5.380 -2.8894 -1.8448 -0.6601
 3434TIP3   OH231716   4.858   0.236  11.670  0.3727 -0.0433  0.1426
 3434TIP3    H131717   4.826   0.324  11.688 -0.0669 -0.4179  1.2757
 3434TIP3    H231718   4.783   0.179  11.689  0.3740 -0.5900 -1.4790
 3435TIP3   OH231719   2.675   6.514  16.733 -0.2085 -0.5439 -0.0086
 3435TIP3    H131720   2.747   6.450  16.735 -0.4902 -0.8215  3.1166
 3435TIP3    H231721   2.596   6.462  16.744 -0.4615  0.2876  2.3043
 3436TIP3   OH231722   2.358   5.027  16.872  0.1399 -0.5571 -0.0547
 3436TIP3    H131723   2.272   5.025  16.914  0.3463 -0.8615  0.3581
 3436TIP3    H231724   2.420   5.036  16.945  0.4812 -0.7510 -0.3218
 3437TIP3   OH231725   4.889   4.527   1.253 -0.0170  0.3889  0.5402
 3437TIP3    H131726   4.849   4.589   1.314 -1.1644 -1.2226  1.4611
 3437TIP3    H231727   4.819   4.464   1.233  2.0149 -2.4922  2.1907
 3438TIP3   OH231728   6.106   5.231  10.897  0.1591  0.5932  0.6215
 3438TIP3    H131729   6.096   5.169  10.825  1.4960  0.8362  0.2058
 3438TIP3    H231730   6.195   5.266  10.886 -0.4117  2.2517  1.0955
 3439TIP3   OH231731   1.932   4.827  12.798  0.1645  0.4774  0.3144
 3439TIP3    H131732   2.022   4.838  12.766 -0.9419  0.8756 -2.7901
 3439TIP3    H231733   1.943   4.792  12.887  3.3791  0.8650  0.1437
 3440TIP3   OH231734   4.687   1.909   0.204 -0.6858  0.3468 -0.0390
 3440TIP3    H131735   4.748   1.841   0.176 -2.4646 -0.8928 -1.0478
 3440TIP3    H231736   4.673   1.893   0.297 -2.7947 -2.1357 -0.7131
 3441TIP3   OH231737   1.762   2.616  16.681  0.0388  0.5730  0.0567
 3441TIP3    H131738   1.684   2.570  16.649 -0.4910  2.2381 -1.1479
 3441TIP3    H231739   1.759   2.606  16.776 -1.5637  0.4564  0.0149
 3442TIP3   OH231740   5.981   2.527   3.052 -0.1728 -0.5429  0.9750
 3442TIP3    H131741   6.040   2.482   2.991 -0.7456  0.5978 -0.4503
 3442TIP3    H231742   6.024   2.611   3.068 -1.0027 -0.0425  0.5786
 3443TIP3   OH231743   0.086   1.132   0.844 -0.1414 -0.2325 -0.3228
 3443TIP3    H131744   0.137   1.067   0.892 -1.3908 -2.3296 -1.7095
 3443TIP3    H231745   0.144   1.162   0.774 -0.6965 -2.4709 -1.7868
 3444TIP3   OH231746   1.420   2.190   2.596  0.3801 -0.0179  0.1467
 3444TIP3    H131747   1.427   2.178   2.690 -2.2609  0.0685  0.3953
 3444TIP3    H231748   1.389   2.106   2.563  0.4803  0.2029 -0.5206
 3445TIP3   OH231749   1.586   4.383  16.747 -0.1243  0.2493  0.4476
 3445TIP3    H131750   1.540   4.451  16.697  1.0840 -0.1722 -1.2589
 3445TIP3    H231751   1.587   4.307  16.689  0.9335 -0.3907  1.2901
 3446TIP3   OH231752   5.185   5.409   0.337  0.4594 -0.1609  0.6259
 3446TIP3    H131753   5.186   5.392   0.243 -0.4133 -0.6161  0.6917
 3446TIP3    H231754   5.247   5.347   0.374  0.1510 -0.5843  0.4418
 3447TIP3   OH231755   1.729   2.820   1.404  0.0634  0.5790  0.0628
 3447TIP3    H131756   1.656   2.832   1.343 -0.4653 -2.3035  0.0679
 3447TIP3    H231757   1.807   2.822   1.349 -0.2894 -0.1928 -0.4710
 3448TIP3   OH231758   1.623   6.397  12.436  0.1292  0.2305  0.3988
 3448TIP3    H131759   1.667   6.419  12.518  0.3056 -0.7703  0.5690
 3448TIP3    H231760   1.673   6.324  12.400 -1.1465 -0.6554  0.3998
 3449TIP3   OH231761   4.652   0.798  12.713  0.1657 -0.3630 -0.7841
 3449TIP3    H131762   4.668   0.730  12.647 -2.8018 -0.1197 -1.8140
 3449TIP3    H231763   4.707   0.871  12.686  2.8682 -2.0445 -0.0620
 3450TIP3   OH231764   3.014   2.804   6.516 -0.0388  0.2895 -0.5221
 3450TIP3    H131765   2.974   2.787   6.431 -1.1816 -0.2459  0.1011
 3450TIP3    H231766   3.074   2.731   6.530 -0.8009 -0.3013 -0.3099
 3451TIP3   OH231767   0.720   4.518   2.509  0.5067 -0.2746  0.1993
 3451TIP3    H131768   0.740   4.477   2.426 -0.5378 -2.1334  0.8245
 3451TIP3    H231769   0.724   4.612   2.492  2.2843 -0.6351 -1.4285
 3452TIP3   OH231770   3.122   0.916   1.406 -0.4941 -0.5150  0.3658
 3452TIP3    H131771   3.216   0.931   1.415 -0.6125  0.0557  0.6182
 3452TIP3    H231772   3.116   0.834   1.356  0.1315  0.3014 -1.1012
 3453TIP3   OH231773   1.271   4.325   0.508  0.8568 -0.7681 -0.1258
 3453TIP3    H131774   1.207   4.395   0.494  1.8389  0.4772  1.5025
 3453TIP3    H231775   1.306   4.306   0.421  0.1544  0.3376 -0.6594
 3454TIP3   OH231776   3.860   1.263   2.226  0.3053  0.4488  0.1524
 3454TIP3    H131777   3.910   1.228   2.152  0.9211  1.4083  0.0970
 3454TIP3    H231778   3.887   1.355   2.230 -0.3769  0.6065  1.0332
 3455TIP3   OH231779   5.496   3.378   3.433 -0.0165  0.0217  0.6349
 3455TIP3    H131780   5.531   3.302   3.478  1.2978 -1.1018 -2.1411
 3455TIP3    H231781   5.565   3.444   3.438  0.3390 -0.2838 -0.1386
 3456TIP3   OH231782   2.555   0.486   3.659  0.4397 -0.3737 -0.2489
 3456TIP3    H131783   2.506   0.441   3.728 -0.4884  0.5459 -0.2989
 3456TIP3    H231784   2.492   0.498   3.588  0.2639  2.2311  0.3028
 3457TIP3   OH231785   0.961   1.012   5.180  0.1431  0.3905 -0.0554
 3457TIP3    H131786   1.033   0.986   5.237  1.5963  1.7395 -1.2292
 3457TIP3    H231787   0.886   0.959   5.210  1.3188 -0.2282  1.8895
 3458TIP3   OH231788   2.575   3.987   1.684  0.7871  0.1711 -0.1441
 3458TIP3    H131789   2.612   3.901   1.665  2.2297  0.9941 -1.1996
 3458TIP3    H231790   2.509   4.001   1.617  1.2269  0.2838 -0.5565
 3459TIP3   OH231791   3.959   3.859  13.094  0.4859 -0.1314  0.1975
 3459TIP3    H131792   4.020   3.929  13.118 -0.9833  1.4908 -0.7261
 3459TIP3    H231793   3.916   3.891  13.014 -0.1268 -2.1352 -0.2913
 3460TIP3   OH231794   1.247   3.412   0.302  0.1498  0.3183 -0.7054
 3460TIP3    H131795   1.270   3.385   0.390 -1.6897 -1.3747 -0.7264
 3460TIP3    H231796   1.168   3.465   0.312 -0.5243 -0.5376 -1.3927
 3461TIP3   OH231797   4.534   5.938   0.435  0.4352 -0.1513  0.0903
 3461TIP3    H131798   4.462   5.937   0.372 -0.1422 -0.1163  0.7425
 3461TIP3    H231799   4.509   6.004   0.499  0.6583 -0.7000  0.7548
 3462TIP3   OH231800   0.959   2.578   0.939 -0.6735 -0.3546 -0.4018
 3462TIP3    H131801   0.992   2.581   1.029 -2.4942 -1.8697  0.3559
 3462TIP3    H231802   0.869   2.609   0.946 -0.2444  1.3323 -2.0282
 3463TIP3   OH231803   0.611   0.054   4.892  0.2742 -0.0524 -0.3190
 3463TIP3    H131804   0.539   0.112   4.916  0.3844 -0.1920  0.3330
 3463TIP3    H231805   0.578  -0.034   4.907 -0.4737 -0.2388 -2.8600
 3464TIP3   OH231806   4.910   5.837  13.214 -0.1449 -0.1837  0.4888
 3464TIP3    H131807   4.902   5.864  13.122 -2.2522  1.5687  1.1512
 3464TIP3    H231808   4.835   5.780  13.229 -0.1017 -0.0401  1.2653
 3465TIP3   OH231809   4.713   4.349   2.329 -0.1382  0.2409  0.1438
 3465TIP3    H131810   4.655   4.296   2.383 -0.0324 -0.7349 -0.6860
 3465TIP3    H231811   4.672   4.349   2.243  1.4169 -1.0151 -0.6256
 3466TIP3   OH231812   3.321   1.974   4.338 -0.3098  0.0943 -0.2232
 3466TIP3    H131813   3.291   2.051   4.290 -0.4968 -0.1535 -0.4970
 3466TIP3    H231814   3.365   1.920   4.273 -1.5670 -0.7823 -0.3531
 3467TIP3   OH231815   3.169   5.043  11.061 -0.0580 -0.4559  0.2089
 3467TIP3    H131816   3.187   4.993  11.141 -0.0062 -0.4634  0.1927
 3467TIP3    H231817   3.159   5.133  11.091 -1.4179 -0.6675  0.4000
 3468TIP3   OH231818   0.031   1.399   3.017 -0.2614  0.2750 -0.1131
 3468TIP3    H131819  -0.060   1.395   2.988  0.1424  0.7141 -1.4763
 3468TIP3    H231820   0.076   1.331   2.967  0.0331 -0.4007  1.0559
 3469TIP3   OH231821   1.598   0.884  12.987  0.0756 -0.1106 -0.3801
 3469TIP3    H131822   1.637   0.822  13.049 -1.0905 -0.3994  0.0916
 3469TIP3    H231823   1.543   0.829  12.930  0.5554  0.2495 -1.1925
 3470TIP3   OH231824   4.052   2.816  16.815  0.1058 -0.2799  0.0054
 3470TIP3    H131825   4.143   2.787  16.816  1.2524  3.1231  0.3940
 3470TIP3    H231826   4.054   2.904  16.853 -3.4237 -0.2976  0.4401
 3471TIP3   OH231827   2.634   5.970   3.130 -0.1314 -0.0485  0.5458
 3471TIP3    H131828   2.637   5.917   3.050  1.0626 -0.1169  0.6362
 3471TIP3    H231829   2.562   5.931   3.181 -1.0515  0.1487 -0.5894
 3472TIP3   OH231830   3.839   1.527   0.928 -0.0950 -0.1766 -0.2812
 3472TIP3    H131831   3.837   1.598   0.864 -0.8423 -0.6838 -0.8140
 3472TIP3    H231832   3.792   1.455   0.887 -0.3039 -0.6149  0.7049
 3473TIP3   OH231833   3.464   4.555   5.420 -0.1278  0.4344  0.0813
 3473TIP3    H131834   3.529   4.485   5.431 -0.1278  0.2447 -0.9863
 3473TIP3    H231835   3.388   4.511   5.382 -0.9039  0.6520  1.3658
 3474TIP3   OH231836   0.051   1.482  14.309  0.2519  0.2608  0.4312
 3474TIP3    H131837   0.116   1.531  14.259 -1.1618  0.8393 -0.8612
 3474TIP3    H231838   0.028   1.408  14.253 -2.2222  1.5615 -0.3572
 3475TIP3   OH231839   4.702   2.220  13.136  0.2850 -0.2565  0.2642
 3475TIP3    H131840   4.738   2.220  13.047  2.0243 -0.8697  0.9513
 3475TIP3    H231841   4.749   2.289  13.182 -2.7882  2.1936 -0.0936
 3476TIP3   OH231842   2.966   3.946   5.220 -0.0181  0.7639  0.2556
 3476TIP3    H131843   2.930   4.018   5.168 -1.9930  1.0533  1.9413
 3476TIP3    H231844   2.951   3.868   5.167 -2.5741  0.9801  0.6053
 3477TIP3   OH231845   6.642   0.103   5.242 -0.1767 -0.3733  0.1500
 3477TIP3    H131846   6.592   0.104   5.160 -0.1825 -0.6688  0.1500
 3477TIP3    H231847   6.732   0.084   5.215  0.0058  0.5486  0.1110
 3478TIP3   OH231848   2.409   6.692   6.129  0.1188  0.6811 -0.0568
 3478TIP3    H131849   2.351   6.766   6.114 -0.2777  0.5846  0.9409
 3478TIP3    H231850   2.350   6.616   6.129  0.6431  0.2382 -2.0597
 3479TIP3   OH231851   5.122   5.932   4.204 -0.6833 -0.5555 -0.3748
 3479TIP3    H131852   5.132   6.021   4.173 -0.2873 -0.5130 -0.1254
 3479TIP3    H231853   5.066   5.889   4.139 -1.5349  0.0968 -0.0836
 3480TIP3   OH231854   5.981   4.570  10.809 -0.1411  0.4890 -0.2168
 3480TIP3    H131855   6.044   4.552  10.739 -2.1011  0.1639 -1.9490
 3480TIP3    H231856   5.942   4.485  10.829 -1.0741  0.9178 -0.1863
 3481TIP3   OH231857   6.458   0.982  13.029  0.4022 -0.5252 -0.5491
 3481TIP3    H131858   6.479   1.018  13.116 -0.2864 -0.1724 -0.5218
 3481TIP3    H231859   6.454   1.058  12.972 -1.4374 -0.4944 -0.4138
 3482TIP3   OH231860   0.127   6.550  13.751 -0.1925  0.0764  0.0059
 3482TIP3    H131861   0.043   6.514  13.723 -0.2912  1.1323 -1.1165
 3482TIP3    H231862   0.141   6.626  13.694  1.6671 -0.2634 -0.0360
 3483TIP3   OH231863   6.246   5.294   0.337 -0.2088  0.3991  0.0677
 3483TIP3    H131864   6.281   5.219   0.385 -1.1536 -1.1590 -1.5793
 3483TIP3    H231865   6.156   5.303   0.370 -0.0766  0.8408  0.3061
 3484TIP3   OH231866   3.448   6.372   4.549  0.3197  0.4545  0.0735
 3484TIP3    H131867   3.538   6.390   4.578  0.9264 -0.5722 -1.1084
 3484TIP3    H231868   3.404   6.339   4.627  1.6773 -1.3927  0.0891
 3485TIP3   OH231869   1.488   6.295  16.545  0.2966 -0.6241 -0.5477
 3485TIP3    H131870   1.581   6.272  16.545  0.7097  1.0239 -0.1126
 3485TIP3    H231871   1.453   6.248  16.469  1.5894 -0.8113 -1.0524
 3486TIP3   OH231872   1.610   0.022   3.541 -0.5963  0.2980 -0.1459
 3486TIP3    H131873   1.632  -0.065   3.507 -0.3479  0.2337  0.1818
 3486TIP3    H231874   1.624   0.080   3.466  1.2527  0.3348  0.2064
 3487TIP3   OH231875   5.606   5.385   3.191 -0.3633 -0.3265  0.2983
 3487TIP3    H131876   5.684   5.406   3.140 -0.7791 -0.7841 -0.5372
 3487TIP3    H231877   5.598   5.290   3.185 -1.6015 -0.1711 -0.5329
 3488TIP3   OH231878   6.753   1.339   5.852  0.5110  0.8434 -0.3416
 3488TIP3    H131879   6.793   1.300   5.929 -0.2440 -1.5592 -1.1146
 3488TIP3    H231880   6.675   1.383   5.884  0.6911  0.6229  0.3921
 3489TIP3   OH231881   1.393   2.467   2.235 -0.2522  0.3367  0.2447
 3489TIP3    H131882   1.452   2.456   2.161  0.2305 -1.2890  0.8510
 3489TIP3    H231883   1.359   2.379   2.252 -0.3866  0.6923  1.9286
 3490TIP3   OH231884   2.198   1.485   4.497  0.7680 -0.3029  0.2421
 3490TIP3    H131885   2.245   1.450   4.572 -0.7081 -1.4499  0.6473
 3490TIP3    H231886   2.123   1.531   4.535 -2.2051 -4.1956 -0.5887
 3491TIP3   OH231887   2.315   2.394   0.111  0.4153  0.1782  0.2032
 3491TIP3    H131888   2.351   2.460   0.170  0.2690 -0.2173  0.7396
 3491TIP3    H231889   2.392   2.357   0.067  0.3523  2.0519 -1.5500
 3492TIP3   OH231890   1.920   5.240  15.457  0.5197 -0.3757 -0.2260
 3492TIP3    H131891   1.943   5.203  15.372 -0.4181 -1.5829  0.0285
 3492TIP3    H231892   1.949   5.175  15.521 -0.9019 -0.5819  0.2417
 3493TIP3   OH231893   0.728   6.258  13.493  0.2138 -0.0415  0.0674
 3493TIP3    H131894   0.637   6.277  13.470  0.4617  1.0011 -0.0677
 3493TIP3    H231895   0.777   6.268  13.412  0.0135 -3.8368 -0.6145
 3494TIP3   OH231896   0.392   4.031  12.850  0.0350  0.9435 -0.1973
 3494TIP3    H131897   0.443   4.101  12.808  0.0683 -0.1806 -2.0343
 3494TIP3    H231898   0.314   4.022  12.796 -0.2299 -0.0966  0.3504
 3495TIP3   OH231899   3.251   0.357   0.096  0.1924 -0.1675 -0.9735
 3495TIP3    H131900   3.172   0.315   0.129  0.5595 -0.2135 -0.1418
 3495TIP3    H231901   3.323   0.301   0.126  0.6421  0.6716 -0.4426
 3496TIP3   OH231902   6.529   6.348   4.387 -0.1725 -0.2568 -0.0988
 3496TIP3    H131903   6.541   6.253   4.388 -1.3363 -0.4394 -1.8070
 3496TIP3    H231904   6.575   6.376   4.308 -0.3929  0.5353  0.0582
 3497TIP3   OH231905   3.017   4.208   0.875 -0.0974  0.1284 -0.0416
 3497TIP3    H131906   3.077   4.266   0.828  0.6762 -0.0678  0.6872
 3497TIP3    H231907   2.939   4.205   0.820 -0.2724  2.0959  0.0551
 3498TIP3   OH231908   4.281   1.689   3.386  0.0039  0.0463 -0.5728
 3498TIP3    H131909   4.189   1.681   3.361 -0.2035 -0.4455  0.3524
 3498TIP3    H231910   4.297   1.784   3.388 -1.4727  0.2613  2.8344
 3499TIP3   OH231911   2.072   0.200   2.534  0.0092  0.0777 -0.0520
 3499TIP3    H131912   1.998   0.144   2.512 -1.3614  1.2476  1.4458
 3499TIP3    H231913   2.084   0.256   2.456 -2.4826  1.7520  0.7279
 3500TIP3   OH231914   5.614   3.911  11.531  0.2733  0.8221 -0.2199
 3500TIP3    H131915   5.566   3.935  11.451  2.6505  2.2817 -1.2450
 3500TIP3    H231916   5.611   3.990  11.585  0.5915  0.5532  0.1912
 3501TIP3   OH231917   2.155   6.522   3.963  0.1138  0.3840  0.0583
 3501TIP3    H131918   2.107   6.605   3.960  0.3102  0.5538  1.2430
 3501TIP3    H231919   2.161   6.502   4.057  2.0668  0.2000 -0.0858
 3502TIP3   OH231920   2.744   1.521   0.631 -0.2916  0.3105 -0.2720
 3502TIP3    H131921   2.739   1.444   0.689 -1.9309 -0.2421 -1.1273
 3502TIP3    H231922   2.782   1.488   0.550  0.1545  0.6644 -0.2079
 3503TIP3   OH231923   2.794   1.948  13.610 -0.7127 -1.0063  0.2372
 3503TIP3    H131924   2.719   1.944  13.551 -0.3406 -0.3824 -0.2824
 3503TIP3    H231925   2.858   1.888  13.572  0.1091  0.5241 -0.8263
 3504TIP3   OH231926   3.557   4.485   3.396  0.0293 -0.1935 -0.2298
 3504TIP3    H131927   3.513   4.477   3.480  0.1911  0.3584 -0.0853
 3504TIP3    H231928   3.637   4.535   3.416  1.4625 -2.4230 -0.2169
 3505TIP3   OH231929   5.728   1.511  12.712  0.8250 -0.1540 -0.3088
 3505TIP3    H131930   5.641   1.489  12.746  0.9192  0.3883  0.2830
 3505TIP3    H231931   5.738   1.604  12.731  1.2440 -0.0578 -1.0254
 3506TIP3   OH231932   1.888   1.610  11.826  0.1426 -0.0823 -0.7787
 3506TIP3    H131933   1.967   1.654  11.857 -0.2961 -0.2545  0.6282
 3506TIP3    H231934   1.916   1.520  11.808  0.6521  0.3079 -1.9973
 3507TIP3   OH231935   6.459   1.190   3.289  0.6034  0.5094  0.2080
 3507TIP3    H131936   6.462   1.275   3.244 -0.5106  1.4495  1.8233
 3507TIP3    H231937   6.419   1.131   3.226 -0.1898  1.6043 -0.3344
 3508TIP3   OH231938   4.217   5.796  11.662 -0.2246 -0.5338 -0.1411
 3508TIP3    H131939   4.125   5.802  11.637 -0.2749 -0.4480  0.0595
 3508TIP3    H231940   4.221   5.721  11.722 -0.7035  1.2131  2.1760
 3509TIP3   OH231941   2.461   3.960  12.256 -0.5265  0.0385  0.6498
 3509TIP3    H131942   2.466   3.875  12.212  0.6311  0.5715 -0.2823
 3509TIP3    H231943   2.543   3.966  12.305 -1.8619 -0.5966  2.9932
 3510TIP3   OH231944   2.855   4.715   0.902 -0.2341  0.2422  0.5852
 3510TIP3    H131945   2.773   4.667   0.890  1.0981 -1.7089 -1.0812
 3510TIP3    H231946   2.890   4.683   0.984 -0.0767 -0.5304  0.2164
 3511TIP3   OH231947   1.586   3.384   3.109  0.2636  0.2362  0.6386
 3511TIP3    H131948   1.578   3.459   3.168  0.9937 -0.4712  1.6747
 3511TIP3    H231949   1.621   3.420   3.028 -0.1679  1.1340  0.8447
 3512TIP3   OH231950   1.644   1.877   5.803  0.0437 -0.2964 -0.2031
 3512TIP3    H131951   1.632   1.875   5.898  2.2439  2.7064  0.1898
 3512TIP3    H231952   1.721   1.823   5.787  1.7085  1.8932  0.1437
 3513TIP3   OH231953   0.608   0.113  15.018  0.0831  0.4531  0.4869
 3513TIP3    H131954   0.521   0.152  15.031 -0.0700  0.1713  0.3184
 3513TIP3    H231955   0.591   0.019  15.008  0.5897  0.1504  2.3519
 3514TIP3   OH231956   5.073   5.179   2.449  0.6346  0.1766 -0.4828
 3514TIP3    H131957   5.150   5.151   2.401  1.0415 -0.5691  0.5867
 3514TIP3    H231958   5.000   5.167   2.388  1.1809 -0.4677 -1.0078
 3515TIP3   OH231959   1.312   5.617   1.863 -0.6929  0.2197  0.0697
 3515TIP3    H131960   1.397   5.612   1.818 -0.2804  0.5326  0.8110
 3515TIP3    H231961   1.334   5.621   1.956 -1.5451 -0.2849  0.2950
 3516TIP3   OH231962   2.159   0.349   4.236  0.0424 -0.3078 -0.1509
 3516TIP3    H131963   2.119   0.392   4.160 -1.5273 -0.8927  0.3236
 3516TIP3    H231964   2.241   0.395   4.249 -0.5001  0.9650 -1.1274
 3517TIP3   OH231965   2.232   0.360  13.766 -0.2130  0.4402  0.3614
 3517TIP3    H131966   2.278   0.395  13.690  0.0749  0.2971  0.4678
 3517TIP3    H231967   2.267   0.409  13.840  0.4455 -0.3024  0.5518
 3518TIP3   OH231968   4.176   2.234  13.528  0.2430 -0.5516  0.6435
 3518TIP3    H131969   4.135   2.308  13.483 -1.1039 -0.1837  2.4288
 3518TIP3    H231970   4.106   2.170  13.536  1.4929 -2.2026 -1.2129
 3519TIP3   OH231971   3.641   4.087   2.299  0.0578  0.7937  0.1879
 3519TIP3    H131972   3.579   4.014   2.291  0.7624  0.2827 -0.7174
 3519TIP3    H231973   3.586   4.165   2.303 -0.6513  0.3416 -0.6361
 3520TIP3   OH231974   3.334   3.742   0.711 -0.4395 -0.0400  0.3753
 3520TIP3    H131975   3.242   3.719   0.698 -0.1263  0.0343 -2.2125
 3520TIP3    H231976   3.372   3.667   0.757 -1.1470 -1.3621 -1.1627
 3521TIP3   OH231977   3.825   2.631  12.554 -0.2542 -0.3561 -0.1640
 3521TIP3    H131978   3.821   2.682  12.473  0.6923 -1.1513 -0.7223
 3521TIP3    H231979   3.801   2.693  12.623  1.3815  0.9707 -0.7681
 3522TIP3   OH231980   2.452   4.176  14.131  0.1518  0.7571 -0.3318
 3522TIP3    H131981   2.518   4.198  14.196  0.5185  1.2630 -0.8663
 3522TIP3    H231982   2.374   4.152  14.182  0.3092  1.5320  0.2767
 3523TIP3   OH231983   1.147   5.468  16.956  0.2736 -0.0916  0.4475
 3523TIP3    H131984   1.110   5.441  17.040  0.8775  0.6537  0.9557
 3523TIP3    H231985   1.194   5.549  16.975  0.9110 -0.2274 -0.4945
 3524TIP3   OH231986   3.822   2.035   3.152  0.2161 -0.2655  0.1442
 3524TIP3    H131987   3.796   1.943   3.144 -0.7302  0.0577 -0.5468
 3524TIP3    H231988   3.803   2.073   3.067  1.0832  0.4568  0.2733
 3525TIP3   OH231989   0.252   0.120  13.983 -0.1034 -0.1062  0.0567
 3525TIP3    H131990   0.264   0.051  13.918  0.9552 -1.0875  1.2703
 3525TIP3    H231991   0.341   0.149  14.004 -0.3009 -1.0268  2.3432
 3526TIP3   OH231992   6.276   3.612   0.571 -0.0441  0.5819 -0.1027
 3526TIP3    H131993   6.249   3.539   0.515 -0.1868  1.2762 -0.9467
 3526TIP3    H231994   6.241   3.690   0.528 -1.9368  0.9731  2.0366
 3527TIP3   OH231995   6.694   3.632  15.051  0.2229  0.3092  0.8924
 3527TIP3    H131996   6.606   3.667  15.042 -0.2259 -0.7343  1.1980
 3527TIP3    H231997   6.700   3.605  15.142  0.5279 -0.5289  0.6272
 3528TIP3   OH231998   1.504   0.133  12.314  0.2397 -0.1822  0.2173
 3528TIP3    H131999   1.427   0.190  12.323  0.2244 -0.1116 -0.3382
 3528TIP3    H232000   1.468   0.047  12.295  0.3229  0.1288 -1.4519
 3529TIP3   OH232001   4.390   0.420  17.041  0.1298 -0.2148  0.4247
 3529TIP3    H132002   4.384   0.388  16.951  1.3821 -1.0753  0.6365
 3529TIP3    H232003   4.304   0.400  17.080 -0.3505  0.0027 -0.5148
 3530TIP3   OH232004   6.524   0.907   3.498  0.1934  0.0765  0.1148
 3530TIP3    H132005   6.611   0.884   3.467  0.2493 -1.7981  1.5380
 3530TIP3    H232006   6.473   0.826   3.490 -1.2413  0.9769 -0.1025
 3531TIP3   OH232007   0.490   0.757   5.211  0.1533  0.7150 -0.1658
 3531TIP3    H132008   0.431   0.818   5.255 -1.9454 -0.3400 -1.3958
 3531TIP3    H232009   0.566   0.810   5.186  0.3935  1.8098  2.6761
 3532TIP3   OH232010   0.376   1.696  14.635 -0.4703 -0.0892 -0.0767
 3532TIP3    H132011   0.350   1.604  14.627  1.3846 -0.8222  1.9054
 3532TIP3    H232012   0.294   1.745  14.625 -1.1471 -1.7777 -3.5195
 3533TIP3   OH232013   6.492   6.082   3.748 -0.1291 -0.1357  0.0136
 3533TIP3    H132014   6.527   6.108   3.663 -1.2822  0.6743 -0.2231
 3533TIP3    H232015   6.475   5.988   3.739 -1.0354  0.1062 -0.9545
 3534TIP3   OH232016   6.618   0.245  10.785 -0.7456  0.4624 -0.0139
 3534TIP3    H132017   6.657   0.303  10.851 -0.8285  0.9948 -0.4249
 3534TIP3    H232018   6.629   0.157  10.821  2.8570  0.4001 -1.1430
 3535TIP3   OH232019   5.864   3.111   0.949  0.1868  0.1509  0.4698
 3535TIP3    H132020   5.786   3.079   0.993 -1.7939  0.5291 -2.6351
 3535TIP3    H232021   5.912   3.031   0.924 -0.7958 -0.1982 -0.3374
 3536TIP3   OH232022   3.263   1.057  12.536 -0.4653  0.1384  0.2105
 3536TIP3    H132023   3.196   1.037  12.471  0.1449  1.5281 -0.8607
 3536TIP3    H232024   3.227   1.128  12.588  0.0201  0.6569 -0.1499
 3537TIP3   OH232025   1.663   0.126  14.061 -0.1342  0.3522 -0.6066
 3537TIP3    H132026   1.728   0.108  14.129  1.2664  1.6337 -1.5759
 3537TIP3    H232027   1.676   0.219  14.039 -2.3432  0.6555 -0.7662
 3538TIP3   OH232028   3.540   1.782   0.492  0.2545 -0.5114  0.1498
 3538TIP3    H132029   3.516   1.830   0.413 -1.8055  1.0764  1.7081
 3538TIP3    H232030   3.509   1.693   0.476 -2.4711  0.4000  0.1811
 3539TIP3   OH232031   1.117   3.006   5.358 -0.1178  0.6068  0.3731
 3539TIP3    H132032   1.040   3.057   5.379 -0.2715 -0.6370  2.9752
 3539TIP3    H232033   1.169   3.005   5.438  2.0981  0.5241 -1.0058
 3540TIP3   OH232034   3.482   2.237   1.587 -0.1963 -0.4246 -0.3103
 3540TIP3    H132035   3.434   2.158   1.610 -0.7942 -0.2602 -0.9576
 3540TIP3    H232036   3.519   2.219   1.500 -2.2824  0.8366 -1.5058
 3541TIP3   OH232037   1.248   0.669  11.260  0.3931 -0.0100 -0.4010
 3541TIP3    H132038   1.190   0.744  11.249 -0.0049  0.0205  1.7592
 3541TIP3    H232039   1.266   0.640  11.171 -1.1340  1.3582 -1.1856
 3542TIP3   OH232040   2.165   2.272   4.714  0.3702  0.3399 -0.5008
 3542TIP3    H132041   2.155   2.344   4.776 -0.0144 -0.9595  0.9953
 3542TIP3    H232042   2.110   2.202   4.750  1.2544 -0.9247 -1.5511
 3543TIP3   OH232043   1.693   3.512  16.573 -0.0198 -0.1088 -0.4435
 3543TIP3    H132044   1.706   3.476  16.661 -0.5016  0.5651 -0.0886
 3543TIP3    H232045   1.718   3.604  16.581  0.5712 -0.2002 -1.1762
 3544TIP3   OH232046   4.759   3.116   2.675  0.0194  0.2651 -0.4403
 3544TIP3    H132047   4.702   3.190   2.692  0.3216  0.6043 -0.8944
 3544TIP3    H232048   4.734   3.085   2.588 -0.5997 -0.6230  0.0361
 3545TIP3   OH232049   6.207   1.913   0.416 -0.3192 -0.5654 -0.1563
 3545TIP3    H132050   6.293   1.879   0.393  0.2322  0.1206  0.8439
 3545TIP3    H232051   6.146   1.848   0.382  0.6066 -1.2565 -0.5312
 3546TIP3   OH232052   3.521   2.891  12.436  0.5315 -0.3643 -0.1166
 3546TIP3    H132053   3.489   2.802  12.420 -0.1921 -0.5271  2.1465
 3546TIP3    H232054   3.608   2.880  12.472  1.0944 -0.0744 -1.3413
 3547TIP3   OH232055   2.065   1.368  11.780 -0.5224  0.9711 -0.3355
 3547TIP3    H132056   2.063   1.289  11.833 -0.6038  2.2682  1.6648
 3547TIP3    H232057   2.018   1.345  11.700 -1.6239 -0.6275  0.7532
 3548TIP3   OH232058   2.011   2.640  17.004  0.1348  0.2049  0.7152
 3548TIP3    H132059   2.068   2.712  16.979 -0.4456  0.5279  0.2802
 3548TIP3    H232060   2.046   2.564  16.957 -0.7070  0.7266 -0.8336
 3549TIP3   OH232061   5.991   5.331  16.205 -0.2404  0.0153  0.9754
 3549TIP3    H132062   6.032   5.408  16.165 -2.7749  0.6912 -0.4732
 3549TIP3    H232063   6.044   5.257  16.176 -0.0836  0.8462 -0.9611
 3550TIP3   OH232064   4.217   1.532   2.825 -0.4706  0.7225 -0.2591
 3550TIP3    H132065   4.269   1.475   2.768  1.0683  2.2098 -0.3835
 3550TIP3    H232066   4.206   1.613   2.775 -1.1966  1.1616  0.5965
 3551TIP3   OH232067   4.187   6.611  16.318  0.4505 -0.1653  0.1772
 3551TIP3    H132068   4.178   6.584  16.409  2.2351 -0.5489  0.2640
 3551TIP3    H232069   4.278   6.639  16.311  0.3651 -0.2942 -1.5373
 3552TIP3   OH232070   4.526   3.927  13.575  0.2952  0.0746 -0.0302
 3552TIP3    H132071   4.457   3.992  13.589 -0.8222 -0.3419 -3.1110
 3552TIP3    H232072   4.604   3.979  13.557 -0.6847  0.6574 -2.9198
 3553TIP3   OH232073   5.179   0.448  13.583 -0.1945  0.3729  0.3277
 3553TIP3    H132074   5.129   0.519  13.623  0.0998  1.3754 -1.0643
 3553TIP3    H232075   5.228   0.489  13.512  0.9313 -1.0022  0.2788
 3554TIP3   OH232076   3.506   2.698   0.985  0.1390  0.5317  0.1783
 3554TIP3    H132077   3.470   2.643   1.055  2.4579  2.2050  2.7900
 3554TIP3    H232078   3.532   2.636   0.916  2.3829 -1.6872  2.9056
 3555TIP3   OH232079   5.108   5.054   1.176 -0.3811 -0.6160  0.2363
 3555TIP3    H132080   5.182   5.027   1.231 -1.7163 -1.8134  1.4803
 3555TIP3    H232081   5.047   5.095   1.237 -0.3689  1.1788 -0.9369
 3556TIP3   OH232082   4.578   3.215   1.390  0.5567 -0.3880  0.5892
 3556TIP3    H132083   4.665   3.255   1.390 -0.0765  1.0268 -0.9054
 3556TIP3    H232084   4.551   3.217   1.299 -1.4431  0.0255  1.1713
 3557TIP3   OH232085   1.223   2.295  10.248 -0.4369  0.4489 -0.6713
 3557TIP3    H132086   1.223   2.202  10.268 -1.5275  0.7674  0.8673
 3557TIP3    H232087   1.135   2.325  10.268  0.4476  2.2117  0.7911
 3558TIP3   OH232088   6.252   2.515  13.697  0.3373 -0.1934 -0.1225
 3558TIP3    H132089   6.339   2.483  13.676 -0.0688 -1.2022 -0.2708
 3558TIP3    H232090   6.199   2.436  13.709 -0.8098  0.4044 -1.1070
 3559TIP3   OH232091   3.561   4.180  13.248 -0.2922  0.3271  0.2960
 3559TIP3    H132092   3.646   4.221  13.232  0.0935 -0.3629  0.5429
 3559TIP3    H232093   3.554   4.176  13.343 -0.2352 -0.3466  0.2798
 3560TIP3   OH232094   6.592   3.078   1.787  0.6843  0.5423 -0.4897
 3560TIP3    H132095   6.639   3.129   1.720  0.4433  1.8345  0.3178
 3560TIP3    H232096   6.509   3.055   1.746  0.1267  2.1821 -0.2871
 3561TIP3   OH232097   3.276   6.567  15.808 -0.1431  0.7515 -0.1892
 3561TIP3    H132098   3.274   6.640  15.746  2.1126  0.4055 -0.7114
 3561TIP3    H232099   3.290   6.609  15.893  3.3678  0.8903 -0.7363
 3562TIP3   OH232100   1.605   3.527  13.250  0.0457  0.4453  0.2681
 3562TIP3    H132101   1.682   3.471  13.264 -0.7592 -1.0534 -1.1927
 3562TIP3    H232102   1.628   3.581  13.175  0.2737  1.1049  0.8090
 3563TIP3   OH232103   2.207   3.803   1.172 -0.5698  0.8631 -0.1206
 3563TIP3    H132104   2.222   3.893   1.144  0.6293  0.0598 -2.2391
 3563TIP3    H232105   2.240   3.750   1.099  0.5013 -1.3213  1.8959
 3564TIP3   OH232106   3.241   3.380  13.020 -0.1612 -0.3109  0.5385
 3564TIP3    H132107   3.200   3.442  12.960 -0.7369 -0.7785  0.4453
 3564TIP3    H232108   3.302   3.433  13.071 -0.7699  0.3617  0.5732
 3565TIP3   OH232109   3.884   1.594  14.537 -0.2578  0.2202  0.5696
 3565TIP3    H132110   3.913   1.643  14.461 -1.3692  1.9961  1.2623
 3565TIP3    H232111   3.789   1.602  14.536 -0.1893  2.6827  3.6565
 3566TIP3   OH232112   4.415   6.684   4.267  0.5976 -0.6145  0.3069
 3566TIP3    H132113   4.430   6.711   4.176  1.8728  0.3714  0.7869
 3566TIP3    H232114   4.492   6.631   4.289 -0.4296 -2.1114  0.3407
 3567TIP3   OH232115   6.408   6.044  13.910  0.0527  0.1571 -0.1295
 3567TIP3    H132116   6.443   6.113  13.853  0.4805  0.6382  0.7112
 3567TIP3    H232117   6.473   5.974  13.905  0.4852  0.5153  0.3772
 3568TIP3   OH232118   5.821   4.742  10.621 -0.1826  0.1218  0.4831
 3568TIP3    H132119   5.889   4.699  10.672  0.3834 -0.9342 -1.1191
 3568TIP3    H232120   5.749   4.754  10.682 -0.1674 -2.6642  1.0850
 3569TIP3   OH232121   3.419   1.399   1.731  0.1071  0.1196 -0.1632
 3569TIP3    H132122   3.461   1.436   1.808  1.0756 -0.8276 -0.2398
 3569TIP3    H232123   3.332   1.440   1.730  0.6602  1.3503  0.5183
 3570TIP3   OH232124   3.162   3.302  17.019 -0.5700  0.0571 -0.0865
 3570TIP3    H132125   3.128   3.285  17.107 -2.1861  0.0208 -0.7065
 3570TIP3    H232126   3.182   3.396  17.019 -1.4855  0.2568  0.0190
 3571TIP3   OH232127   4.911   2.211   1.019  0.4830  0.1504 -0.2671
 3571TIP3    H132128   5.005   2.220   1.035  0.7515 -1.2947 -0.9737
 3571TIP3    H232129   4.877   2.301   1.022  1.9717  0.7269 -0.5277
 3572TIP3   OH232130   0.170   6.201  13.497 -0.3039  0.3523 -0.1072
 3572TIP3    H132131   0.115   6.129  13.467  0.4585  0.1725 -1.1209
 3572TIP3    H232132   0.259   6.172  13.479  0.0173  1.4705 -0.3815
 3573TIP3   OH232133   5.573   4.647   0.879 -0.1011  0.1251  0.4302
 3573TIP3    H132134   5.503   4.610   0.825  1.5778 -0.9169 -1.0807
 3573TIP3    H232135   5.568   4.741   0.864  0.0041 -0.1080 -1.1594
 3574TIP3   OH232136   6.067   5.144  16.749  0.1021 -0.1871 -0.0050
 3574TIP3    H132137   6.055   5.196  16.670  1.9316  0.4308  0.1110
 3574TIP3    H232138   6.100   5.060  16.718 -3.8893 -1.7463 -0.2862
 3575TIP3   OH232139   4.085   4.635  10.739 -0.1097  0.1641 -0.2833
 3575TIP3    H132140   4.117   4.639  10.649  0.6082  1.6146  0.0172
 3575TIP3    H232141   4.066   4.726  10.762 -0.4119 -0.2072  0.9956
 3576TIP3   OH232142   3.769   2.085  12.935 -0.3195  0.4498  0.0566
 3576TIP3    H132143   3.854   2.113  12.899  0.3625 -1.0161  0.4785
 3576TIP3    H232144   3.748   2.005  12.886 -1.3757  0.6987  0.0933
 3577TIP3   OH232145   6.016   2.509   1.747  0.0153 -0.4527  0.2655
 3577TIP3    H132146   5.961   2.523   1.824 -1.1045 -2.5650 -0.0964
 3577TIP3    H232147   6.098   2.473   1.781  0.8756  1.9119  0.7399
 3578TIP3   OH232148   1.642   3.929  12.667 -0.2142 -0.1733 -0.0837
 3578TIP3    H132149   1.729   3.888  12.670 -0.2703 -0.2327  1.4617
 3578TIP3    H232150   1.588   3.874  12.724 -0.8023  0.8800  0.3940
 3579TIP3   OH232151   2.013   0.353  14.178  0.3274 -0.0154  0.3938
 3579TIP3    H132152   2.104   0.325  14.164  0.6433  1.3568 -0.4647
 3579TIP3    H232153   2.011   0.443  14.145 -1.6406 -0.4470 -0.7120
 3580TIP3   OH232154   6.380   4.013  15.376  0.3411 -0.7421 -0.0939
 3580TIP3    H132155   6.321   3.942  15.349 -1.7390  0.0715  2.1274
 3580TIP3    H232156   6.322   4.086  15.396  2.1062  0.1105  2.1604
 3581TIP3   OH232157   4.140   4.961   5.413  0.4847  0.6225  0.4277
 3581TIP3    H132158   4.102   4.992   5.496  0.8365 -0.6971  1.1034
 3581TIP3    H232159   4.125   4.867   5.414  2.2489  0.3220 -0.0845
 3582TIP3   OH232160   5.801   1.162   1.207 -0.1713  0.4113  0.4053
 3582TIP3    H132161   5.876   1.153   1.266 -0.0567  0.2397  0.2349
 3582TIP3    H232162   5.727   1.179   1.265  0.2355  1.9884  0.4745
 3583TIP3   OH232163   0.653   3.760   5.128  0.1964 -0.6724 -0.5849
 3583TIP3    H132164   0.693   3.737   5.044  1.4022 -0.9057  0.0444
 3583TIP3    H232165   0.564   3.789   5.105  0.3390 -1.2314 -1.8793
 3584TIP3   OH232166   6.476   1.311  13.405 -0.1206  0.0041 -0.4950
 3584TIP3    H132167   6.419   1.366  13.350  0.6349  0.8438 -0.4376
 3584TIP3    H232168   6.421   1.289  13.480  0.0242  1.8960  0.2044
 3585TIP3   OH232169   5.083   2.032   0.082 -0.2449  0.1199  0.0247
 3585TIP3    H132170   5.033   2.088   0.022 -0.4849 -2.2843 -2.0691
 3585TIP3    H232171   5.019   2.005   0.148 -0.5957  0.7038 -0.0693
 3586TIP3   OH232172   1.156   5.832  16.015 -0.4215  0.0552 -0.2127
 3586TIP3    H132173   1.235   5.820  15.963 -0.8652 -2.9555 -0.2715
 3586TIP3    H232174   1.186   5.871  16.097  0.9951 -0.2495 -0.5798
 3587TIP3   OH232175   4.340   4.811   1.274 -0.2532 -0.3426 -0.1932
 3587TIP3    H132176   4.370   4.762   1.350 -1.5112  0.5610  0.8833
 3587TIP3    H232177   4.407   4.793   1.207  0.0899 -2.3061  0.6379
 3588TIP3   OH232178   1.654   3.754   4.979 -0.1400 -0.3231  0.4902
 3588TIP3    H132179   1.626   3.699   4.906  0.9496 -0.4883  0.1887
 3588TIP3    H232180   1.614   3.714   5.056  0.0580 -1.1291  0.1838
 3589TIP3   OH232181   2.487   5.961   0.169 -0.1415  0.4212 -0.3826
 3589TIP3    H132182   2.571   5.977   0.212  0.0569  1.2475 -1.0695
 3589TIP3    H232183   2.509   5.919   0.086 -0.2184  2.9638 -1.7338
 3590TIP3   OH232184   4.769   6.154  14.245 -0.1164 -0.0177  0.3450
 3590TIP3    H132185   4.733   6.237  14.276 -1.1005  0.2024 -1.3554
 3590TIP3    H232186   4.768   6.098  14.323 -0.0280  1.3526  1.3566
 3591TIP3   OH232187   5.267   5.824   4.930 -0.5120  0.3476  0.2870
 3591TIP3    H132188   5.312   5.783   5.004  1.4856  0.3698 -0.8711
 3591TIP3    H232189   5.280   5.763   4.857 -2.8337  0.1145  0.0352
 3592TIP3   OH232190   4.242   4.611   0.655  0.5633  0.3362  0.2180
 3592TIP3    H132191   4.298   4.627   0.579 -1.0511 -1.1801 -1.3336
 3592TIP3    H232192   4.239   4.695   0.700  1.3344  1.3271 -1.5310
 3593TIP3   OH232193   4.977   2.388  15.080  0.1678  0.4730 -0.4931
 3593TIP3    H132194   4.910   2.320  15.071  0.1643  0.5165 -0.8043
 3593TIP3    H232195   5.037   2.373  15.008  1.4113 -0.5843  0.7376
 3594TIP3   OH232196   4.384   5.829  10.338 -0.3729  0.1331 -0.2099
 3594TIP3    H132197   4.428   5.769  10.398  1.0997  0.4667 -0.9432
 3594TIP3    H232198   4.293   5.832  10.369 -0.2028 -1.6207  0.4811
 3595TIP3   OH232199   2.165   2.016  16.312 -0.3603 -0.3673  0.2947
 3595TIP3    H132200   2.179   2.069  16.390 -0.5653  1.9758 -1.2357
 3595TIP3    H232201   2.089   1.961  16.334 -0.6992  0.5933  1.5694
 3596TIP3   OH232202   4.813   3.907  16.815  0.0111  0.1436  0.1220
 3596TIP3    H132203   4.871   3.830  16.813 -0.2434 -0.0590  0.5794
 3596TIP3    H232204   4.866   3.978  16.780  0.8086  0.1487  1.3476
 3597TIP3   OH232205   5.431   1.745  12.664  0.4732 -0.2876  0.4746
 3597TIP3    H132206   5.454   1.716  12.576  4.4712  1.4981  0.8054
 3597TIP3    H232207   5.426   1.665  12.716  2.5390 -1.0695 -0.4827
 3598TIP3   OH232208   2.190   5.790   2.538  0.5300  0.0154 -0.2563
 3598TIP3    H132209   2.235   5.725   2.484  0.9626 -0.8110  1.0749
 3598TIP3    H232210   2.104   5.750   2.556 -0.1813  0.9280 -1.5294
 3599TIP3   OH232211   6.709   5.758   0.575 -0.5995  0.0132 -0.3235
 3599TIP3    H132212   6.672   5.801   0.498  0.6453  0.1757 -0.8368
 3599TIP3    H232213   6.778   5.701   0.540 -1.5248 -1.6260  0.4452
 3600TIP3   OH232214   6.123   4.037  14.111 -0.0050  0.5086  0.2344
 3600TIP3    H132215   6.183   4.100  14.071  0.4145  1.0657  1.6960
 3600TIP3    H232216   6.037   4.075  14.100  0.1645  0.9234  0.3404
 3601TIP3   OH232217   0.813   6.526  13.132 -0.5198  0.1148 -0.0704
 3601TIP3    H132218   0.725   6.494  13.152  0.5503 -1.3255  2.7419
 3601TIP3    H232219   0.800   6.612  13.092 -3.1716  0.6103  1.7630
 3602TIP3   OH232220   3.338   3.961   6.792 -0.3609 -0.0784 -0.3268
 3602TIP3    H132221   3.367   4.026   6.728  0.2841  1.0442  1.0712
 3602TIP3    H232222   3.409   3.897   6.795 -0.8607 -0.6972 -1.4827
 3603TIP3   OH232223   5.037   1.534   3.617 -0.4587  0.0016 -0.0106
 3603TIP3    H132224   5.020   1.440   3.611  0.1407 -0.0804 -0.5198
 3603TIP3    H232225   4.950   1.574   3.621 -0.7581 -0.4914 -1.3037
 3604TIP3   OH232226   3.880   1.109   6.552  0.5472 -0.1326  0.1599
 3604TIP3    H132227   3.789   1.086   6.567  0.2130  0.9289 -0.2111
 3604TIP3    H232228   3.880   1.204   6.538  1.5243 -0.3004 -1.1734
 3605TIP3   OH232229   5.822   5.647  16.072 -1.0754  0.0167 -0.1452
 3605TIP3    H132230   5.804   5.704  16.146  1.6946 -1.3946  1.6883
 3605TIP3    H232231   5.767   5.570  16.087  0.7130 -0.9954  1.3854
 3606TIP3   OH232232   0.617   2.836   2.154 -0.3570  0.3238 -0.5223
 3606TIP3    H132233   0.692   2.793   2.113  0.2828  0.8568  0.0808
 3606TIP3    H232234   0.552   2.766   2.165  1.0785 -0.7333  1.4622
 3607TIP3   OH232235   2.312   2.520  15.803 -0.3251 -0.3137 -0.1395
 3607TIP3    H132236   2.277   2.507  15.715 -1.4463 -0.8101  0.3721
 3607TIP3    H232237   2.397   2.561  15.789 -0.4054 -0.5831 -1.4597
 3608TIP3   OH232238   3.134   5.578  11.889  0.0449  0.3798 -0.1567
 3608TIP3    H132239   3.064   5.559  11.827  1.5148 -0.8850 -1.4821
 3608TIP3    H232240   3.210   5.598  11.834  0.7913  1.5154  1.2460
 3609TIP3   OH232241   2.676   0.064  11.548 -0.9310  0.2073  0.1979
 3609TIP3    H132242   2.684  -0.005  11.614  1.9644  0.5122  0.2180
 3609TIP3    H232243   2.590   0.104  11.566  0.1223  0.8505  4.3613
 3610TIP3   OH232244   2.251   0.001  15.602  0.1902 -0.3028 -0.4578
 3610TIP3    H132245   2.159  -0.004  15.626  0.0740  2.0081 -0.2767
 3610TIP3    H232246   2.292   0.046  15.677  1.1044  0.3942 -1.3608
 3611TIP3   OH232247   6.227   3.035  11.976  0.3999 -0.4162 -0.1109
 3611TIP3    H132248   6.200   3.110  11.923  1.2240 -0.2147 -0.2534
 3611TIP3    H232249   6.288   2.987  11.921 -0.0809 -1.1648  0.0058
 3612TIP3   OH232250   4.106   6.198  14.866 -0.1335 -0.1918 -0.1354
 3612TIP3    H132251   4.022   6.154  14.871 -0.0346 -0.3758 -0.0873
 3612TIP3    H232252   4.098   6.257  14.791 -0.6071  0.4370  0.4077
 3613TIP3   OH232253   2.957   5.871  15.224 -0.2113  0.1998 -0.2750
 3613TIP3    H132254   3.051   5.863  15.212 -0.3523 -0.7463 -0.7761
 3613TIP3    H232255   2.945   5.876  15.319  0.1055 -3.0182 -0.0116
 3614TIP3   OH232256   0.877   5.337   5.449  0.6036  0.1046  0.4643
 3614TIP3    H132257   0.798   5.379   5.414 -0.4865 -1.4503  0.9535
 3614TIP3    H232258   0.941   5.344   5.378 -1.3543 -2.3796 -1.6875
 3615TIP3   OH232259   2.195   3.044  11.212  0.1201  0.1495 -0.5629
 3615TIP3    H132260   2.152   2.960  11.229  2.1077 -0.7901 -0.0574
 3615TIP3    H232261   2.157   3.103  11.277 -1.3798 -0.3079 -0.9991
 3616TIP3   OH232262   4.667   2.178   0.384 -0.0473 -0.0494  0.5713
 3616TIP3    H132263   4.711   2.255   0.348 -0.0740 -1.0063 -1.6003
 3616TIP3    H232264   4.620   2.210   0.461 -0.5240  2.1987 -0.6241
 3617TIP3   OH232265   2.832   6.353  14.542  0.0816  0.0342  0.1933
 3617TIP3    H132266   2.857   6.362  14.634 -0.6955  1.0067  0.3114
 3617TIP3    H232267   2.872   6.427  14.498 -1.4820  0.8788  0.1609
 3618TIP3   OH232268   3.681   5.862  11.460 -0.1990  0.1314  0.6450
 3618TIP3    H132269   3.674   5.769  11.482 -1.7145  0.3116  0.9504
 3618TIP3    H232270   3.676   5.907  11.544  0.2708  0.5070  0.4714
 3619TIP3   OH232271   6.659   5.857  12.982 -0.1017  0.0940 -0.8066
 3619TIP3    H132272   6.564   5.855  12.994 -0.0270 -2.5248 -0.4765
 3619TIP3    H232273   6.672   5.829  12.891  0.4503 -1.6094 -0.2108
 3620TIP3   OH232274   5.101   4.623  16.727 -0.0242  0.5770  1.0188
 3620TIP3    H132275   5.078   4.706  16.767 -1.8067  0.3426  0.5019
 3620TIP3    H232276   5.027   4.602  16.670  1.7721  0.1784 -1.2641
 3621TIP3   OH232277   2.332   1.894  16.657  0.4983  0.4870 -0.3343
 3621TIP3    H132278   2.255   1.905  16.713  0.5600 -1.0897  0.0750
 3621TIP3    H232279   2.406   1.909  16.715  0.5314  0.4439 -0.3647
 3622TIP3   OH232280   2.343   3.014  16.170 -0.0561 -0.5151 -0.1843
 3622TIP3    H132281   2.376   2.969  16.092  0.1423  1.0455 -1.0247
 3622TIP3    H232282   2.379   2.965  16.243  0.2086 -1.6761 -1.0747
 3623TIP3   OH232283   4.711   6.033   4.723 -0.7004 -0.0710 -0.3654
 3623TIP3    H132284   4.723   6.035   4.818 -2.5038  1.7624 -0.1538
 3623TIP3    H232285   4.788   6.077   4.688  0.5193 -1.7267  0.1633
 3624TIP3   OH232286   0.572   3.553   1.350  0.0757  0.4135  0.0130
 3624TIP3    H132287   0.665   3.551   1.328 -0.6612 -0.8668 -3.3821
 3624TIP3    H232288   0.567   3.520   1.439  2.6832 -2.1482 -0.7179
 3625TIP3   OH232289   2.638   2.822  11.922 -0.2071 -0.0714 -0.0771
 3625TIP3    H132290   2.732   2.805  11.924 -0.2476 -0.4426 -0.9089
 3625TIP3    H232291   2.607   2.800  12.010  0.4904  0.0841  0.2032
 3626TIP3   OH232292   1.784   3.814   6.174 -0.1738  0.9478 -0.3944
 3626TIP3    H132293   1.806   3.745   6.112  0.7076 -0.6050  1.6091
 3626TIP3    H232294   1.690   3.804   6.189  0.1623 -0.5542  0.7575
 3627TIP3   OH232295   5.329   0.420  15.466 -0.6507  0.4759 -0.4530
 3627TIP3    H132296   5.332   0.428  15.562 -0.3133  1.3991 -0.5304
 3627TIP3    H232297   5.341   0.510  15.435  2.4448 -0.2105 -1.4229
 3628TIP3   OH232298   6.416   2.258  15.663 -0.9589 -0.3823  0.0860
 3628TIP3    H132299   6.491   2.317  15.666  0.3570 -2.0634  0.9724
 3628TIP3    H232300   6.399   2.246  15.570 -0.4471  0.3964 -0.1149
 3629TIP3   OH232301   1.236   3.038   3.378  0.1568 -0.5125  1.1179
 3629TIP3    H132302   1.274   2.965   3.328  1.2952 -0.4696  1.9090
 3629TIP3    H232303   1.183   3.086   3.314  0.7009 -1.1011  0.2179
 3630TIP3   OH232304   6.125   2.697  15.963 -0.3024  0.4686  0.0642
 3630TIP3    H132305   6.207   2.680  15.918 -0.5440  0.5042 -0.3981
 3630TIP3    H232306   6.075   2.616  15.955  0.4487 -0.2168  2.0159
 3631TIP3   OH232307   4.050   4.691   2.843 -0.2384  0.2133  0.0603
 3631TIP3    H132308   3.973   4.686   2.899 -0.1772  1.2899  0.2444
 3631TIP3    H232309   4.025   4.645   2.763 -1.6114  1.8850 -0.5073
 3632TIP3   OH232310   4.389   4.362   4.575  0.0014 -0.2065  0.9238
 3632TIP3    H132311   4.298   4.391   4.570  0.3618  1.2719  2.6486
 3632TIP3    H232312   4.436   4.419   4.513 -0.1859 -0.7668  0.2606
 3633TIP3   OH232313   5.391   5.477   3.772  0.7320  0.0816 -0.1052
 3633TIP3    H132314   5.431   5.448   3.854 -0.3575 -0.1838  0.3388
 3633TIP3    H232315   5.354   5.398   3.734 -0.9714  0.6175  0.3920
 3634TIP3   OH232316   6.130   3.960   5.605 -0.1455 -0.0081  0.2251
 3634TIP3    H132317   6.080   3.992   5.530  0.6394  1.7385  0.4273
 3634TIP3    H232318   6.139   3.866   5.589 -0.9430  0.1558 -1.3020
 3635TIP3   OH232319   1.866   0.415  11.407  0.1704  0.2995  0.0666
 3635TIP3    H132320   1.918   0.491  11.433  1.5541  0.1289 -2.0703
 3635TIP3    H232321   1.926   0.362  11.354 -1.5450 -0.9887 -0.6414
 3636TIP3   OH232322   0.384   3.210   3.150 -0.5732 -0.3832 -0.7597
 3636TIP3    H132323   0.322   3.283   3.162  0.0091  0.2007 -1.2184
 3636TIP3    H232324   0.352   3.165   3.072 -2.0759 -1.8209  0.6407
 3637TIP3   OH232325   6.324   1.913   3.469  0.5044 -0.2903  0.0469
 3637TIP3    H132326   6.339   1.979   3.537  0.6829 -1.6025  1.2976
 3637TIP3    H232327   6.333   1.830   3.514 -0.5247 -1.1786 -1.3517
 3638TIP3   OH232328   5.272   0.425  13.877 -0.1875 -0.0834  0.0756
 3638TIP3    H132329   5.312   0.388  13.798 -1.4144  1.4016 -1.2871
 3638TIP3    H232330   5.192   0.373  13.889 -0.9973  0.9309 -0.8100
 3639TIP3   OH232331   1.303   3.304   3.172  0.7670 -0.5557  0.3305
 3639TIP3    H132332   1.278   3.397   3.167  2.2787 -0.1044  0.9838
 3639TIP3    H232333   1.392   3.305   3.205 -0.0897 -2.3629  2.8365
 3640TIP3   OH232334   0.708   4.563  14.368  0.7356  0.8953 -0.0903
 3640TIP3    H132335   0.748   4.648  14.385 -0.1032  1.1112  0.8576
 3640TIP3    H232336   0.743   4.506  14.437  1.4562  0.4190 -0.8446
 3641TIP3   OH232337   6.718   6.776   2.659  0.2959 -0.0542 -0.2899
 3641TIP3    H132338   6.647   6.712   2.660  1.0588 -0.9032 -0.0723
 3641TIP3    H232339   6.777   6.746   2.589 -0.3235  1.4997 -1.5131
 3642TIP3   OH232340   5.692   0.698   4.221 -0.1246  0.5652 -0.0184
 3642TIP3    H132341   5.615   0.723   4.272 -2.5035 -0.8241 -2.8104
 3642TIP3    H232342   5.723   0.618   4.262 -0.8662  0.4841  0.3899
 3643TIP3   OH232343   6.368   0.439  11.229  0.5039 -0.7309 -0.3621
 3643TIP3    H132344   6.373   0.469  11.139 -0.0629 -0.8949 -0.4468
 3643TIP3    H232345   6.458   0.417  11.252  0.9210  0.9705 -0.3194
 3644TIP3   OH232346   3.438   4.987   4.214  0.1257 -0.0249  0.1199
 3644TIP3    H132347   3.423   4.980   4.308 -0.8637 -0.8981 -0.0914
 3644TIP3    H232348   3.445   5.081   4.197  3.4522  0.0563  1.5254
 3645TIP3   OH232349   4.424   2.214   4.873 -0.4073 -0.6119  0.0674
 3645TIP3    H132350   4.495   2.199   4.810 -0.6193  0.1161 -0.3558
 3645TIP3    H232351   4.424   2.309   4.887 -0.9130 -0.6758  0.5147
 3646TIP3   OH232352   5.320   6.677   5.576 -0.6250  0.3983  0.1976
 3646TIP3    H132353   5.290   6.735   5.506  0.0409  1.0860  0.4804
 3646TIP3    H232354   5.272   6.706   5.654 -1.0875 -0.1259  0.1114
 3647TIP3   OH232355   6.412   2.808  13.803  0.7690  0.1336  0.1224
 3647TIP3    H132356   6.412   2.814  13.898 -2.1383  0.4944  0.1381
 3647TIP3    H232357   6.397   2.715  13.784 -1.4993  0.4902  0.0558
 3648TIP3   OH232358   0.253   0.783   3.206 -0.0058  0.5842 -0.1942
 3648TIP3    H132359   0.271   0.858   3.262  0.1487  0.3265  0.1005
 3648TIP3    H232360   0.200   0.725   3.260  0.5780  0.1026 -0.1395
 3649TIP3   OH232361   5.130   1.519   0.041  0.2399  0.0945  0.0709
 3649TIP3    H132362   5.183   1.508   0.120  0.1466  0.9816  0.2661
 3649TIP3    H232363   5.055   1.461   0.055  0.5161 -0.1971  0.3685
 3650TIP3   OH232364   4.658   4.131  12.827  0.0090  0.2248 -0.0432
 3650TIP3    H132365   4.719   4.204  12.824 -1.0557  1.1401 -0.0544
 3650TIP3    H232366   4.641   4.109  12.736  2.2326 -1.6873 -0.0219
 3651TIP3   OH232367   5.947   5.219  13.907 -0.2948 -0.3749  0.4633
 3651TIP3    H132368   5.948   5.229  14.002  1.8821 -0.5087  0.4866
 3651TIP3    H232369   6.024   5.268  13.877 -0.1157 -1.5501 -1.0889
 3652TIP3   OH232370   0.840   3.708  13.331 -0.1676 -0.9569 -0.0767
 3652TIP3    H132371   0.816   3.759  13.409 -0.9437 -0.5806 -0.5566
 3652TIP3    H232372   0.861   3.774  13.265 -2.0159 -1.2247 -0.9671
 3653TIP3   OH232373   0.794   2.143  15.181 -0.2729 -0.0398  0.2691
 3653TIP3    H132374   0.711   2.109  15.214 -0.1166 -0.2852  0.4119
 3653TIP3    H232375   0.825   2.202  15.251 -0.1764 -0.1867  0.3504
 3654TIP3   OH232376   1.973   5.109   1.190  0.5675  0.6660 -0.0460
 3654TIP3    H132377   1.937   5.153   1.267 -1.2927 -1.2591  0.2293
 3654TIP3    H232378   1.922   5.145   1.117 -0.5322 -0.5096  0.1136
 3655TIP3   OH232379   6.182   3.948  12.603 -0.4093  0.0841  0.5974
 3655TIP3    H132380   6.194   4.027  12.551  0.4504  1.4842  2.8599
 3655TIP3    H232381   6.087   3.941  12.615 -0.5582  0.1732 -0.4846
 3656TIP3   OH232382   5.549   3.140   3.567 -0.2012  1.1676 -0.3238
 3656TIP3    H132383   5.562   3.085   3.490 -0.9286  2.0816 -1.1246
 3656TIP3    H232384   5.631   3.135   3.615 -0.0638 -0.1524 -0.6853
 3657TIP3   OH232385   5.099   2.474  16.550  0.6268 -0.1962  0.1290
 3657TIP3    H132386   5.019   2.423  16.557  1.3951 -1.4865 -0.3612
 3657TIP3    H232387   5.113   2.484  16.456 -0.5562  2.5911  0.2147
 3658TIP3   OH232388   2.775   5.060   0.456  0.1493 -0.7205 -0.7510
 3658TIP3    H132389   2.707   5.054   0.389 -0.3680  0.9000 -0.3877
 3658TIP3    H232390   2.855   5.033   0.412 -0.0402  1.0981 -2.2625
 3659TIP3   OH232391   5.732   0.949  14.164 -0.1137  0.3954  0.3700
 3659TIP3    H132392   5.696   0.966  14.077 -1.1927 -0.3473  0.6693
 3659TIP3    H232393   5.768   0.860  14.159  0.8354  0.7706  0.3598
 3660TIP3   OH232394   2.205   0.916   2.737  0.3475  0.0093 -0.2766
 3660TIP3    H132395   2.122   0.889   2.778  0.3407  0.1342 -0.2096
 3660TIP3    H232396   2.181   0.989   2.680  0.7622  1.5033  1.4062
 3661TIP3   OH232397   4.572   1.636   2.229  0.4280 -0.4078 -0.8141
 3661TIP3    H132398   4.602   1.643   2.138  2.0926  1.2688 -0.1570
 3661TIP3    H232399   4.477   1.648   2.223  0.5853  0.2563 -2.2773
 3662TIP3   OH232400   2.751   3.086  12.486  0.3293 -0.2840 -0.3067
 3662TIP3    H132401   2.698   3.073  12.565 -0.2805 -0.1590 -0.6987
 3662TIP3    H232402   2.828   3.135  12.517  1.1357 -2.0505  0.6213
 3663TIP3   OH232403   4.177   6.094   4.794 -0.2305  0.2715  0.4338
 3663TIP3    H132404   4.231   6.173   4.784 -0.8224  0.6575  0.3206
 3663TIP3    H232405   4.123   6.112   4.871  1.0999 -0.8640  1.6694
 3664TIP3   OH232406   1.611   1.627  15.971 -0.0964  0.1282  0.3242
 3664TIP3    H132407   1.608   1.626  15.876  1.7047  1.6478  0.2054
 3664TIP3    H232408   1.705   1.627  15.992 -0.4043  2.9626  1.9867
 3665TIP3   OH232409   4.791   3.009   4.759 -0.5270  0.1503  0.2740
 3665TIP3    H132410   4.852   2.973   4.696 -0.2705  1.7124 -0.3879
 3665TIP3    H232411   4.843   3.023   4.838 -0.6984 -1.1906  0.6349
 3666TIP3   OH232412   6.707   5.846   4.821 -0.1210  0.3433  0.0625
 3666TIP3    H132413   6.767   5.921   4.823 -0.3079  0.5894 -2.2523
 3666TIP3    H232414   6.743   5.789   4.753 -1.0792 -0.7408  0.4573
 3667TIP3   OH232415   6.660   2.690   1.420  0.8745  0.7725 -0.2522
 3667TIP3    H132416   6.727   2.759   1.415  0.3046  1.3704  0.1906
 3667TIP3    H232417   6.659   2.665   1.512  0.7784  0.4626 -0.3373
 3668TIP3   OH232418   6.011   3.452  11.027 -0.2730  0.3324 -0.5998
 3668TIP3    H132419   6.072   3.487  10.962 -0.0258 -0.8447 -1.0225
 3668TIP3    H232420   5.951   3.524  11.046 -0.0493  0.8331 -1.7742
 3669TIP3   OH232421   4.506   4.787  14.070  0.4767 -0.4064  0.1038
 3669TIP3    H132422   4.545   4.753  14.150  2.4609  1.5360  0.0158
 3669TIP3    H232423   4.476   4.875  14.093 -0.7762 -0.5971 -0.7509
 3670TIP3   OH232424   2.099   0.841   4.280  0.2698  0.7193 -0.5256
 3670TIP3    H132425   2.034   0.911   4.286 -0.1972  0.2052  0.7010
 3670TIP3    H232426   2.106   0.808   4.370  0.3605 -0.9209 -1.1198
 3671TIP3   OH232427   1.845   2.299   3.114  0.2051  0.3001  0.4560
 3671TIP3    H132428   1.897   2.219   3.124 -1.3276 -0.6848  0.6268
 3671TIP3    H232429   1.887   2.361   3.174  0.1488 -1.0256  1.9204
 3672TIP3   OH232430   3.068   2.061   5.710  0.1875  0.2778  0.1120
 3672TIP3    H132431   3.056   2.033   5.619  1.1416  2.8477 -0.8248
 3672TIP3    H232432   2.982   2.094   5.737  0.5130  1.7985 -0.6739
 3673TIP3   OH232433   4.885   2.945  12.747  0.2087 -0.0873  0.0302
 3673TIP3    H132434   4.966   2.921  12.793  1.0761  2.3780 -0.1088
 3673TIP3    H232435   4.816   2.895  12.792  1.8340 -2.4951 -0.0945
 3674TIP3   OH232436   0.548   3.164  14.018  0.2159  0.0944  0.2753
 3674TIP3    H132437   0.469   3.115  13.997  0.9518 -0.0208 -2.4267
 3674TIP3    H232438   0.517   3.254  14.031 -0.2985  0.1476 -1.2673
 3675TIP3   OH232439   4.727   2.810   0.076 -0.0511 -0.0854  0.7857
 3675TIP3    H132440   4.821   2.795   0.079 -0.2254 -1.0718  1.8568
 3675TIP3    H232441   4.714   2.892   0.124  0.4087  0.8466 -0.6682
 3676TIP3   OH232442   4.054   4.163  16.633  0.1042 -0.2109 -0.3602
 3676TIP3    H132443   4.093   4.233  16.687 -0.1007 -0.0496 -0.4226
 3676TIP3    H232444   4.010   4.106  16.697  2.9062 -2.0463  0.0869
 3677TIP3   OH232445   1.807   1.222   3.408 -0.0274 -0.1518 -0.3628
 3677TIP3    H132446   1.871   1.223   3.336  0.1423  0.6673 -0.2118
 3677TIP3    H232447   1.856   1.186   3.482  0.0309 -0.2656 -0.4564
 3678TIP3   OH232448   4.499   1.819  10.741  0.1591 -0.1669  0.5894
 3678TIP3    H132449   4.591   1.833  10.720  0.0085 -0.6752 -0.4066
 3678TIP3    H232450   4.499   1.792  10.833  0.9438  0.4699  0.7815
 3679TIP3   OH232451   0.003   6.666   2.264  0.0457  0.4404  1.1748
 3679TIP3    H132452  -0.020   6.753   2.232 -0.7511  0.1930  1.0454
 3679TIP3    H232453   0.045   6.682   2.349 -1.1024  0.8876  1.6693
 3680TIP3   OH232454   2.732   1.681  12.091  0.0652 -0.3252 -0.1782
 3680TIP3    H132455   2.773   1.685  12.005 -1.5917  1.3565 -0.9004
 3680TIP3    H232456   2.681   1.761  12.098  0.9901  0.0766  2.7987
 3681TIP3   OH232457   3.120   3.740   1.821  0.4957 -0.2070  0.7295
 3681TIP3    H132458   3.161   3.670   1.770  2.1498  0.1683  1.5229
 3681TIP3    H232459   3.099   3.807   1.756  0.5618 -0.6730  0.2219
 3682TIP3   OH232460   1.603   4.362   2.649  0.4658 -0.6881  0.0069
 3682TIP3    H132461   1.560   4.277   2.659 -2.7045  1.0527  1.7387
 3682TIP3    H232462   1.532   4.424   2.634  2.7539  1.6513 -1.5990
 3683TIP3   OH232463   2.957   2.520   1.731 -0.4691 -0.7504 -0.1382
 3683TIP3    H132464   2.993   2.465   1.801 -1.8458 -1.1487  0.2656
 3683TIP3    H232465   2.867   2.537   1.758 -0.1750  1.3902 -0.4543
 3684TIP3   OH232466   3.507   2.450   0.371 -0.0215 -0.0497  0.6566
 3684TIP3    H132467   3.427   2.422   0.327 -1.0888  1.1120  1.8017
 3684TIP3    H232468   3.559   2.490   0.302 -1.4982  1.4079  0.3495
 3685TIP3   OH232469   0.711   1.762  14.034  0.4834 -0.3683 -0.3764
 3685TIP3    H132470   0.655   1.764  13.956 -1.2528 -1.8254  0.8012
 3685TIP3    H232471   0.736   1.854  14.047 -1.6735  0.3352 -0.9088
 3686TIP3   OH232472   3.238   0.664   2.060 -0.3509  0.2911 -0.1315
 3686TIP3    H132473   3.211   0.755   2.051 -0.3919 -0.0034 -3.8497
 3686TIP3    H232474   3.321   0.659   2.014 -1.4587 -1.9745 -2.0156
 3687TIP3   OH232475   5.336   4.378   4.300 -0.8280  0.4638 -0.3135
 3687TIP3    H132476   5.267   4.415   4.354 -1.2702  0.5409 -0.9288
 3687TIP3    H232477   5.374   4.452   4.254 -0.1139  0.4673  0.2568
 3688TIP3   OH232478   3.517   6.280  11.788  0.1138  0.1122  0.0648
 3688TIP3    H132479   3.516   6.253  11.697  0.1506  0.4727 -0.0437
 3688TIP3    H232480   3.601   6.249  11.821  0.9329  1.6105 -0.5296
 3689TIP3   OH232481   3.129   1.088  10.833 -0.3120 -0.0268  0.0055
 3689TIP3    H132482   3.170   1.159  10.783  0.3420 -0.0666  0.4817
 3689TIP3    H232483   3.039   1.085  10.801 -0.0336  0.2799 -0.8182
 3690TIP3   OH232484   5.492   5.399   1.188  0.0460 -0.0258 -0.3464
 3690TIP3    H132485   5.450   5.440   1.264 -1.3683 -0.9623 -0.6080
 3690TIP3    H232486   5.565   5.458   1.167 -0.4370  1.0266  0.8130
 3691TIP3   OH232487   3.661   3.636   0.642 -0.5790 -0.7211  0.2592
 3691TIP3    H132488   3.586   3.581   0.663 -0.0654 -1.6259 -0.2302
 3691TIP3    H232489   3.656   3.649   0.547 -0.6280 -0.0153  0.3521
 3692TIP3   OH232490   1.423   5.495  13.866  0.8018  0.6536 -0.2708
 3692TIP3    H132491   1.362   5.537  13.927 -0.4777  1.1315 -1.8492
 3692TIP3    H232492   1.379   5.414  13.840  3.0854 -1.5676  2.4580
 3693TIP3   OH232493   4.446   5.623   0.509  0.1438 -0.3057  0.0347
 3693TIP3    H132494   4.534   5.586   0.496 -0.4270 -2.2190  1.4091
 3693TIP3    H232495   4.437   5.689   0.440  1.0539 -2.9888 -2.7485
 3694TIP3   OH232496   1.567   5.664   4.047 -0.0418 -0.0560  0.6366
 3694TIP3    H132497   1.645   5.613   4.028  0.4192  1.0252 -0.4226
 3694TIP3    H232498   1.505   5.640   3.979  0.8391  2.1705 -1.0029
 3695TIP3   OH232499   5.646   0.131   3.318 -0.1919  0.1805 -0.3178
 3695TIP3    H132500   5.704   0.083   3.259 -0.6999 -1.8039  0.7320
 3695TIP3    H232501   5.569   0.152   3.265 -1.0123 -2.3152 -0.2087
 3696TIP3   OH232502   3.226   4.040   4.973 -0.0317 -0.6613 -0.5960
 3696TIP3    H132503   3.279   4.014   5.048 -0.3961 -1.8684 -0.7423
 3696TIP3    H232504   3.246   3.974   4.906  0.2859  0.3912 -1.5597
 3697TIP3   OH232505   5.611   6.591   5.426 -0.6140  0.1370 -0.4027
 3697TIP3    H132506   5.520   6.582   5.396 -0.7385  0.7107 -0.2016
 3697TIP3    H232507   5.603   6.604   5.520 -0.3612  0.8966 -0.4839
 3698TIP3   OH232508   0.516   6.439   4.436  0.2519  0.4612 -1.0312
 3698TIP3    H132509   0.474   6.445   4.350 -2.1986  1.0971  0.1577
 3698TIP3    H232510   0.517   6.529   4.469  3.2819  0.5750 -1.3135
 3699TIP3   OH232511   0.295   3.451   4.464 -0.3843  0.5620  0.1731
 3699TIP3    H132512   0.387   3.425   4.458 -0.4062  0.5718 -0.2460
 3699TIP3    H232513   0.269   3.469   4.373 -1.1460 -0.6207  0.1540
 3700TIP3   OH232514   0.950   6.012  13.318 -0.1195  0.2095  0.0431
 3700TIP3    H132515   1.003   6.080  13.360  1.4455  0.1189 -1.7277
 3700TIP3    H232516   0.906   6.058  13.246  1.1218 -0.6476 -1.3036
 3701TIP3   OH232517   3.461   0.314  12.181 -0.4147 -0.0602 -0.3008
 3701TIP3    H132518   3.502   0.257  12.116  1.7710 -0.8913  1.7545
 3701TIP3    H232519   3.388   0.263  12.216  0.0089 -0.6254 -0.2398
 3702TIP3   OH232520   6.740   5.989   1.920  0.3326  0.1911  0.3858
 3702TIP3    H132521   6.741   5.974   2.015 -0.8533  0.0310  0.3785
 3702TIP3    H232522   6.831   6.007   1.898  1.0032 -1.9678  1.2111
 3703TIP3   OH232523   3.082   6.094   0.950 -0.5018  0.3886  0.0381
 3703TIP3    H132524   3.175   6.102   0.972 -0.2684  0.9850 -1.1464
 3703TIP3    H232525   3.043   6.177   0.976 -0.6390  0.2731  0.2048
 3704TIP3   OH232526   5.116   6.112  17.028 -0.3970  0.4325  0.2882
 3704TIP3    H132527   5.046   6.102  16.962  0.1975  1.7130 -0.5563
 3704TIP3    H232528   5.085   6.061  17.103 -0.5844 -1.9961 -1.3810
 3705TIP3   OH232529   3.717   3.080   5.382  0.2466  0.0454 -0.0101
 3705TIP3    H132530   3.790   3.081   5.320  0.4023  0.5986  0.1815
 3705TIP3    H232531   3.744   3.020   5.451  1.0680  1.2566  0.7246
 3706TIP3   OH232532   3.571   0.343   6.222  0.0237 -0.1534 -0.1974
 3706TIP3    H132533   3.566   0.344   6.317 -1.9018  0.6360 -0.2781
 3706TIP3    H232534   3.501   0.282   6.195  0.9777 -0.8818 -1.0896
 3707TIP3   OH232535   2.539   0.123  15.749 -0.5496 -0.5176 -0.2157
 3707TIP3    H132536   2.573   0.034  15.750 -0.0641 -0.3418 -0.8265
 3707TIP3    H232537   2.571   0.162  15.831  1.8491  0.0571 -1.3891
 3708TIP3   OH232538   3.549   0.438  11.664  0.6837 -0.6941 -0.1368
 3708TIP3    H132539   3.501   0.355  11.667 -0.0121 -0.3318 -0.9136
 3708TIP3    H232540   3.640   0.413  11.646  0.8998 -1.4188  1.9324
 3709TIP3   OH232541   1.949   4.578   5.960 -0.0897 -0.2009  0.2107
 3709TIP3    H132542   2.015   4.528   5.913 -0.5353 -0.6070  0.0190
 3709TIP3    H232543   1.886   4.604   5.893  1.3870  2.7015 -0.1477
 3710TIP3   OH232544   5.645   1.018   5.827  0.2592  0.1820 -0.1415
 3710TIP3    H132545   5.608   0.937   5.793  2.2520 -0.4609 -0.8084
 3710TIP3    H232546   5.655   1.002   5.921  0.7399 -0.3844 -0.2870
 3711TIP3   OH232547   3.543   3.791  12.826 -0.3694 -0.5968  0.1650
 3711TIP3    H132548   3.525   3.697  12.829  1.0507 -0.8730  0.1188
 3711TIP3    H232549   3.634   3.799  12.853 -0.5014  0.7768  0.2091
 3712TIP3   OH232550   3.688   2.451   2.453 -0.1667  0.4451 -0.8444
 3712TIP3    H132551   3.594   2.453   2.435 -0.2817 -0.2892 -0.3251
 3712TIP3    H232552   3.725   2.398   2.383 -0.2747 -0.1602 -0.4441
 3713TIP3   OH232553   0.547   4.075  15.914 -0.6673  0.1562  0.1327
 3713TIP3    H132554   0.569   4.087  15.821 -1.1076 -1.5311 -0.2003
 3713TIP3    H232555   0.507   4.158  15.939  0.3844  1.0088 -0.9121
 3714TIP3   OH232556   1.715   6.536   0.794 -0.2956  0.6100  0.2188
 3714TIP3    H132557   1.810   6.525   0.800 -0.1502  1.5785 -0.1689
 3714TIP3    H232558   1.704   6.611   0.736 -1.2087  2.6217  2.9298
 3715TIP3   OH232559   0.144   4.558  17.107 -0.6729  0.0414  0.2569
 3715TIP3    H132560   0.154   4.641  17.153  0.7436 -0.0846  0.1927
 3715TIP3    H232561   0.163   4.491  17.172  3.0857 -0.0943 -0.9019
 3716TIP3   OH232562   6.650   0.266  14.243  0.1180  0.1285  0.2229
 3716TIP3    H132563   6.655   0.361  14.257 -1.0707  0.2616 -0.1404
 3716TIP3    H232564   6.740   0.236  14.250  0.4314  1.1962  0.9730
 3717TIP3   OH232565   5.165   6.697  15.196 -0.3092 -0.3357  0.4645
 3717TIP3    H132566   5.254   6.712  15.164  0.0369 -0.5560  1.3294
 3717TIP3    H232567   5.109   6.742  15.133  0.3535 -1.0322 -0.6367
 3718TIP3   OH232568   2.763   6.209   1.469 -0.0136  0.0080 -0.6992
 3718TIP3    H132569   2.697   6.157   1.514  1.2769 -1.7334 -0.7933
 3718TIP3    H232570   2.760   6.294   1.512 -1.6035 -0.3675 -0.0378
 3719TIP3   OH232571   0.166   6.129  16.725 -0.6811  0.3257 -0.3653
 3719TIP3    H132572   0.111   6.133  16.803 -0.4670 -2.3942 -0.0245
 3719TIP3    H232573   0.207   6.216  16.720 -0.9196  0.6458  2.3840
 3720TIP3   OH232574   5.590   3.626  11.895  0.1772  0.5835  0.5494
 3720TIP3    H132575   5.571   3.587  11.980 -1.8712 -0.0103 -0.1457
 3720TIP3    H232576   5.624   3.554  11.842  0.3310  0.6790  0.5190
 3721TIP3   OH232577   3.554   4.340  15.549  0.1685  0.0483  0.3864
 3721TIP3    H132578   3.497   4.332  15.472 -0.0644 -0.1762  0.5766
 3721TIP3    H232579   3.493   4.358  15.621  0.5140  1.6462  0.2943
 3722TIP3   OH232580   5.416   3.327   2.623 -0.3901 -0.4714  0.2685
 3722TIP3    H132581   5.364   3.380   2.684  0.9072  2.2655 -0.9184
 3722TIP3    H232582   5.433   3.385   2.549  5.1409 -0.9404  0.9814
 3723TIP3   OH232583   4.853   4.668   4.377 -0.3007  0.1741 -0.0384
 3723TIP3    H132584   4.947   4.682   4.389 -0.1761 -0.0480 -0.7571
 3723TIP3    H232585   4.844   4.572   4.375 -0.8028  0.1446  2.1127
 3724TIP3   OH232586   1.973   3.234  12.621  0.1221  0.4426  0.2822
 3724TIP3    H132587   2.012   3.162  12.572 -1.0595 -0.5200  0.7216
 3724TIP3    H232588   2.001   3.220  12.711  0.8382  1.1991  0.1800
 3725TIP3   OH232589   1.810   6.422   2.011 -0.7258  0.3718  0.0712
 3725TIP3    H132590   1.788   6.345   2.064 -1.8682  0.2257 -0.5971
 3725TIP3    H232591   1.895   6.401   1.972 -1.0405 -0.5723 -0.1219
 3726TIP3   OH232592   0.203   3.752   5.225  0.1612 -0.3532  0.0839
 3726TIP3    H132593   0.116   3.790   5.241 -0.7581 -2.2136 -0.3672
 3726TIP3    H232594   0.261   3.799   5.284 -1.1456  0.9508  0.3676
 3727TIP3   OH232595   3.131   3.498  14.216  0.2178  0.3394  0.6407
 3727TIP3    H132596   3.226   3.496  14.208  0.2079 -0.6283  0.6297
 3727TIP3    H232597   3.112   3.577  14.266  0.9635  1.0314 -0.1488
 3728TIP3   OH232598   5.228   0.769   5.018  0.2235 -0.5380 -0.2532
 3728TIP3    H132599   5.191   0.689   4.980 -3.3168  1.9506 -2.3270
 3728TIP3    H232600   5.288   0.801   4.951 -1.5393  0.6996 -1.2874
 3729TIP3   OH232601   2.002   3.446  16.082 -0.1112  0.3182 -0.3242
 3729TIP3    H132602   2.009   3.534  16.118  0.1946  0.1626 -0.0006
 3729TIP3    H232603   1.946   3.398  16.144 -0.9000  0.4901 -0.8935
 3730TIP3   OH232604   4.730   3.322  15.046 -0.4700  0.5071  0.4211
 3730TIP3    H132605   4.813   3.282  15.019 -0.5052  0.9541 -0.3515
 3730TIP3    H232606   4.756   3.399  15.096 -0.4234  0.6111  0.2342
 3731TIP3   OH232607   1.826   2.741   3.981 -0.8273 -0.2620  0.4154
 3731TIP3    H132608   1.879   2.820   3.995  0.3469 -0.9046 -0.3403
 3731TIP3    H232609   1.791   2.721   4.068  0.6326 -0.1420  1.0518
 3732TIP3   OH232610   3.270   5.600   0.620  0.3980 -1.0432  0.3144
 3732TIP3    H132611   3.339   5.654   0.659  0.4495 -0.9394  0.0756
 3732TIP3    H232612   3.239   5.650   0.545  1.1157 -1.7834 -0.4921
 3733TIP3   OH232613   1.751   0.095  13.189  0.5947  0.3393  0.2525
 3733TIP3    H132614   1.835   0.130  13.219 -0.4040  1.4346  1.8539
 3733TIP3    H232615   1.719   0.044  13.263 -0.4205  0.4008 -0.1448
 3734TIP3   OH232616   2.867   4.312   0.248  0.2693  0.3745 -0.3596
 3734TIP3    H132617   2.843   4.219   0.244 -1.4288  0.8407 -1.6819
 3734TIP3    H232618   2.819   4.346   0.323  1.4730  0.0251  0.5696
 3735TIP3   OH232619   5.497   4.145   2.519 -0.2241 -0.0571  0.2286
 3735TIP3    H132620   5.556   4.170   2.448 -1.3528  1.0486 -0.3346
 3735TIP3    H232621   5.529   4.193   2.595  1.0092 -1.2712  0.4920
 3736TIP3   OH232622   3.104   2.365  15.130 -0.1106 -0.0391  0.5106
 3736TIP3    H132623   3.196   2.338  15.132 -0.1845 -0.7782 -2.4450
 3736TIP3    H232624   3.106   2.460  15.138  0.8697 -0.0853  0.8919
 3737TIP3   OH232625   1.878   1.782   3.230 -0.6967 -0.2662  0.6192
 3737TIP3    H132626   1.804   1.721   3.231 -1.4003  0.5468 -0.4964
 3737TIP3    H232627   1.925   1.761   3.149 -0.0680 -0.3452  0.9995
 3738TIP3   OH232628   5.771   5.863   2.565 -0.7347 -0.4732 -0.1584
 3738TIP3    H132629   5.817   5.906   2.636  0.2586  0.9192 -1.6273
 3738TIP3    H232630   5.839   5.819   2.514 -1.5186 -2.1340  0.1819
 3739TIP3   OH232631   3.533   1.946  10.775 -1.0126  0.1326 -0.4179
 3739TIP3    H132632   3.599   1.909  10.833 -0.7965  0.8542 -0.1949
 3739TIP3    H232633   3.507   2.028  10.818 -0.2127  1.1114 -1.7691
 3740TIP3   OH232634   2.579   1.835  16.508  0.4141 -0.2997  0.1260
 3740TIP3    H132635   2.633   1.911  16.531 -1.3690  0.8056  0.8178
 3740TIP3    H232636   2.570   1.786  16.589 -0.4364  0.0759  0.2721
 3741TIP3   OH232637   3.359   4.455  13.323  0.5365 -0.0349  0.3788
 3741TIP3    H132638   3.307   4.491  13.395 -0.6909  1.1449 -1.0637
 3741TIP3    H232639   3.332   4.363  13.317 -2.3947  0.8586 -1.1566
 3742TIP3   OH232640   3.086   2.505   2.335 -0.0116  0.4144  0.1514
 3742TIP3    H132641   3.026   2.455   2.390 -0.3490  0.8938  0.2216
 3742TIP3    H232642   3.069   2.473   2.246  2.3718 -2.2282  0.6024
 3743TIP3   OH232643   0.402   0.469   3.526  0.1317 -0.3520 -0.3396
 3743TIP3    H132644   0.339   0.522   3.575  0.9624  2.4493 -2.2448
 3743TIP3    H232645   0.356   0.444   3.446  0.5887 -0.4154 -0.5857
 3744TIP3   OH232646   5.338   0.709  15.196 -0.4608 -0.5678 -0.0836
 3744TIP3    H132647   5.297   0.623  15.186 -0.8790 -0.1256 -2.3007
 3744TIP3    H232648   5.266   0.766  15.224 -0.4723 -0.6448  0.0478
 3745TIP3   OH232649   1.684   2.347  11.011  0.7409  0.4726 -0.4413
 3745TIP3    H132650   1.655   2.258  10.992 -0.6399  0.7414  0.2800
 3745TIP3    H232651   1.616   2.403  10.974  0.7758  1.1663  0.4995
 3746TIP3   OH232652   4.786   3.190  12.665  0.0710  0.1309 -0.0276
 3746TIP3    H132653   4.786   3.222  12.755 -1.5876 -0.1484  0.0817
 3746TIP3    H232654   4.820   3.101  12.672 -1.9799 -0.6284  0.6204
 3747TIP3   OH232655   2.310   2.871   4.525 -0.3528 -0.2848 -0.3119
 3747TIP3    H132656   2.339   2.783   4.502 -0.0326  0.1404 -1.5764
 3747TIP3    H232657   2.362   2.894   4.602 -0.7582 -1.3663  0.2825
 3748TIP3   OH232658   2.368   0.648   1.708  0.7586 -0.4123 -0.2265
 3748TIP3    H132659   2.388   0.644   1.802 -1.4910 -1.0705  0.2761
 3748TIP3    H232660   2.302   0.718   1.701  0.7176 -0.5493 -1.2820
 3749TIP3   OH232661   6.022   1.420  15.351 -0.6679 -0.2218  0.1299
 3749TIP3    H132662   6.021   1.516  15.362 -0.8912 -0.1435 -0.5237
 3749TIP3    H232663   6.101   1.392  15.397 -1.2412  0.1472  1.3522
 3750TIP3   OH232664   0.539   3.840  12.305  0.1349  0.1028 -0.0041
 3750TIP3    H132665   0.457   3.868  12.346  1.2424  0.9041  1.7298
 3750TIP3    H232666   0.519   3.754  12.267 -1.9755  1.0732 -1.1654
 3751TIP3   OH232667   5.803   5.222  10.378  0.1840 -0.0092  0.5366
 3751TIP3    H132668   5.786   5.130  10.395 -0.2013  0.0494  0.4776
 3751TIP3    H232669   5.752   5.242  10.299  2.3212 -0.4180 -1.0122
 3752TIP3   OH232670   5.387   6.611  12.988 -0.0157  0.3549  0.4914
 3752TIP3    H132671   5.379   6.516  12.988 -1.5058  0.4493  2.7123
 3752TIP3    H232672   5.407   6.634  13.079 -1.5884  2.2811  0.3905
 3753TIP3   OH232673   2.384   2.436  12.057 -0.5541 -0.3622 -0.1438
 3753TIP3    H132674   2.447   2.443  12.129 -1.1494 -1.0978  0.4547
 3753TIP3    H232675   2.330   2.361  12.080  0.3439 -1.6634 -2.2310
 3754TIP3   OH232676   6.028   6.222  16.378  0.3645 -0.6463 -0.7732
 3754TIP3    H132677   6.091   6.287  16.345  0.6381 -0.1830  0.6535
 3754TIP3    H232678   5.979   6.196  16.300  0.2459  1.2779 -1.3748
 3755TIP3   OH232679   2.831   5.620   3.625 -0.0427  0.5841 -0.0326
 3755TIP3    H132680   2.805   5.539   3.581  0.1741  0.6914 -0.3618
 3755TIP3    H232681   2.797   5.611   3.714  1.7638 -0.7958  0.5673
 3756TIP3   OH232682   6.501   6.599  13.228  0.5154 -0.1754 -0.4622
 3756TIP3    H132683   6.534   6.556  13.149  1.7241 -0.6635  0.3009
 3756TIP3    H232684   6.555   6.677  13.238  0.9288 -0.5547  0.3404
 3757TIP3   OH232685   2.454   5.814   3.323  0.3549 -0.6822  0.4087
 3757TIP3    H132686   2.399   5.741   3.349 -0.3353 -0.2397  0.2004
 3757TIP3    H232687   2.399   5.891   3.333  0.7610 -0.2854 -0.3072
 3758TIP3   OH232688   3.065   2.025   1.384 -0.3476 -0.1961  0.4679
 3758TIP3    H132689   3.115   2.047   1.306 -1.3274 -2.0139 -0.6986
 3758TIP3    H232690   3.026   2.108   1.412 -0.0616  0.4446 -1.0203
 3759TIP3   OH232691   4.893   3.887  17.221 -0.5102 -0.2920  0.0153
 3759TIP3    H132692   4.843   3.943  17.162 -1.3077  1.3647  2.2046
 3759TIP3    H232693   4.985   3.903  17.199 -0.7898  0.7477 -0.3900
 3760TIP3   OH232694   1.155   0.503  14.346 -0.7163  0.2820  0.1007
 3760TIP3    H132695   1.203   0.449  14.282 -1.5104 -0.4442  0.1143
 3760TIP3    H232696   1.207   0.583  14.352  0.4960 -0.4794  0.0885
 3761TIP3   OH232697   3.810   0.328   4.463  0.0723 -0.0875  0.0709
 3761TIP3    H132698   3.900   0.310   4.433  0.3584  0.5354  0.5373
 3761TIP3    H232699   3.765   0.244   4.454  0.5168 -0.2398 -0.8163
 3762TIP3   OH232700   6.231   6.361   0.016  0.2660 -0.3096  0.1824
 3762TIP3    H132701   6.207   6.273  -0.012 -1.2540 -0.0884  0.7204
 3762TIP3    H232702   6.185   6.373   0.099  1.5847  0.4837  0.8132
 3763TIP3   OH232703   6.697   5.999  14.360 -0.6222  0.0879 -0.0156
 3763TIP3    H132704   6.709   6.070  14.423 -0.7036  0.9398 -0.9490
 3763TIP3    H232705   6.608   6.012  14.326 -0.5930 -0.3918 -0.2785
 3764TIP3   OH232706   6.197   2.401  15.362  0.0814  0.4313 -0.2474
 3764TIP3    H132707   6.215   2.464  15.293 -1.7266  1.8787  0.5588
 3764TIP3    H232708   6.108   2.370  15.344 -0.2026  0.4048  1.0860
 3765TIP3   OH232709   1.889   6.344   0.962 -0.0269  0.0638 -0.1792
 3765TIP3    H132710   1.893   6.348   0.867 -0.7080  2.9311 -0.1418
 3765TIP3    H232711   1.942   6.419   0.991  0.6118 -1.0863  1.7135
 3766TIP3   OH232712   0.303   3.211   5.414 -0.1036 -0.6861 -0.0241
 3766TIP3    H132713   0.292   3.189   5.507 -2.4948 -3.3062 -0.8308
 3766TIP3    H232714   0.371   3.151   5.384  1.4825  0.9507  0.2718
 3767TIP3   OH232715   6.343   0.711  11.819 -0.5620 -0.0965  0.2047
 3767TIP3    H132716   6.329   0.782  11.755 -0.0706  0.2453  0.4753
 3767TIP3    H232717   6.433   0.723  11.848 -1.1039  0.3888  1.7392
 3768TIP3   OH232718   2.343   6.320  15.057  0.1535  0.5583 -0.2549
 3768TIP3    H132719   2.326   6.326  14.963 -0.1242  1.5530 -0.1538
 3768TIP3    H232720   2.287   6.388  15.095  0.3194  0.2097  0.6234
 3769TIP3   OH232721   3.373   1.278  10.997 -0.1351 -0.0886  0.2289
 3769TIP3    H132722   3.464   1.248  10.986  0.6151  1.7552  1.2184
 3769TIP3    H232723   3.347   1.307  10.910  0.6175  0.3910  0.1514
 3770TIP3   OH232724   0.251   1.956   5.487 -0.0936  0.6243  0.3261
 3770TIP3    H132725   0.195   1.885   5.519  0.4867  1.0603  2.4075
 3770TIP3    H232726   0.318   1.912   5.435 -0.0547 -0.3129  1.1534
 3771TIP3   OH232727   5.241   3.456  14.867 -0.3424  0.5693 -0.1800
 3771TIP3    H132728   5.254   3.397  14.793  0.8256  0.8682 -0.2195
 3771TIP3    H232729   5.219   3.540  14.827  0.6077  0.8109 -0.2008
 3772TIP3   OH232730   0.449   3.528   2.424  0.2965  0.3182  0.1539
 3772TIP3    H132731   0.485   3.508   2.338 -0.0638 -1.3690  0.3759
 3772TIP3    H232732   0.411   3.445   2.454 -0.1252  1.0410  1.6642
 3773TIP3   OH232733   3.827   1.032  14.492 -0.8036 -0.8939  0.0100
 3773TIP3    H132734   3.888   1.069  14.428 -1.0021 -1.1493 -0.3281
 3773TIP3    H232735   3.876   0.960  14.532 -0.8341 -1.0153 -0.1681
 3774TIP3   OH232736   5.369   5.284   3.034  0.4676  0.2460  0.1773
 3774TIP3    H132737   5.455   5.322   3.053  0.2288  1.2286 -0.6676
 3774TIP3    H232738   5.310   5.360   3.030 -0.0403 -0.2150 -1.4170
 3775TIP3   OH232739   6.247   5.833   4.490 -0.3965 -0.3562 -0.0327
 3775TIP3    H132740   6.276   5.924   4.478 -0.4503 -0.2281  0.8168
 3775TIP3    H232741   6.152   5.836   4.476 -0.2038 -0.5588 -1.5494
 3776TIP3   OH232742   4.012   4.079   2.139  0.7369 -0.1142  0.2258
 3776TIP3    H132743   3.990   4.153   2.196 -0.2020  0.4961 -0.9021
 3776TIP3    H232744   3.969   4.004   2.179  1.9501 -0.1246  1.5556
 3777TIP3   OH232745   6.042   1.897   0.846  0.5434  0.0153  0.3360
 3777TIP3    H132746   6.110   1.962   0.827  0.2351  0.3161  0.2652
 3777TIP3    H232747   6.073   1.817   0.803  0.0224  0.5919 -1.1434
 3778TIP3   OH232748   2.250   4.073   1.080  0.0620  0.4797 -0.4216
 3778TIP3    H132749   2.284   4.154   1.044 -1.0017  1.5921  0.9789
 3778TIP3    H232750   2.167   4.059   1.033  0.3770  0.0638 -0.8514
 3779TIP3   OH232751   5.118   3.076  15.120  0.1783  0.0226 -0.2336
 3779TIP3    H132752   5.051   3.121  15.068  1.1433  4.3539  2.0308
 3779TIP3    H232753   5.191   3.064  15.059 -0.9347 -0.6059 -1.4828
 3780TIP3   OH232754   3.753   1.702  11.874 -0.2911  0.2812  0.2477
 3780TIP3    H132755   3.766   1.713  11.968 -1.8139 -2.8186  0.9092
 3780TIP3    H232756   3.813   1.631  11.849 -1.9752 -0.9324 -0.4791
 3781TIP3   OH232757   5.415   1.714   5.264 -0.1256  0.1953  0.4470
 3781TIP3    H132758   5.416   1.619   5.261  0.1580  0.1764  1.0607
 3781TIP3    H232759   5.502   1.738   5.298  0.4055  0.7287 -1.2120
 3782TIP3   OH232760   5.038   3.373  14.089 -0.1326 -0.4886  0.3109
 3782TIP3    H132761   5.022   3.316  14.164  0.2895  0.3822  1.0677
 3782TIP3    H232762   5.114   3.335  14.045  1.3381  0.5304  1.8876
 3783TIP3   OH232763   3.176   6.596   2.280  0.2140  0.2808  0.7197
 3783TIP3    H132764   3.173   6.515   2.229  0.8279  0.9817 -0.4800
 3783TIP3    H232765   3.106   6.587   2.344 -0.4890 -0.7026 -0.1593
 3784TIP3   OH232766   2.399   3.704  12.887 -0.2792 -0.7466  0.0103
 3784TIP3    H132767   2.479   3.756  12.877 -0.1614 -0.9483 -0.1008
 3784TIP3    H232768   2.374   3.715  12.978 -1.5134  1.3408 -0.5546
 3785TIP3   OH232769   2.985   2.210  14.149  0.6257  0.4476  0.1230
 3785TIP3    H132770   2.977   2.143  14.217 -0.8573  0.3500 -0.1451
 3785TIP3    H232771   2.954   2.167  14.070  0.7265  1.1100 -0.2744
 3786TIP3   OH232772   6.264   6.766   1.215  0.2018 -0.5565  0.4699
 3786TIP3    H132773   6.348   6.799   1.185 -0.2794 -0.5721 -0.9153
 3786TIP3    H232774   6.203   6.839   1.203 -0.2129 -0.9052  0.4182
 3787TIP3   OH232775   4.218   4.546   1.991 -0.0070  0.0077 -0.2180
 3787TIP3    H132776   4.178   4.632   2.003  2.6176  1.5747 -2.1591
 3787TIP3    H232777   4.312   4.562   2.000  0.4875 -2.7548 -0.1103
 3788TIP3   OH232778   2.742   5.190   1.071  0.1358 -0.1126  0.3415
 3788TIP3    H132779   2.835   5.214   1.078 -0.0365  1.9597 -3.4654
 3788TIP3    H232780   2.696   5.270   1.096 -0.5536  0.1062 -1.5663
 3789TIP3   OH232781   6.277   4.750   0.744 -0.5098 -0.5091  0.5162
 3789TIP3    H132782   6.198   4.798   0.718 -0.7221 -0.5956  0.9904
 3789TIP3    H232783   6.324   4.809   0.803  0.7148  0.2639 -1.2035
 3790TIP3   OH232784   1.072   0.208   4.748  0.0610 -0.0920 -0.3424
 3790TIP3    H132785   1.119   0.290   4.732 -2.2765  1.6313  1.1232
 3790TIP3    H232786   0.984   0.224   4.713 -0.8086 -1.4947  1.1393
 3791TIP3   OH232787   5.250   4.145   3.114 -0.1689  0.3055  0.6519
 3791TIP3    H132788   5.272   4.236   3.094 -0.5316  0.2744  0.1004
 3791TIP3    H232789   5.184   4.151   3.183 -1.3574  0.5120 -0.4833
 3792TIP3   OH232790   3.237   1.646  14.910 -0.0795  0.5680  0.2299
 3792TIP3    H132791   3.202   1.557  14.914  0.8865  0.0743 -1.5901
 3792TIP3    H232792   3.183   1.696  14.971  0.8365 -1.7316  3.0187
 3793TIP3   OH232793   3.727   5.923  16.228  0.5918  0.2329 -0.2776
 3793TIP3    H132794   3.788   5.883  16.290  0.6090  1.1403  0.3070
 3793TIP3    H232795   3.728   5.864  16.153  2.8631  0.6755 -0.6369
 3794TIP3   OH232796   1.108   2.654  12.584  0.1493 -0.6615 -0.3207
 3794TIP3    H132797   1.194   2.694  12.598 -0.3571  0.4695 -0.3521
 3794TIP3    H232798   1.091   2.666  12.491 -0.3294 -0.3008 -0.1862
 3795TIP3   OH232799   3.439   1.163  14.160 -0.1962 -0.0112 -0.1436
 3795TIP3    H132800   3.467   1.251  14.184 -0.0878 -0.6336  2.1573
 3795TIP3    H232801   3.490   1.105  14.217 -0.3273 -1.5541 -1.5649
 3796TIP3   OH232802   4.606   2.852  14.058  0.0440  0.4802 -0.2966
 3796TIP3    H132803   4.674   2.918  14.041  1.1649 -0.2159  1.3251
 3796TIP3    H232804   4.589   2.859  14.152 -4.2706  2.6143 -1.1346
 3797TIP3   OH232805   2.765   2.545   2.650 -0.7337 -0.3932 -0.3979
 3797TIP3    H132806   2.724   2.630   2.636 -0.5500 -0.0365  1.2040
 3797TIP3    H232807   2.694   2.488   2.679 -0.3112 -0.0211  1.4262
 3798TIP3   OH232808   4.997   2.766   3.528 -0.1193  0.2550 -0.5246
 3798TIP3    H132809   4.932   2.811   3.582  0.3242 -0.8411  0.9649
 3798TIP3    H232810   5.060   2.833   3.505  0.7338  0.3742  1.9800
 3799TIP3   OH232811   4.306   2.081   5.742 -0.2124  0.7883 -0.0871
 3799TIP3    H132812   4.240   2.104   5.807 -1.4356 -0.6646 -0.7769
 3799TIP3    H232813   4.376   2.040   5.792 -0.4101  1.1519  0.4944
 3800TIP3   OH232814   0.024   5.165  15.802 -0.4545  0.0708 -0.0750
 3800TIP3    H132815  -0.071   5.151  15.807 -0.6189  1.2377  0.0866
 3800TIP3    H232816   0.036   5.258  15.817  0.4030  0.6361 -3.6221
 3801TIP3   OH232817   4.643   2.151   2.808  0.2409  0.0589 -0.4447
 3801TIP3    H132818   4.642   2.217   2.739  1.3871  0.9910  0.4215
 3801TIP3    H232819   4.630   2.068   2.762 -2.3755  0.9696 -1.4154
 3802TIP3   OH232820   0.523   3.023  13.738 -0.1405  0.3158 -0.0585
 3802TIP3    H132821   0.599   3.058  13.783 -0.2423 -1.0415  1.1879
 3802TIP3    H232822   0.543   2.931  13.724  0.8519  1.0973 -4.8399
 3803TIP3   OH232823   6.508   2.792  11.542 -0.9017  0.3250  0.1843
 3803TIP3    H132824   6.593   2.797  11.586 -1.2048  0.9016  0.7298
 3803TIP3    H232825   6.529   2.780  11.450 -0.2507 -0.8370  0.4810
 3804TIP3   OH232826   0.604   1.050   2.220 -0.2431  0.2023  0.0763
 3804TIP3    H132827   0.579   1.137   2.187  0.4449  1.2841  2.3248
 3804TIP3    H232828   0.540   1.033   2.290 -0.1663 -0.9587 -0.1402
 3805TIP3   OH232829   4.829   0.812   0.497 -0.6273 -0.1810 -0.4433
 3805TIP3    H132830   4.803   0.904   0.492 -1.8418 -0.4398  0.8992
 3805TIP3    H232831   4.881   0.798   0.417 -2.0113  1.1608 -1.6109
 3806TIP3   OH232832   4.981   2.307  15.378 -0.0439  0.5147 -0.3162
 3806TIP3    H132833   4.960   2.216  15.403 -0.2716  0.4531 -0.7242
 3806TIP3    H232834   5.019   2.299  15.290  0.2609  0.7836 -0.2083
 3807TIP3   OH232835   0.838   4.272   1.819 -0.3129 -0.8190 -0.4218
 3807TIP3    H132836   0.782   4.264   1.897 -0.8760  0.0603 -0.7338
 3807TIP3    H232837   0.885   4.189   1.816  0.0287 -0.7062  1.0991
 3808TIP3   OH232838   3.855   3.919  12.111  0.0787  0.3585 -0.2134
 3808TIP3    H132839   3.820   4.008  12.123  0.4727  0.4798  0.0182
 3808TIP3    H232840   3.947   3.932  12.088  0.3932 -0.0217  0.7977
 3809TIP3   OH232841   5.430   1.879   5.728  0.1121 -0.0993 -0.2267
 3809TIP3    H132842   5.392   1.824   5.797 -0.0647  1.5811  1.0568
 3809TIP3    H232843   5.356   1.899   5.671  0.2766 -1.5747 -0.9833
 3810TIP3   OH232844   6.531   5.723  12.294  1.1792 -0.1717  0.4568
 3810TIP3    H132845   6.492   5.666  12.361  1.6871  1.1889  1.9573
 3810TIP3    H232846   6.592   5.666  12.247 -0.1470 -1.4789  0.2857
 3811TIP3   OH232847   3.185   3.060   4.394  0.3092 -0.8650  0.0113
 3811TIP3    H132848   3.217   2.972   4.377 -0.3880 -1.5991  2.3924
 3811TIP3    H232849   3.094   3.049   4.420 -0.1422  0.6780 -0.8013
 3812TIP3   OH232850   5.215   1.719  11.604 -0.1607  0.0367  0.1765
 3812TIP3    H132851   5.182   1.791  11.658  1.9390  0.4385  0.9818
 3812TIP3    H232852   5.163   1.724  11.523 -0.5916  1.9518  0.5315
 3813TIP3   OH232853   5.061   5.761  11.565 -0.4332 -0.5765  0.2522
 3813TIP3    H132854   5.038   5.695  11.499  1.1987  0.6115 -1.5768
 3813TIP3    H232855   5.027   5.843  11.529  0.9507  0.1701  0.6346
 3814TIP3   OH232856   5.716   2.734  16.244 -0.1181  0.0348 -0.9505
 3814TIP3    H132857   5.695   2.669  16.178 -0.5611 -3.1803  2.2096
 3814TIP3    H232858   5.807   2.716  16.268  0.6376  2.3548 -1.9245
 3815TIP3   OH232859   4.892   3.645  16.914  0.0551  0.8024  0.4093
 3815TIP3    H132860   4.958   3.580  16.939 -0.1521  0.2032 -0.5688
 3815TIP3    H232861   4.814   3.619  16.962 -0.6516 -0.9900 -1.6219
 3816TIP3   OH232862   0.421   4.413  12.641 -0.4784 -0.4359 -0.3392
 3816TIP3    H132863   0.515   4.427  12.625 -0.5184  1.1903  0.7375
 3816TIP3    H232864   0.386   4.501  12.656 -2.2143 -1.0285 -0.8689
 3817TIP3   OH232865   6.128   2.278   3.615 -0.7709  1.1838 -0.1310
 3817TIP3    H132866   6.035   2.299   3.619 -1.0128 -0.0774  1.2162
 3817TIP3    H232867   6.145   2.264   3.522 -1.9036  1.4660 -0.3904
 3818TIP3   OH232868   2.527   3.137  16.880 -0.7749 -0.1316 -0.3672
 3818TIP3    H132869   2.503   3.089  16.800 -0.2858 -0.1671 -0.4931
 3818TIP3    H232870   2.589   3.204  16.850 -0.9428  0.1503 -0.0873
 3819TIP3   OH232871   1.302   0.388   0.002 -0.0186  0.2187 -0.0942
 3819TIP3    H132872   1.347   0.324  -0.054 -0.9425 -1.0847  0.5989
 3819TIP3    H232873   1.209   0.374  -0.018 -0.3028  0.3769  1.0825
 3820TIP3   OH232874   6.339   3.827   3.475 -0.7674 -0.2571 -0.1548
 3820TIP3    H132875   6.245   3.831   3.457 -0.5243  1.2872 -1.1650
 3820TIP3    H232876   6.378   3.883   3.408  0.7977 -0.1931  0.8025
 3821TIP3   OH232877   1.300   2.936  13.729 -0.3012  0.5632 -0.0121
 3821TIP3    H132878   1.241   2.863  13.709 -1.0635  1.5368 -1.3091
 3821TIP3    H232879   1.295   2.945  13.824 -1.1971 -0.2218  0.0225
 3822TIP3   OH232880   2.670   0.396   2.475 -0.2316  0.3672 -0.0744
 3822TIP3    H132881   2.733   0.427   2.410  0.1054 -0.0484  0.0525
 3822TIP3    H232882   2.703   0.310   2.502 -0.5324  0.4021  0.4224
 3823TIP3   OH232883   2.830   2.923  16.228  0.0903 -0.0425 -0.5999
 3823TIP3    H132884   2.803   2.983  16.158  1.3677  0.4871 -0.6425
 3823TIP3    H232885   2.881   2.978  16.288 -1.4478 -0.3602  1.0582
 3824TIP3   OH232886   5.785   4.301  12.385  0.0643 -0.4364  0.0988
 3824TIP3    H132887   5.769   4.310  12.291  0.5650 -0.9803 -0.0441
 3824TIP3    H232888   5.717   4.240  12.415 -0.3276  0.0311  0.1587
 3825TIP3   OH232889   2.598   0.215   4.767 -0.2659 -0.1334  0.3772
 3825TIP3    H132890   2.575   0.208   4.675 -0.1907 -0.7667  0.4063
 3825TIP3    H232891   2.659   0.289   4.771  3.0429 -2.7325 -0.7024
 3826TIP3   OH232892   6.560   4.406  14.819  0.1120  0.1452 -0.2579
 3826TIP3    H132893   6.525   4.405  14.730  1.0046  1.5983 -0.6534
 3826TIP3    H232894   6.597   4.318  14.831 -1.9723 -0.7819 -0.4986
 3827TIP3   OH232895   6.742   0.159  13.426  0.2486 -0.3640 -0.0572
 3827TIP3    H132896   6.788   0.199  13.353 -0.6350  1.2108  0.2420
 3827TIP3    H232897   6.731   0.067  13.400  0.7003 -0.0135 -1.5053
 3828TIP3   OH232898   3.537   4.711  15.657 -0.2085  0.0530  0.2541
 3828TIP3    H132899   3.497   4.623  15.651  0.8455 -0.3546 -0.9246
 3828TIP3    H232900   3.577   4.725  15.571  0.6381  1.2138  0.8323
 3829TIP3   OH232901   2.665   2.375  13.192 -0.3642  0.4812 -0.0692
 3829TIP3    H132902   2.754   2.342  13.201  0.4736  2.6463 -0.1688
 3829TIP3    H232903   2.611   2.311  13.238  1.2594 -0.6928  0.2512
 3830TIP3   OH232904   5.258   4.534  14.359 -0.0155  0.4218  0.3474
 3830TIP3    H132905   5.321   4.490  14.416 -0.7570  0.1634  0.9803
 3830TIP3    H232906   5.195   4.573  14.419 -1.3785 -0.7230 -0.3026
 3831TIP3   OH232907   4.836   5.329   1.155 -0.2407 -0.1744  0.3248
 3831TIP3    H132908   4.848   5.254   1.098  1.2285 -0.1528  0.5917
 3831TIP3    H232909   4.771   5.383   1.110  1.1483  0.0206 -1.5171
 3832TIP3   OH232910   6.679   4.883  14.145 -0.1044  0.0694  0.4384
 3832TIP3    H132911   6.678   4.953  14.080  1.3662 -0.5669 -0.2976
 3832TIP3    H232912   6.593   4.842  14.138 -0.0425  0.1585 -0.9378
 3833TIP3   OH232913   3.161   5.807  12.105 -0.0205  0.4463 -0.1816
 3833TIP3    H132914   3.250   5.791  12.138  0.1112 -0.7337 -1.0826
 3833TIP3    H232915   3.154   5.752  12.028 -2.5146 -1.6221  1.4294
 3834TIP3   OH232916   4.876   3.082   3.971  0.2248 -0.2541  0.0731
 3834TIP3    H132917   4.784   3.109   3.967  0.7875  1.6514 -0.5431
 3834TIP3    H232918   4.876   3.004   4.027 -1.6564  0.2131  0.7525
 3835TIP3   OH232919   0.862   1.449   6.602 -0.0686  0.7833 -0.1895
 3835TIP3    H132920   0.847   1.355   6.598  0.6302  0.6295  0.6620
 3835TIP3    H232921   0.776   1.487   6.619 -0.2944  0.2769 -0.1970
 3836TIP3   OH232922   1.634   3.393  11.091  0.1150  0.2088  0.6615
 3836TIP3    H132923   1.651   3.488  11.092  0.7617  0.1012  0.5957
 3836TIP3    H232924   1.721   3.354  11.081 -0.4338 -0.3185 -2.6518
 3837TIP3   OH232925   1.176   0.658   4.310  0.1662 -0.3879 -0.7717
 3837TIP3    H132926   1.089   0.685   4.280 -0.6952 -1.9198  0.3000
 3837TIP3    H232927   1.217   0.620   4.232 -0.2769 -0.0627 -1.1669
 3838TIP3   OH232928   0.996   2.782  10.847 -0.8047  0.3449  0.1801
 3838TIP3    H132929   0.936   2.710  10.824 -0.8194  0.6217 -0.6909
 3838TIP3    H232930   0.981   2.847  10.779  0.1310  0.6302  0.2403
 3839TIP3   OH232931   2.725   1.227   0.215 -0.3539  0.1913  0.3960
 3839TIP3    H132932   2.760   1.317   0.218  1.4125 -0.4807  1.0391
 3839TIP3    H232933   2.733   1.201   0.124 -1.6322  0.9784  0.0589
 3840TIP3   OH232934   0.236   6.105   2.018 -0.1226  0.3358  0.1740
 3840TIP3    H132935   0.298   6.049   1.971 -2.6404 -1.1191 -1.4748
 3840TIP3    H232936   0.221   6.061   2.101 -0.1917 -0.1373 -0.0909
 3841TIP3   OH232937   6.373   5.726  17.187  0.1737 -0.0406  0.0115
 3841TIP3    H132938   6.294   5.693  17.145 -0.0246  2.9282 -2.1044
 3841TIP3    H232939   6.430   5.752  17.114  1.8396  0.7444  1.5270
 3842TIP3   OH232940   4.017   2.900   0.989 -0.9217 -0.2571  0.1602
 3842TIP3    H132941   3.962   2.886   1.066 -0.6261  2.1270  0.8302
 3842TIP3    H232942   4.058   2.985   1.003 -0.6944  0.1436 -2.5198
 3843TIP3   OH232943   3.343   4.897  16.799  0.0184  0.0334  0.0225
 3843TIP3    H132944   3.371   4.983  16.771  1.1897 -0.7654 -1.2948
 3843TIP3    H232945   3.268   4.877  16.743  0.0705 -0.0228 -0.0254
 3844TIP3   OH232946   1.093   2.313   4.819  0.4069 -0.5754  0.3749
 3844TIP3    H132947   1.153   2.342   4.888 -2.4319  0.8817  2.3497
 3844TIP3    H232948   1.071   2.392   4.771 -0.7537 -0.8974  0.3687
 3845TIP3   OH232949   1.253   0.441  13.602  0.1579 -0.1241 -0.2130
 3845TIP3    H132950   1.189   0.410  13.538 -0.6376 -0.3131  0.6555
 3845TIP3    H232951   1.263   0.368  13.663  0.2294  0.3689  0.3749
 3846TIP3   OH232952   6.634   2.765  15.025 -0.3180  0.8604  0.2934
 3846TIP3    H132953   6.711   2.736  14.976  0.6014 -1.5356  2.9652
 3846TIP3    H232954   6.666   2.839  15.077 -0.5097  1.4911 -0.4773
 3847TIP3   OH232955   4.950   1.503  11.985 -0.1105 -0.5735 -0.0430
 3847TIP3    H132956   5.039   1.517  11.953  0.0952 -1.7306  0.0249
 3847TIP3    H232957   4.947   1.411  12.010 -0.1053  0.3727  3.7558
 3848TIP3   OH232958   6.714   1.560   1.031  0.1981 -0.2861 -0.3807
 3848TIP3    H132959   6.682   1.611   0.956  0.7823 -0.4144 -0.7173
 3848TIP3    H232960   6.795   1.603   1.057 -0.3910  0.2225  0.6758
 3849TIP3   OH232961   1.675   4.995  13.670  0.4272 -0.2401 -0.6757
 3849TIP3    H132962   1.738   5.053  13.628  2.0093 -1.8940 -0.6996
 3849TIP3    H232963   1.716   4.973  13.754 -0.0234 -1.4477 -0.7547
 3850TIP3   OH232964   0.904   3.378  14.001  0.8000  0.4114  0.0041
 3850TIP3    H132965   0.984   3.328  13.987  0.8701  0.5709 -0.1552
 3850TIP3    H232966   0.843   3.314  14.039  0.5734 -0.0463 -1.1065
 3851TIP3   OH232967   5.805   4.617  16.225  0.1084 -0.3685  0.7496
 3851TIP3    H132968   5.714   4.588  16.227 -0.6408  1.8968  1.0772
 3851TIP3    H232969   5.833   4.598  16.136 -1.3541  0.7331  0.0116
 3852TIP3   OH232970   1.354   6.600  13.730  0.2624  0.5542 -0.2973
 3852TIP3    H132971   1.305   6.674  13.767 -0.5070  0.4798 -1.1630
 3852TIP3    H232972   1.443   6.611  13.765 -0.3734  0.6413  1.3645
 3853TIP3   OH232973   2.425   3.978  10.723 -0.3314  0.7861 -0.1719
 3853TIP3    H132974   2.479   4.057  10.716  0.7232  0.0933 -0.0763
 3853TIP3    H232975   2.431   3.954  10.816  0.5257 -0.1927 -0.4599
 3854TIP3   OH232976   2.783   5.248  15.470  0.2226  0.4324 -0.2494
 3854TIP3    H132977   2.695   5.215  15.455  0.1269  0.3906  0.3979
 3854TIP3    H232978   2.801   5.305  15.394 -0.2561  0.2370 -0.5093
 3855TIP3   OH232979   2.312   0.037   3.220  0.0677  0.2269  0.0749
 3855TIP3    H132980   2.379   0.041   3.288  0.7161 -0.3704 -0.5286
 3855TIP3    H232981   2.317   0.122   3.177 -0.3315  0.6016  0.7551
 3856TIP3   OH232982   3.106   0.677   1.272  0.3053  0.0564  0.7740
 3856TIP3    H132983   3.106   0.681   1.177  0.9802  0.5543  0.7934
 3856TIP3    H232984   3.125   0.585   1.292  2.4002  0.4101  0.4388
 3857TIP3   OH232985   6.623   1.878  10.422 -0.1434  0.0498  0.1146
 3857TIP3    H132986   6.606   1.786  10.442  0.6976  0.5172  3.1268
 3857TIP3    H232987   6.650   1.877  10.330  0.1190 -2.7382  0.1788
 3858TIP3   OH232988   2.121   6.181  14.507  0.2115  0.1363  0.0141
 3858TIP3    H132989   2.088   6.229  14.583  0.0170  1.5843 -0.9689
 3858TIP3    H232990   2.178   6.244  14.462 -2.1289  0.3807 -2.7619
 3859TIP3   OH232991   2.367   4.328   0.991 -0.0073 -0.3656 -0.2942
 3859TIP3    H132992   2.385   4.335   0.897  1.3989  0.6258  0.0406
 3859TIP3    H232993   2.411   4.403   1.030 -1.9242  0.1134  0.9890
 3860TIP3   OH232994   3.331   4.171  15.671  0.6641 -0.0654 -0.2475
 3860TIP3    H132995   3.264   4.221  15.625 -0.5049 -0.9670  0.4558
 3860TIP3    H232996   3.368   4.114  15.604 -0.5142 -0.8431 -0.2439
 3861TIP3   OH232997   4.134   4.263   0.499  0.1389 -0.4784  0.3357
 3861TIP3    H132998   4.078   4.240   0.425  0.1459 -0.6969  0.3977
 3861TIP3    H232999   4.204   4.315   0.460 -0.7090  0.7538  0.4237
 3862TIP3   OH233000   0.078   4.618  16.853 -0.0654 -0.5732 -0.7983
 3862TIP3    H133001   0.001   4.573  16.889  0.3269 -0.1350  0.6018
 3862TIP3    H233002   0.151   4.585  16.905  0.4681  0.3450 -0.9631
 3863TIP3   OH233003   1.823   3.473   2.356  0.8020 -1.3661 -0.1741
 3863TIP3    H133004   1.860   3.526   2.286 -0.3488 -1.2170 -0.6836
 3863TIP3    H233005   1.738   3.445   2.323  0.1351 -1.1120  1.2460
 3864TIP3   OH233006   0.764   5.485   4.560  0.2151 -0.5675 -0.0838
 3864TIP3    H133007   0.698   5.424   4.528 -0.8280  0.3852  0.1942
 3864TIP3    H233008   0.752   5.563   4.505  1.3081 -0.4949 -0.2232
 3865TIP3   OH233009   0.739   0.142   5.668  0.4604 -0.4048 -0.4408
 3865TIP3    H133010   0.695   0.075   5.720 -0.9507  0.2503 -0.7751
 3865TIP3    H233011   0.764   0.210   5.731  1.5908 -1.0667 -0.1534
 3866TIP3   OH233012   5.869   3.405  11.595  0.3732 -0.1287  1.1351
 3866TIP3    H133013   5.895   3.321  11.634  1.2681  0.5867  2.1075
 3866TIP3    H233014   5.899   3.399  11.505 -0.3443 -1.1977  0.9548
 3867TIP3   OH233015   6.143   5.620  12.814 -0.0981  0.2706 -0.3012
 3867TIP3    H133016   6.093   5.658  12.887  1.7319 -1.2186  1.8203
 3867TIP3    H233017   6.111   5.529  12.809  1.0766 -0.1597 -0.1214
 3868TIP3   OH233018   0.144   5.114   4.477 -0.4244 -0.4978  0.6095
 3868TIP3    H133019   0.136   5.023   4.450  1.7055 -1.1562  2.0973
 3868TIP3    H233020   0.177   5.110   4.567 -2.5006  1.7178  1.5411
 3869TIP3   OH233021   1.289   0.529   5.920  0.1787 -0.1131  0.4522
 3869TIP3    H133022   1.313   0.521   6.012  0.6332 -0.3937  0.3108
 3869TIP3    H233023   1.330   0.611   5.892 -1.2042  0.7467  0.8831
 3870TIP3   OH233024   3.857   3.465   6.094  0.4152 -0.2170  0.1917
 3870TIP3    H133025   3.951   3.483   6.093  0.7616 -1.8888  0.7252
 3870TIP3    H233026   3.824   3.505   6.014  1.7145 -0.2964 -0.3970
 3871TIP3   OH233027   5.728   4.817   4.055 -0.3372 -0.1563  0.0689
 3871TIP3    H133028   5.714   4.761   3.978 -0.2423 -0.7540  0.4880
 3871TIP3    H233029   5.640   4.843   4.081 -0.2840  1.5219 -1.3254
 3872TIP3   OH233030   1.253   3.031   2.221 -0.5129  0.0965 -0.1508
 3872TIP3    H133031   1.253   3.110   2.167  2.1652  0.5415  0.3934
 3872TIP3    H233032   1.314   2.972   2.177 -1.6794 -1.2751  0.0301
 3873TIP3   OH233033   1.361   2.529   0.207 -0.6323  0.3743  0.1214
 3873TIP3    H133034   1.404   2.582   0.274 -1.0726  0.6886  0.1532
 3873TIP3    H233035   1.347   2.590   0.134 -0.3577  0.0902 -0.1689
 3874TIP3   OH233036   2.529   0.289   3.986 -0.4219 -0.3601  0.5354
 3874TIP3    H133037   2.598   0.230   3.953  1.4652  1.7559  0.6235
 3874TIP3    H233038   2.465   0.292   3.915 -0.1727 -1.9178  0.2234
 3875TIP3   OH233039   3.876   0.480  11.908  0.0559 -0.0612  0.1271
 3875TIP3    H133040   3.939   0.543  11.943  0.5755 -0.2426 -0.4679
 3875TIP3    H233041   3.842   0.435  11.985  0.7387 -0.0298  0.4541
 3876TIP3   OH233042   2.557   3.222  16.073 -0.2578 -0.1368 -0.5510
 3876TIP3    H133043   2.494   3.222  16.002  1.2062  2.3776 -1.9595
 3876TIP3    H233044   2.515   3.272  16.143 -0.1978  0.8173 -1.1761
 3877TIP3   OH233045   5.900   5.624   1.128  0.5366  0.1105  0.2003
 3877TIP3    H133046   5.855   5.607   1.045  0.2582 -0.0587  0.3885
 3877TIP3    H233047   5.864   5.707   1.158  0.4927  0.0705  0.2556
 3878TIP3   OH233048   3.899   2.187   1.877  0.2494  0.2077 -0.1535
 3878TIP3    H133049   3.829   2.122   1.887 -0.4169  0.4752 -2.7202
 3878TIP3    H233050   3.861   2.268   1.911 -0.2345  0.0603 -0.3301
 3879TIP3   OH233051   0.491   5.929  12.709  0.3023  0.5064 -0.1318
 3879TIP3    H133052   0.502   5.943  12.803 -0.0729  0.4767 -0.0828
 3879TIP3    H233053   0.535   5.845  12.692  0.3071  0.4759  0.0309
 3880TIP3   OH233054   0.554   1.103   1.319  0.5200 -0.6228  0.3397
 3880TIP3    H133055   0.481   1.104   1.257 -0.1873 -2.1750  1.1071
 3880TIP3    H233056   0.624   1.150   1.275 -0.3504 -0.7084 -1.1667
 3881TIP3   OH233057   1.611   4.878  11.072 -0.2312 -0.1691 -0.1566
 3881TIP3    H133058   1.589   4.803  11.017  1.5114 -0.7197 -0.1228
 3881TIP3    H233059   1.652   4.940  11.012 -0.0648  0.0246  0.1593
 3882TIP3   OH233060   4.425   1.978   4.335  1.0768 -0.2722  0.5781
 3882TIP3    H133061   4.386   2.064   4.324 -0.7534 -1.1572 -0.1695
 3882TIP3    H233062   4.431   1.943   4.246  2.2524 -0.7299  0.8284
 3883TIP3   OH233063   4.918   5.136   0.572 -0.0585 -0.0862 -0.1152
 3883TIP3    H133064   4.923   5.227   0.603  2.0491 -0.1686 -0.2055
 3883TIP3    H233065   4.859   5.093   0.634  1.8355  0.4477  2.1207
 3884TIP3   OH233066   1.316   6.452  17.132 -0.2617 -0.0218 -0.6682
 3884TIP3    H133067   1.269   6.456  17.215 -0.4593  0.9792 -0.8214
 3884TIP3    H233068   1.347   6.542  17.117  2.4717 -0.8133 -0.1236
 3885TIP3   OH233069   4.485   2.110   2.296 -0.3311  0.2325  0.4750
 3885TIP3    H133070   4.465   2.062   2.216  0.5472  0.6090  0.0274
 3885TIP3    H233071   4.457   2.200   2.277  0.5579  0.4782  0.3235
 3886TIP3   OH233072   5.046   6.037   2.541  0.6352 -0.5838 -0.2666
 3886TIP3    H133073   5.017   6.107   2.483 -0.6448  0.5024  1.6393
 3886TIP3    H233074   5.126   6.071   2.582  0.2242 -0.3833  0.3743
 3887TIP3   OH233075   2.485   4.496  13.372  0.0922 -0.2942 -0.1722
 3887TIP3    H133076   2.396   4.460  13.376  0.0077  0.1173  2.8405
 3887TIP3    H233077   2.481   4.561  13.301 -2.4062  0.7327  0.8456
 3888TIP3   OH233078   1.494   2.913   1.243  0.1347 -0.2815 -0.4436
 3888TIP3    H133079   1.517   2.889   1.153  0.3590 -0.4129 -0.3513
 3888TIP3    H233080   1.419   2.971   1.234 -0.0334 -0.5364 -0.7030
 3889TIP3   OH233081   1.321   2.048  14.572 -0.1912  0.4824 -0.0214
 3889TIP3    H133082   1.407   2.008  14.558 -0.0854  0.4882  0.6164
 3889TIP3    H233083   1.296   2.021  14.660 -0.2699  1.5310  0.2882
 3890TIP3   OH233084   0.162   5.689  13.515 -0.1628 -0.3790  0.5560
 3890TIP3    H133085   0.212   5.638  13.452  1.9304  1.3294  0.7910
 3890TIP3    H233086   0.189   5.655  13.601  1.3808  1.1840  0.7218
 3891TIP3   OH233087   2.761   2.748   4.694  0.3571 -0.0288  0.5359
 3891TIP3    H133088   2.726   2.668   4.734  0.2257 -0.4557 -0.4253
 3891TIP3    H233089   2.846   2.761   4.736  0.1243 -0.3516  1.1113
 3892TIP3   OH233090   1.864   5.038   6.349  0.1021  0.0279  0.0553
 3892TIP3    H133091   1.866   4.978   6.424  0.8290 -1.3548 -1.0386
 3892TIP3    H233092   1.798   5.103   6.372 -0.6137 -1.1195  1.3362
 3893TIP3   OH233093   0.841   3.998   2.795 -0.4313 -0.5061  0.7907
 3893TIP3    H133094   0.886   3.926   2.838 -0.2471 -0.1178  1.2502
 3893TIP3    H233095   0.749   3.974   2.795 -0.2786 -1.0925  0.2625
 3894TIP3   OH233096   4.073   3.102   6.368  0.8499  0.3168  0.3233
 3894TIP3    H133097   4.153   3.139   6.403 -0.4126  2.9267  0.5964
 3894TIP3    H233098   4.052   3.029   6.426  2.6329  0.0332  0.6407
 3895TIP3   OH233099   3.476   1.049  11.283 -0.0252  0.5696 -0.3830
 3895TIP3    H133100   3.562   1.051  11.326 -0.4287  1.5141  0.4080
 3895TIP3    H233101   3.496   1.042  11.190  0.9023  0.4236 -0.1876
 3896TIP3   OH233102   4.885   1.084   3.128  0.2762 -0.2079 -0.0677
 3896TIP3    H133103   4.807   1.030   3.136  0.3136 -0.5554 -1.8401
 3896TIP3    H233104   4.955   1.031   3.164  0.0628 -0.7933 -0.4953
 3897TIP3   OH233105   3.762   3.830   6.285  0.1969 -0.6227 -0.3375
 3897TIP3    H133106   3.764   3.844   6.380 -0.3716 -0.0655 -0.4047
 3897TIP3    H233107   3.674   3.797   6.268  0.4388 -1.1336 -0.6232
 3898TIP3   OH233108   6.623   4.158  14.665  0.6008  0.0491  0.2061
 3898TIP3    H133109   6.677   4.080  14.651 -0.9581 -0.8324 -1.1498
 3898TIP3    H233110   6.553   4.150  14.601  0.1234  2.3303  0.3980
 3899TIP3   OH233111   2.428   5.445  16.670 -1.4812 -0.6655  0.1669
 3899TIP3    H133112   2.397   5.500  16.742 -4.5734 -1.0069 -0.8523
 3899TIP3    H233113   2.418   5.500  16.592 -0.6225 -1.2273 -0.3448
 3900TIP3   OH233114   2.645   5.518  13.527  0.0114 -0.3084  0.3365
 3900TIP3    H133115   2.741   5.527  13.525  0.1458 -1.8729 -1.4823
 3900TIP3    H233116   2.630   5.423  13.530 -1.5052 -0.1185 -1.0088
 3901TIP3   OH233117   2.109   5.387   5.473 -0.4735  0.7277 -0.2116
 3901TIP3    H133118   2.026   5.370   5.429 -1.0225  1.0885  0.6580
 3901TIP3    H233119   2.084   5.430   5.555  0.3492 -2.1207  1.5945
 3902TIP3   OH233120   5.627   1.248   0.534 -0.0226 -0.1442  0.0272
 3902TIP3    H133121   5.625   1.153   0.520  0.0751 -0.1721  0.1990
 3902TIP3    H233122   5.718   1.273   0.518 -0.5825  0.3251 -2.5789
 3903TIP3   OH233123   4.717   0.873  11.404 -0.4943 -0.3115  0.2203
 3903TIP3    H133124   4.703   0.882  11.310 -1.5237  0.7578  0.4538
 3903TIP3    H233125   4.804   0.835  11.412 -1.0144 -1.8771 -1.1950
 3904TIP3   OH233126   5.175   2.439   1.172  0.2417 -0.6985  0.6710
 3904TIP3    H133127   5.249   2.399   1.126 -0.2097 -1.3431  0.4965
 3904TIP3    H233128   5.151   2.375   1.239 -0.4887 -0.7219  0.3884
 3905TIP3   OH233129   1.669   3.676   3.590 -0.0530  0.4384 -0.3135
 3905TIP3    H133130   1.590   3.665   3.642  0.1430  0.2698 -0.0492
 3905TIP3    H233131   1.734   3.619   3.632  0.6574  1.7524  0.4354
 3906TIP3   OH233132   0.257   0.096  10.249  0.1437 -0.3154 -0.5571
 3906TIP3    H133133   0.319   0.099  10.176 -0.3214  1.3599 -0.8995
 3906TIP3    H233134   0.206   0.176  10.241 -0.6652 -0.6510  0.9674
 3907TIP3   OH233135   2.986   6.158  15.127 -0.0531  0.0376 -0.0556
 3907TIP3    H133136   2.966   6.064  15.128 -2.6602  0.5488 -1.7340
 3907TIP3    H233137   2.996   6.179  15.034 -1.6240  1.8364  0.1579
 3908TIP3   OH233138   0.816   3.134  13.432 -0.5070  0.0947 -0.1511
 3908TIP3    H133139   0.890   3.142  13.371 -1.3381  0.2807 -1.1382
 3908TIP3    H233140   0.835   3.198  13.501  1.4410 -1.4833  0.8446
 3909TIP3   OH233141   6.334   6.582   4.123  0.1317  0.7255  0.1612
 3909TIP3    H133142   6.342   6.508   4.063 -1.8426  0.9134 -0.3773
 3909TIP3    H233143   6.414   6.634   4.109  0.8288 -0.5241 -0.5121
 3910TIP3   OH233144   2.445   3.813   3.542  0.3042  0.0176  0.2880
 3910TIP3    H133145   2.477   3.901   3.561  1.4624  0.0334 -1.6218
 3910TIP3    H233146   2.403   3.821   3.456 -0.7620 -1.0156  0.6960
 3911TIP3   OH233147   2.903   0.570  11.035  0.3998  0.1967 -0.2920
 3911TIP3    H133148   2.866   0.649  10.996  1.0771  1.1746  1.0062
 3911TIP3    H233149   2.880   0.575  11.128  0.9476 -0.8347 -0.0813
 3912TIP3   OH233150   3.764   5.716  15.119 -0.6852  0.0550  0.6382
 3912TIP3    H133151   3.749   5.655  15.048  0.9343  1.1528 -0.6863
 3912TIP3    H233152   3.760   5.662  15.198 -0.7732 -1.4846 -0.3961
 3913TIP3   OH233153   3.694   2.120  16.190 -0.2001 -0.0225  0.4604
 3913TIP3    H133154   3.667   2.207  16.219 -0.8371  0.4893 -1.5784
 3913TIP3    H233155   3.782   2.110  16.225 -0.1418  1.4346  0.7705
 3914TIP3   OH233156   3.557   0.591   5.316  0.6161 -0.3706 -0.7413
 3914TIP3    H133157   3.563   0.496   5.332  2.5234 -0.4421 -1.7374
 3914TIP3    H233158   3.577   0.631   5.400 -0.1539 -0.8444 -0.3251
 3915TIP3   OH233159   1.300   0.605   2.562  0.4169 -0.6369  0.0261
 3915TIP3    H133160   1.336   0.587   2.475 -0.4506  4.4187 -1.5592
 3915TIP3    H233161   1.206   0.614   2.547  0.2551  0.1896  1.5089
 3916TIP3   OH233162   6.458   5.889   1.826  0.9074  0.1252  0.6081
 3916TIP3    H133163   6.514   5.961   1.857  1.6901 -0.3515  0.3009
 3916TIP3    H233164   6.518   5.825   1.791  0.0987  0.0449 -0.6547
 3917TIP3   OH233165   2.162   6.278  12.824  0.5780  1.0022 -1.0973
 3917TIP3    H133166   2.229   6.287  12.892 -0.2567  1.5346 -0.3410
 3917TIP3    H233167   2.173   6.355  12.769 -0.5047  1.9656  0.0086
 3918TIP3   OH233168   1.751   2.758  15.180 -0.1163  0.0020 -1.0058
 3918TIP3    H133169   1.710   2.672  15.192  0.5600 -0.2219 -0.2914
 3918TIP3    H233170   1.693   2.819  15.225 -0.0891 -0.2036 -0.6939
 3919TIP3   OH233171   4.186   3.706  14.372  0.1194  0.3666  0.4055
 3919TIP3    H133172   4.094   3.726  14.350  0.4874  0.5746 -0.9724
 3919TIP3    H233173   4.184   3.615  14.401 -0.3816  0.1006 -0.4563
 3920TIP3   OH233174   5.400   3.821  16.060  0.2363  0.3292 -0.3684
 3920TIP3    H133175   5.336   3.876  16.014  0.3313  1.0699  0.3882
 3920TIP3    H233176   5.412   3.746  16.002 -0.0138  1.0254 -1.3358
 3921TIP3   OH233177   5.363   2.610   1.279 -0.0092  0.0140 -0.4490
 3921TIP3    H133178   5.295   2.555   1.241 -1.0204 -0.3575  1.7716
 3921TIP3    H233179   5.389   2.563   1.359  1.9685  0.7719 -0.6281
 3922TIP3   OH233180   5.513   5.825  11.108  0.2046  0.2985 -0.2963
 3922TIP3    H133181   5.588   5.766  11.102 -1.1959 -1.4781 -0.5792
 3922TIP3    H233182   5.445   5.774  11.151 -0.7047  2.0623  0.4360
 3923TIP3   OH233183   2.968   4.712   1.158 -0.2999 -0.1494 -0.2545
 3923TIP3    H133184   3.011   4.657   1.224  0.4354  2.1362  1.2228
 3923TIP3    H233185   2.956   4.796   1.201 -2.8460  0.4118 -1.9493
 3924TIP3   OH233186   3.230   3.474  11.998 -0.4785 -0.1229 -0.4980
 3924TIP3    H133187   3.146   3.429  11.995 -0.8711  0.5308  0.3766
 3924TIP3    H233188   3.263   3.470  11.908 -0.4057 -2.3092 -0.4038
 3925TIP3   OH233189   6.332   4.673  13.081  0.1021 -0.0485 -0.0861
 3925TIP3    H133190   6.408   4.633  13.038  0.6577 -0.8230  1.5736
 3925TIP3    H233191   6.284   4.600  13.118 -0.5985  0.5676  0.2403
 3926TIP3   OH233192   0.578   2.481   0.914 -0.9126  0.1736  0.4408
 3926TIP3    H133193   0.597   2.435   0.996 -0.0197  0.5487  0.4517
 3926TIP3    H233194   0.578   2.574   0.938  0.6833  0.3618 -0.2347
 3927TIP3   OH233195   5.470   2.330   5.391  0.6433 -0.5397 -0.1619
 3927TIP3    H133196   5.406   2.260   5.404  1.6678 -1.7770 -1.7159
 3927TIP3    H233197   5.528   2.298   5.323  1.0395  1.9039 -1.0344
 3928TIP3   OH233198   3.008   4.665  14.955 -0.0736 -0.3773 -0.3312
 3928TIP3    H133199   3.081   4.683  14.896  0.7986 -0.3769  0.7216
 3928TIP3    H233200   3.047   4.672  15.043 -0.9564 -1.9915  0.1992
 3929TIP3   OH233201   1.223   3.262  13.987  0.3473 -0.0174 -0.1961
 3929TIP3    H133202   1.185   3.319  13.920  1.0259  1.6863  0.8514
 3929TIP3    H233203   1.314   3.249  13.957  0.0223 -1.0945 -0.7612
 3930TIP3   OH233204   2.757   3.694   3.419  0.0834 -0.0586 -0.2576
 3930TIP3    H133205   2.678   3.747   3.430  0.4623  0.2868  0.8469
 3930TIP3    H233206   2.802   3.700   3.503  1.1632 -0.4628 -0.7978
 3931TIP3   OH233207   5.839   5.553  14.005  0.0777  0.4850  0.3728
 3931TIP3    H133208   5.767   5.489  14.006 -1.2210  1.9158  0.8064
 3931TIP3    H233209   5.890   5.530  13.928 -0.7973 -0.6037  0.0986
 3932TIP3   OH233210   5.517   0.615   1.142  0.6088 -0.8616  0.5184
 3932TIP3    H133211   5.477   0.700   1.152  2.3731 -0.0004  0.5340
 3932TIP3    H233212   5.444   0.553   1.144 -0.6880  0.6408  0.4046
 3933TIP3   OH233213   3.819   2.830  16.055 -0.0575 -0.0470 -0.3562
 3933TIP3    H133214   3.831   2.911  16.006  1.9562  0.7971  1.4468
 3933TIP3    H233215   3.881   2.768  16.015 -0.1275 -0.0710 -0.4283
 3934TIP3   OH233216   4.175   5.762   5.599  0.3024 -0.3075  0.2236
 3934TIP3    H133217   4.151   5.810   5.679  2.2601  2.3698 -0.7326
 3934TIP3    H233218   4.112   5.792   5.533 -1.4881 -2.7250  0.7532
 3935TIP3   OH233219   6.705   5.863  15.759 -0.4837  0.4704 -0.0100
 3935TIP3    H133220   6.649   5.937  15.735  0.4688  0.8927 -0.9865
 3935TIP3    H233221   6.716   5.814  15.677 -1.4133 -0.9647  0.7050
 3936TIP3   OH233222   1.498   4.313   4.852  0.2102 -0.4020 -0.5698
 3936TIP3    H133223   1.455   4.374   4.912 -1.7142 -1.3994 -0.9182
 3936TIP3    H233224   1.581   4.292   4.896 -0.7939 -0.4463  1.3465
 3937TIP3   OH233225   3.781   6.436  11.968 -0.8402 -0.1965  0.4595
 3937TIP3    H133226   3.767   6.374  11.896  2.0911 -1.0480  0.5349
 3937TIP3    H233227   3.801   6.519  11.924  2.1372 -0.9939  0.1944
 3938TIP3   OH233228   5.696   5.333  14.429 -0.0857  0.2307  0.4373
 3938TIP3    H133229   5.643   5.413  14.422  1.1241  1.1082  1.0543
 3938TIP3    H233230   5.641   5.264  14.392 -2.7049  0.6327  3.3414
 3939TIP3   OH233231   2.633   2.183   6.696  0.6134  0.2768  0.1553
 3939TIP3    H133232   2.679   2.126   6.635 -1.2665  0.1709 -1.2084
 3939TIP3    H233233   2.629   2.268   6.652  0.7523  0.6649  0.8750
 3940TIP3   OH233234   1.006   0.803  15.655 -0.2707 -0.1520  0.2986
 3940TIP3    H133235   0.936   0.844  15.705 -0.2301 -0.4315  0.5841
 3940TIP3    H233236   1.064   0.875  15.629  0.1117 -0.1066  1.2843
 3941TIP3   OH233237   4.253   0.789   3.261  0.4262  0.3168  0.1586
 3941TIP3    H133238   4.306   0.841   3.201  0.3397  1.8642  1.4163
 3941TIP3    H233239   4.262   0.832   3.346  0.6814 -1.9511  1.3128
 3942TIP3   OH233240   3.106   4.763   3.629 -0.7187  0.5680  0.3282
 3942TIP3    H133241   3.014   4.774   3.605 -0.2295  1.8912 -0.9949
 3942TIP3    H233242   3.107   4.682   3.680 -2.8031  1.1916  1.4361
 3943TIP3   OH233243   3.544   1.587   3.504 -0.2430  0.7320 -0.0770
 3943TIP3    H133244   3.616   1.640   3.538 -1.0811  1.7816  0.1054
 3943TIP3    H233245   3.480   1.651   3.473 -1.4030 -0.1662  0.4127
 3944TIP3   OH233246   5.538   6.439   0.916  0.1973  0.4860 -0.0748
 3944TIP3    H133247   5.531   6.436   0.820  1.4726 -0.2586 -0.1531
 3944TIP3    H233248   5.614   6.494   0.933 -0.3201  1.0233  0.5287
 3945TIP3   OH233249   2.590   0.034   2.732 -0.3950  0.3498  0.8072
 3945TIP3    H133250   2.584   0.001   2.822 -0.4075  0.5992  0.8973
 3945TIP3    H233251   2.515  -0.005   2.687 -1.2398  1.4019  1.2829
 3946TIP3   OH233252   2.110   3.555   4.137 -0.2266 -0.4007 -0.2534
 3946TIP3    H133253   2.124   3.525   4.227 -1.8464  1.3044  0.5956
 3946TIP3    H233254   2.111   3.474   4.084 -1.1844 -1.6272  1.5487
 3947TIP3   OH233255   0.567   4.060   6.112  0.2427  0.6089  0.3872
 3947TIP3    H133256   0.475   4.088   6.123  0.6192  1.4093  1.7430
 3947TIP3    H233257   0.564   3.965   6.122 -0.4627  0.6189  0.3505
 3948TIP3   OH233258   6.594   2.483  15.422  0.6466 -0.5611  0.3164
 3948TIP3    H133259   6.625   2.393  15.407 -1.1628 -1.2402  0.5038
 3948TIP3    H233260   6.584   2.489  15.517 -1.7772 -1.0577  0.1190
 3949TIP3   OH233261   5.087   2.160   4.711  0.8445 -0.1509 -0.1212
 3949TIP3    H133262   5.006   2.199   4.679 -0.0103  0.9307  3.1587
 3949TIP3    H233263   5.101   2.083   4.656 -1.9492  0.1302 -1.2726
 3950TIP3   OH233264   4.218   0.336   2.851 -0.6086  0.1555 -0.2216
 3950TIP3    H133265   4.141   0.282   2.868  1.1565 -1.8531  1.6998
 3950TIP3    H233266   4.288   0.293   2.900  1.4461  2.6750 -0.8718
 3951TIP3   OH233267   1.989   4.865   2.810 -0.0394 -0.1460 -0.7256
 3951TIP3    H133268   2.069   4.873   2.758 -0.0930 -0.1214 -0.8054
 3951TIP3    H233269   1.940   4.944   2.790  0.1473  0.0832 -0.2771
 3952TIP3   OH233270   3.799   5.710  17.159  0.2278  0.0887 -0.2831
 3952TIP3    H133271   3.751   5.675  17.233  0.5493 -0.2951 -0.2569
 3952TIP3    H233272   3.862   5.771  17.197  1.1763 -0.9708 -0.1403
 3953TIP3   OH233273   3.922   4.449  13.439 -0.1472  0.4397  0.0627
 3953TIP3    H133274   3.918   4.356  13.461  1.6364 -0.3525 -2.7353
 3953TIP3    H233275   3.837   4.469  13.402  0.4234 -0.8282 -2.0036
 3954TIP3   OH233276   3.220   5.554  15.014  0.1084 -0.1007 -0.3117
 3954TIP3    H133277   3.162   5.568  15.089 -1.3345  1.7186 -1.7267
 3954TIP3    H233278   3.161   5.532  14.942  1.2640  0.5042 -1.4573
 3955TIP3   OH233279   1.015   5.151   3.088  0.5098 -0.2635 -0.4133
 3955TIP3    H133280   0.967   5.116   3.012  0.5912 -0.1314 -0.5271
 3955TIP3    H233281   1.098   5.103   3.087  0.2022 -0.8141  0.0483
 3956TIP3   OH233282   5.034   0.916  15.483 -0.0507 -0.1888 -0.4821
 3956TIP3    H133283   5.025   0.985  15.549 -0.8805 -0.8434  0.0855
 3956TIP3    H233284   4.969   0.850  15.507 -3.0177  1.2530 -4.0498
 3957TIP3   OH233285   2.298   0.470   4.741  0.7352 -0.1116  0.6260
 3957TIP3    H133286   2.292   0.426   4.826 -0.1642 -1.0708  0.0823
 3957TIP3    H233287   2.221   0.439   4.693  1.3192  0.3025 -0.5932
 3958TIP3   OH233288   4.896   5.139   1.353 -0.1732 -0.3171  0.0385
 3958TIP3    H133289   4.844   5.059   1.347  1.3887 -1.1997 -2.6342
 3958TIP3    H233290   4.841   5.206   1.312 -0.4720 -0.5674  0.0260
 3959TIP3   OH233291   6.255   5.210  10.482 -0.0659 -0.3647  0.6044
 3959TIP3    H133292   6.245   5.295  10.525  0.4111 -0.9276  1.8571
 3959TIP3    H233293   6.349   5.202  10.467 -0.0157 -1.0466  1.2720
 3960TIP3   OH233294   0.719   6.366  15.225 -0.2511  0.2206 -0.3565
 3960TIP3    H133295   0.796   6.361  15.282 -1.1474  0.2362  0.8589
 3960TIP3    H233296   0.755   6.364  15.136  1.1849  0.7722  0.2062
 3961TIP3   OH233297   5.853   4.921   0.123  0.5424 -0.1592  0.3456
 3961TIP3    H133298   5.889   4.993   0.175  0.4055  0.2892 -0.1800
 3961TIP3    H233299   5.856   4.952   0.033 -0.8158 -0.2795  0.2551
 3962TIP3   OH233300   3.617   3.036  14.193  0.1379  0.0382  0.4577
 3962TIP3    H133301   3.592   2.972  14.127  0.1665 -1.7259  2.0815
 3962TIP3    H233302   3.697   3.077  14.158 -0.5644  0.0566 -1.1511
 3963TIP3   OH233303   0.504   5.353   4.386  0.1502 -0.4288  0.8362
 3963TIP3    H133304   0.454   5.435   4.386  1.4351  0.3740 -0.1730
 3963TIP3    H233305   0.571   5.366   4.319  0.0380 -2.5290  0.2943
 3964TIP3   OH233306   1.365   6.594   3.475  0.3842  0.2089 -0.2180
 3964TIP3    H133307   1.367   6.543   3.556 -0.4175  0.0232 -0.3145
 3964TIP3    H233308   1.455   6.590   3.442  0.1645 -1.8037 -0.6392
 3965TIP3   OH233309   4.544   4.846   3.440 -0.1489 -0.1227  0.3760
 3965TIP3    H133310   4.542   4.893   3.357 -1.8838  0.6196  0.8239
 3965TIP3    H233311   4.636   4.826   3.454  0.1252 -0.5776 -1.9103
 3966TIP3   OH233312   0.643   5.157  14.013 -0.0345  0.1944  0.1735
 3966TIP3    H133313   0.679   5.215  13.946 -1.4990  1.2468  0.2718
 3966TIP3    H233314   0.574   5.108  13.968  0.8942 -1.1642  0.2055
 3967TIP3   OH233315   3.881   0.275  10.341 -0.0176 -0.2628 -0.3570
 3967TIP3    H133316   3.884   0.186  10.304 -3.0229 -0.7169  0.3749
 3967TIP3    H233317   3.950   0.275  10.407 -1.6471 -2.9763  1.4716
 3968TIP3   OH233318   3.554   5.232  16.667 -0.0200 -0.4407 -0.3923
 3968TIP3    H133319   3.497   5.291  16.717  0.5702 -2.0351  2.2380
 3968TIP3    H233320   3.495   5.188  16.606 -1.4054 -1.0586  1.3463
 3969TIP3   OH233321   6.452   1.956  12.077  0.0873 -0.4322 -0.0993
 3969TIP3    H133322   6.461   1.947  12.172 -0.2072 -0.7144 -0.0965
 3969TIP3    H233323   6.530   2.005  12.050 -0.8844  1.5206  0.5625
 3970TIP3   OH233324   0.753   2.926   5.113  0.1685 -0.1080 -0.2398
 3970TIP3    H133325   0.846   2.931   5.091  0.3796 -0.6587  0.5163
 3970TIP3    H233326   0.745   2.847   5.166 -0.9587 -0.7990 -1.4160
 3971TIP3   OH233327   1.558   2.189   3.896  0.6315  0.1451  0.9019
 3971TIP3    H133328   1.558   2.228   3.983  0.1412  0.9687  0.5450
 3971TIP3    H233329   1.492   2.239   3.848 -2.1655 -3.0336  1.2620
 3972TIP3   OH233330   5.392   5.351  15.775 -0.2259  0.1270  0.2503
 3972TIP3    H133331   5.477   5.379  15.809  0.0425 -0.2416 -0.1176
 3972TIP3    H233332   5.347   5.312  15.851  0.7049 -1.4685 -0.0005
 3973TIP3   OH233333   3.397   3.887   2.656  0.7857 -0.0479 -0.4073
 3973TIP3    H133334   3.417   3.954   2.722  2.2268 -0.8446 -0.0115
 3973TIP3    H233335   3.305   3.865   2.671  0.7898  0.5775  0.6101
 3974TIP3   OH233336   4.432   2.803   3.297 -0.1731 -0.3839  0.4232
 3974TIP3    H133337   4.403   2.812   3.207 -1.3342  0.9822  0.9158
 3974TIP3    H233338   4.375   2.735   3.334  0.1511 -0.7791  0.2093
 3975TIP3   OH233339   4.022   1.156  15.408  0.2499 -0.1329 -0.2410
 3975TIP3    H133340   4.006   1.117  15.495  2.0400 -2.0154 -0.6993
 3975TIP3    H233341   3.948   1.127  15.355 -0.6900  0.7616  0.5741
 3976TIP3   OH233342   6.637   5.092  11.852 -0.0993 -0.1412 -0.2971
 3976TIP3    H133343   6.660   5.099  11.759  0.0983  1.2612 -0.1524
 3976TIP3    H233344   6.658   5.001  11.875  2.4734  0.2465 -0.9237
 3977TIP3   OH233345   0.482   3.050  11.332  0.2726 -0.7321 -0.1327
 3977TIP3    H133346   0.414   3.084  11.275  2.0947  1.9977 -0.7625
 3977TIP3    H233347   0.537   2.997  11.274  2.2753  2.2575 -1.0554
 3978TIP3   OH233348   3.211   2.732   1.256  0.3865 -0.1941 -0.3970
 3978TIP3    H133349   3.139   2.768   1.203 -0.4095  0.0052  0.7994
 3978TIP3    H233350   3.250   2.665   1.201 -0.8184 -0.4042 -1.0157
 3979TIP3   OH233351   6.714   3.094  14.417  0.0869  0.0881 -0.1424
 3979TIP3    H133352   6.654   3.049  14.476  0.3122  1.1790  0.9397
 3979TIP3    H233353   6.800   3.084  14.458  0.2502  0.8159 -0.3032
 3980TIP3   OH233354   3.610   0.705   1.623  0.0147  0.2076  0.7374
 3980TIP3    H133355   3.644   0.627   1.577  1.2295 -0.0158  1.9845
 3980TIP3    H233356   3.680   0.770   1.614 -0.6759  0.9082  0.3815
 3981TIP3   OH233357   0.180   6.057   3.668 -0.4404 -1.0606  0.0266
 3981TIP3    H133358   0.180   5.966   3.699 -2.8483 -1.1966 -0.2898
 3981TIP3    H233359   0.136   6.054   3.583  1.8381  0.0359 -1.2330
 3982TIP3   OH233360   4.101   1.603  16.567 -0.7722  0.2729 -0.3107
 3982TIP3    H133361   4.132   1.655  16.492 -1.0514 -0.9183 -1.2651
 3982TIP3    H233362   4.013   1.575  16.541 -0.7451 -0.4131  0.3468
 3983TIP3   OH233363   0.006   5.508   2.636  0.2852 -0.0141 -0.2140
 3983TIP3    H133364   0.045   5.595   2.621 -0.7506  0.2089 -1.7488
 3983TIP3    H233365  -0.087   5.520   2.618 -0.0168 -1.2464  0.4564
 3984TIP3   OH233366   1.382   3.342  16.710 -0.4021  0.2787 -0.1197
 3984TIP3    H133367   1.327   3.401  16.761  1.9154  0.4265  2.2766
 3984TIP3    H233368   1.419   3.281  16.774  1.1846 -0.6414 -1.8568
 3985TIP3   OH233369   6.431   6.086  16.685  0.2235  0.3948  0.3524
 3985TIP3    H133370   6.440   6.117  16.595  1.4802  1.1252  0.7225
 3985TIP3    H233371   6.350   6.127  16.717 -0.5729 -0.3864 -0.6509
 3986TIP3   OH233372   4.651   0.854   3.703  0.5787  0.0532 -0.2976
 3986TIP3    H133373   4.575   0.908   3.723  0.0694 -0.1969 -1.5085
 3986TIP3    H233374   4.715   0.876   3.770 -0.0573  1.2858 -0.0894
 3987TIP3   OH233375   5.262   0.288   0.211 -0.2987  0.5388  0.2240
 3987TIP3    H133376   5.327   0.225   0.182 -2.0252 -1.3619  0.3339
 3987TIP3    H233377   5.205   0.302   0.135 -2.1303 -0.9558  1.2640
 3988TIP3   OH233378   3.264   0.769   1.016  0.3088 -0.3005 -0.2189
 3988TIP3    H133379   3.317   0.817   1.079 -1.3464  1.2632  0.0342
 3988TIP3    H233380   3.273   0.818   0.934  0.7852 -1.1222 -0.6626
 3989TIP3   OH233381   4.555   3.300  15.773  0.2734  0.0602 -0.0820
 3989TIP3    H133382   4.587   3.383  15.810  1.0124 -0.5152  0.5907
 3989TIP3    H233383   4.469   3.288  15.812 -0.0513  0.7705 -0.5771
 3990TIP3   OH233384   5.152   3.232   4.851  1.0151  0.5239 -0.3648
 3990TIP3    H133385   5.213   3.180   4.903  1.4949  2.6484  1.2895
 3990TIP3    H233386   5.075   3.242   4.907  0.2102  0.1406 -1.3726
 3991TIP3   OH233387   4.977   5.022   5.604 -0.7407 -0.7868  0.2996
 3991TIP3    H133388   4.898   5.051   5.650 -0.8181  0.4684 -0.5732
 3991TIP3    H233389   4.974   4.927   5.605 -2.3371 -0.7374  0.1737
 3992TIP3   OH233390   6.700   4.826  11.879  0.1284 -0.2408  0.1409
 3992TIP3    H133391   6.664   4.739  11.897 -0.5833 -0.0105 -0.1430
 3992TIP3    H233392   6.758   4.812  11.804  0.4790 -0.5792  0.4737
 3993TIP3   OH233393   1.753   3.839   2.079 -0.6686  0.2955  0.5243
 3993TIP3    H133394   1.699   3.808   2.151 -0.1885 -0.5428  0.5342
 3993TIP3    H233395   1.753   3.934   2.088  0.1965  0.1507  2.2244
 3994TIP3   OH233396   4.823   0.593   2.120  0.1003  0.0334  0.1456
 3994TIP3    H133397   4.729   0.576   2.122  0.1588 -0.2396  0.6330
 3994TIP3    H233398   4.848   0.602   2.212  0.0296  2.9999 -0.0717
 3995TIP3   OH233399   1.112   6.010   4.242 -0.0866  0.2353 -0.3341
 3995TIP3    H133400   1.159   6.017   4.326 -0.2729  0.5458 -0.2537
 3995TIP3    H233401   1.061   6.090   4.237 -0.3711  0.0391 -0.5693
 3996TIP3   OH233402   1.261   2.287  12.728  0.2118  0.1450  0.2487
 3996TIP3    H133403   1.184   2.342  12.718  1.3544  1.2666 -2.8461
 3996TIP3    H233404   1.228   2.197  12.719 -0.8948  0.5578  0.1226
 3997TIP3   OH233405   4.034   5.605   2.233  0.3664 -0.2373 -0.2383
 3997TIP3    H133406   4.035   5.676   2.297  0.7202  0.0022 -0.5036
 3997TIP3    H233407   3.974   5.540   2.269 -0.4505  0.4763 -0.2942
 3998TIP3   OH233408   5.673   2.389  11.546 -0.5399 -0.4292  0.2856
 3998TIP3    H133409   5.732   2.387  11.621  0.7132 -0.0177 -0.6570
 3998TIP3    H233410   5.638   2.478  11.545  0.0111 -0.2088 -0.0238
 3999TIP3   OH233411   3.359   3.568  13.187 -0.0001  0.5260 -0.0472
 3999TIP3    H133412   3.448   3.597  13.208  0.1900 -0.8211  1.0238
 3999TIP3    H233413   3.308   3.649  13.183  1.0761  1.2306  0.3012
 4000TIP3   OH233414   5.456   3.397   5.705 -0.1966 -0.1101  0.1761
 4000TIP3    H133415   5.486   3.473   5.755  1.2716 -0.3392 -0.3415
 4000TIP3    H233416   5.504   3.323   5.743 -0.6492 -0.5857 -0.1774
 4001TIP3   OH233417   1.679   2.287   5.514 -0.7728 -0.9659 -0.5709
 4001TIP3    H133418   1.673   2.203   5.559  1.6956  0.1156  1.8573
 4001TIP3    H233419   1.766   2.287   5.474 -0.5724  0.6008 -0.1704
 4002TIP3   OH233420   5.729   6.362   5.859  0.3360 -0.5528 -0.0666
 4002TIP3    H133421   5.747   6.453   5.880  0.8915 -0.1580 -2.0955
 4002TIP3    H233422   5.645   6.344   5.901  0.2744  0.8588  0.4371
 4003TIP3   OH233423   2.925   1.665   5.497  0.0684 -0.0351  0.2053
 4003TIP3    H133424   2.857   1.732   5.492 -0.0727 -0.1420  0.7028
 4003TIP3    H233425   2.878   1.582   5.496  0.2490 -0.1378 -0.5221
 4004TIP3   OH233426   5.400   2.127  14.582  0.1847 -0.4906 -0.2119
 4004TIP3    H133427   5.342   2.201  14.601  0.1246 -0.4361 -0.6183
 4004TIP3    H233428   5.469   2.163  14.526  1.1409 -0.3392  1.0346
 4005TIP3   OH233429   1.971   4.872  16.310 -0.2531 -0.1895  0.1802
 4005TIP3    H133430   1.999   4.918  16.390 -1.7275  1.9251 -0.4804
 4005TIP3    H233431   2.007   4.924  16.239 -2.7544  0.5511 -0.6048
 4006TIP3   OH233432   4.052   6.126   4.315 -0.3746 -0.1281  0.3385
 4006TIP3    H133433   4.078   6.078   4.237 -0.5023 -0.7750  0.6845
 4006TIP3    H233434   4.131   6.129   4.369 -0.2463  0.4518  0.1202
 4007TIP3   OH233435   4.138   4.046  13.191 -0.0642  0.4970  0.3337
 4007TIP3    H133436   4.166   4.122  13.243 -0.2910 -0.4041  1.7878
 4007TIP3    H233437   4.196   3.975  13.219 -0.3662 -0.0691 -0.4597
 4008TIP3   OH233438   4.019   4.119   0.238 -0.1820 -0.3500  0.1369
 4008TIP3    H133439   4.004   4.174   0.161  2.6093  1.3499  0.7391
 4008TIP3    H233440   3.951   4.145   0.300  0.4155  1.6686 -0.0158
 4009TIP3   OH233441   0.018   3.370   2.408 -0.8814  0.4301  0.5601
 4009TIP3    H133442   0.036   3.445   2.464  0.6508  1.6469 -1.5205
 4009TIP3    H233443  -0.065   3.391   2.366 -1.6583 -0.1505  1.7715
 4010TIP3   OH233444   2.835   6.233  13.217 -0.1650 -0.6461  0.8247
 4010TIP3    H133445   2.823   6.146  13.179 -1.3164 -0.5303  0.9190
 4010TIP3    H233446   2.905   6.272  13.164 -0.8096 -0.9945 -0.3165
 4011TIP3   OH233447   0.128   5.882  12.408  0.5996 -0.8395  0.1899
 4011TIP3    H133448   0.124   5.969  12.446  0.7275 -0.3151 -0.9684
 4011TIP3    H233449   0.050   5.876  12.353  0.0277 -1.8565  1.0835
 4012TIP3   OH233450   2.987   1.920   2.204 -0.0396 -0.1581 -0.1561
 4012TIP3    H133451   3.046   1.845   2.201  0.1622  0.0140 -0.7089
 4012TIP3    H233452   3.019   1.973   2.277  0.1797 -0.3230 -0.1307
 4013TIP3   OH233453   1.896   6.126   1.346  0.1554  0.5083  0.0129
 4013TIP3    H133454   1.865   6.167   1.427 -0.4134  1.1784 -0.5376
 4013TIP3    H233455   1.873   6.188   1.277 -0.4017 -0.5745 -0.7958
 4014TIP3   OH233456   5.951   1.881   5.443  0.3731  0.0131  0.0347
 4014TIP3    H133457   5.872   1.933   5.454  0.2686  0.0474 -0.7995
 4014TIP3    H233458   6.018   1.927   5.493 -0.0038  0.2929  0.2816
 4015TIP3   OH233459   6.386   5.740  11.612  0.1656 -0.3684 -0.0980
 4015TIP3    H133460   6.385   5.831  11.583 -0.5137 -0.2568  0.2744
 4015TIP3    H233461   6.400   5.689  11.532  1.5485  0.1149 -0.1708
 4016TIP3   OH233462   3.157   5.986  14.144  0.0102 -0.2912 -0.0627
 4016TIP3    H133463   3.101   6.018  14.073 -0.3169 -0.3850  0.1495
 4016TIP3    H233464   3.096   5.949  14.208  0.3720 -1.3377 -0.3020
 4017TIP3   OH233465   3.747   4.475   5.488  0.6587 -0.1003 -0.2984
 4017TIP3    H133466   3.783   4.470   5.399  0.9753 -1.4834 -0.1067
 4017TIP3    H233467   3.776   4.394   5.530 -0.1718  0.1700  0.8172
 4018TIP3   OH233468   3.297   6.689   0.843 -0.3838  0.3197  0.1463
 4018TIP3    H133469   3.366   6.749   0.816 -0.6850  0.3280 -0.6065
 4018TIP3    H233470   3.290   6.702   0.938  2.2843 -1.4036  0.6432
 4019TIP3   OH233471   0.338   2.344   0.495 -0.1058  0.3376 -0.6182
 4019TIP3    H133472   0.411   2.334   0.557 -0.0286  0.3798 -0.7027
 4019TIP3    H233473   0.307   2.255   0.480 -0.3492  0.3606 -0.2474
 4020TIP3   OH233474   1.907   5.261   3.281 -0.0854  0.0005 -0.5070
 4020TIP3    H133475   1.941   5.343   3.315 -0.9215  0.1976 -0.1444
 4020TIP3    H233476   1.857   5.286   3.203 -1.7938  0.0383  0.5871
 4021TIP3   OH233477   1.380   2.404   4.602 -0.4500  0.4106 -0.3396
 4021TIP3    H133478   1.467   2.366   4.607 -0.6645 -0.0981 -0.3906
 4021TIP3    H233479   1.394   2.498   4.611  0.1144  0.3432 -0.5015
 4022TIP3   OH233480   5.015   3.870   1.506 -0.3835 -0.3753  0.4091
 4022TIP3    H133481   4.953   3.865   1.579  1.5364  0.0164  2.1166
 4022TIP3    H233482   4.960   3.875   1.428 -2.4938 -0.2678  1.8634
 4023TIP3   OH233483   3.138   1.954  12.842  0.1055  0.1642 -0.1835
 4023TIP3    H133484   3.167   1.895  12.772  0.1900 -2.6474  2.1282
 4023TIP3    H233485   3.045   1.935  12.851 -0.5705  2.6754 -1.4820
 4024TIP3   OH233486   5.221   6.713  14.128 -0.5108  0.0496  0.3535
 4024TIP3    H133487   5.307   6.671  14.127 -0.2293  0.5758  1.7994
 4024TIP3    H233488   5.165   6.650  14.173 -0.1950  1.0062  2.1051
 4025TIP3   OH233489   3.220   1.566  11.387  0.5182  0.0023  0.0744
 4025TIP3    H133490   3.156   1.496  11.402 -0.7746  0.8875 -1.1465
 4025TIP3    H233491   3.247   1.554  11.296  1.9367 -0.2129  0.5083
 4026TIP3   OH233492   4.076   0.779  14.963  0.4237  0.1380 -0.7898
 4026TIP3    H133493   3.989   0.818  14.959  0.5334  0.3889 -0.7181
 4026TIP3    H233494   4.063   0.695  15.006  0.2929  0.3836 -0.3476
 4027TIP3   OH233495   3.530   1.734  13.031 -0.3776  0.2510 -0.6737
 4027TIP3    H133496   3.549   1.706  12.942  2.9776 -1.0538  0.3559
 4027TIP3    H233497   3.579   1.815  13.042 -0.2575  0.0649  0.1936
 4028TIP3   OH233498   1.417   5.416  15.478  0.3189 -0.7720 -0.5538
 4028TIP3    H133499   1.511   5.422  15.458  0.2362 -1.6923 -1.2728
 4028TIP3    H233500   1.390   5.506  15.492  1.1977 -0.4395 -0.9081
 4029TIP3   OH233501   6.215   0.310   5.752 -0.2386 -0.0043 -0.4274
 4029TIP3    H133502   6.303   0.327   5.784 -0.7833 -0.1499  1.1887
 4029TIP3    H233503   6.169   0.270   5.826 -0.7113 -3.0001 -2.2307
 4030TIP3   OH233504   2.197   4.598   1.801 -0.2535  0.3476  0.4077
 4030TIP3    H133505   2.124   4.548   1.765  0.8842 -0.2824 -1.0578
 4030TIP3    H233506   2.213   4.558   1.886  0.4128 -1.5577 -0.6052
 4031TIP3   OH233507   2.859   2.812   1.803 -0.1350  0.1010  0.2995
 4031TIP3    H133508   2.767   2.840   1.798  0.0152  0.3094 -2.0107
 4031TIP3    H233509   2.855   2.716   1.796 -0.2263  0.0665  0.8579
 4032TIP3   OH233510   2.097   3.268  15.641 -0.0436  0.1159  0.6518
 4032TIP3    H133511   2.115   3.360  15.619 -2.5921  0.4636 -0.1272
 4032TIP3    H233512   2.038   3.272  15.716  0.3332 -0.9019  1.0018
 4033TIP3   OH233513   1.837   0.853   6.585  0.2266 -0.1674  0.1067
 4033TIP3    H133514   1.882   0.908   6.522 -0.6620  1.5032  0.9082
 4033TIP3    H233515   1.769   0.809   6.534  1.6117 -1.3577 -0.7444
 4034TIP3   OH233516   4.261   1.048   2.226  0.1902  0.3048  0.3091
 4034TIP3    H133517   4.318   1.023   2.298  1.2861 -4.0541 -1.8984
 4034TIP3    H233518   4.172   1.032   2.259  0.6213 -0.3004  1.1986
 4035TIP3   OH233519   1.145   4.153   0.742  0.1130 -0.0319 -0.3438
 4035TIP3    H133520   1.190   4.211   0.680  0.6170 -0.9774 -0.8754
 4035TIP3    H233521   1.214   4.094   0.773 -0.2041  0.2560  0.9043
 4036TIP3   OH233522   3.781   6.037  17.088  0.0089  0.1312  0.3046
 4036TIP3    H133523   3.801   6.130  17.081 -3.3682  0.9977  1.1508
 4036TIP3    H233524   3.819   6.010  17.172 -0.4372  1.1369  0.8287
 4037TIP3   OH233525   2.746   4.289  16.155  0.3651  0.1294  0.1398
 4037TIP3    H133526   2.653   4.275  16.138  0.5961 -0.1978 -0.8567
 4037TIP3    H233527   2.767   4.229  16.227 -0.4680  1.0848  1.2047
 4038TIP3   OH233528   3.248   2.999  15.961 -0.1350 -0.0112  0.2580
 4038TIP3    H133529   3.199   2.949  15.896 -0.8446 -1.5041  1.8966
 4038TIP3    H233530   3.187   3.067  15.989 -0.7802 -0.9672  1.2260
 4039TIP3   OH233531   3.174   3.950  16.004 -0.5041  0.0637  0.1712
 4039TIP3    H133532   3.178   3.968  15.910  1.9924  1.4654  0.5058
 4039TIP3    H233533   3.080   3.954  16.025 -1.0605 -0.0612 -2.2099
 4040TIP3   OH233534   2.601   2.445   0.554 -0.0708 -0.0999  0.2797
 4040TIP3    H133535   2.539   2.397   0.609  0.4718 -0.5111  0.5311
 4040TIP3    H233536   2.575   2.537   0.564 -1.3190 -0.3512 -0.4650
 4041TIP3   OH233537   3.506   4.384   6.398  0.3305  0.2266 -0.1769
 4041TIP3    H133538   3.516   4.475   6.426  1.3767  0.2718 -0.6859
 4041TIP3    H233539   3.596   4.353   6.385 -0.0277 -0.8421 -0.1144
 4042TIP3   OH233540   4.778   5.496   4.567 -0.1584  0.1661 -0.4271
 4042TIP3    H133541   4.741   5.536   4.645 -0.4015 -0.4064 -0.2495
 4042TIP3    H233542   4.742   5.407   4.565  0.2745 -0.0056 -0.8910
 4043TIP3   OH233543   0.866   1.361  12.254 -0.3512  0.1253 -0.2740
 4043TIP3    H133544   0.771   1.372  12.249 -0.4589 -0.5053  0.3093
 4043TIP3    H233545   0.887   1.375  12.347 -0.4804 -4.2911  0.5004
 4044TIP3   OH233546   3.721   1.548   5.395  0.3573 -0.0060 -0.2442
 4044TIP3    H133547   3.730   1.472   5.338  2.7277 -0.4500  0.6521
 4044TIP3    H233548   3.695   1.511   5.480  1.0944  0.2016  0.0788
 4045TIP3   OH233549   1.498   0.552   0.459 -0.1251 -0.0170  0.1819
 4045TIP3    H133550   1.411   0.593   0.463  0.0011  0.2822 -0.1139
 4045TIP3    H233551   1.482   0.465   0.424 -0.2289  0.2715 -0.4999
 4046TIP3   OH233552   4.315   4.857  12.926  0.5605  0.7049  0.3159
 4046TIP3    H133553   4.353   4.944  12.917  0.1700  0.7995 -0.4979
 4046TIP3    H233554   4.233   4.861  12.876 -0.6270  0.5788  2.2163
 4047TIP3   OH233555   5.330   5.736  16.948 -0.0612 -0.0552  0.3929
 4047TIP3    H133556   5.390   5.788  16.895  1.0127  0.7065  2.2828
 4047TIP3    H233557   5.360   5.751  17.038 -0.8723 -2.5137  1.1041
 4048TIP3   OH233558   4.595   3.494   1.167 -0.5316 -0.4473 -0.4070
 4048TIP3    H133559   4.518   3.444   1.140 -0.7795  0.7902 -2.0599
 4048TIP3    H233560   4.560   3.576   1.201  0.0423  0.0081 -0.9082
 4049TIP3   OH233561   5.458   0.812   5.362 -0.4740  0.4657 -0.4487
 4049TIP3    H133562   5.378   0.858   5.390 -0.5455  0.9307 -1.4117
 4049TIP3    H233563   5.427   0.730   5.324 -0.4627  0.4454 -0.4147
 4050TIP3   OH233564   3.156   6.370  14.695 -0.5360 -0.4931 -0.4084
 4050TIP3    H133565   3.217   6.425  14.743  0.0635 -1.0916 -0.4734
 4050TIP3    H233566   3.187   6.374  14.604 -0.7015 -0.6490 -0.4710
 4051TIP3   OH233567   1.767   4.704   4.156  0.2675 -0.1712 -0.3230
 4051TIP3    H133568   1.730   4.735   4.073  1.1380 -0.9695 -1.0204
 4051TIP3    H233569   1.692   4.670   4.204 -0.1188 -0.5302 -1.1645
 4052TIP3   OH233570   0.980   6.642  14.600 -0.1629 -0.3365  0.0314
 4052TIP3    H133571   1.044   6.667  14.533  0.1551 -0.5012  0.2744
 4052TIP3    H233572   1.024   6.575  14.651  0.2634  1.0251  1.4952
 4053TIP3   OH233573   5.254   6.239  12.408  0.0916 -0.4960 -0.0984
 4053TIP3    H133574   5.305   6.299  12.353  0.3710 -1.5201 -0.9807
 4053TIP3    H233575   5.318   6.203  12.470 -0.3188  1.0239  1.2410
 4054TIP3   OH233576   0.642   4.702   1.742 -0.0563 -0.5943 -0.5009
 4054TIP3    H133577   0.562   4.656   1.770 -0.2744  0.6727  1.0295
 4054TIP3    H233578   0.663   4.662   1.658 -3.3273  0.2841 -1.8334
 4055TIP3   OH233579   3.235   3.172  10.881  0.3031 -0.0498  0.5187
 4055TIP3    H133580   3.250   3.181  10.787 -1.2071 -0.8516  0.1850
 4055TIP3    H233581   3.243   3.078  10.898  0.5404  0.0902  1.1832
 4056TIP3   OH233582   3.971   3.213   1.867  1.2956  0.4077 -0.5569
 4056TIP3    H133583   3.923   3.177   1.793 -0.2115  0.7883  0.2153
 4056TIP3    H233584   3.933   3.300   1.880  1.2908  0.1949  0.9054
 4057TIP3   OH233585   3.121   5.290   2.382 -0.6932 -0.0429  0.2248
 4057TIP3    H133586   3.175   5.213   2.402 -0.7988  0.1648  1.3360
 4057TIP3    H233587   3.033   5.255   2.372 -0.5631 -0.2117 -0.3267
 4058TIP3   OH233588   3.117   4.053   4.659  0.7006  0.5888  0.5296
 4058TIP3    H133589   3.118   4.107   4.580 -2.5988 -1.2330 -0.9086
 4058TIP3    H233590   3.208   4.029   4.674  1.6448  2.8765 -1.3823
 4059TIP3   OH233591   4.344   6.409  16.912  0.1640 -0.2754 -0.6257
 4059TIP3    H133592   4.304   6.433  16.995 -0.9505 -2.7330 -0.4161
 4059TIP3    H233593   4.430   6.375  16.936  0.1285 -0.3205 -0.5628
 4060TIP3   OH233594   0.768   1.478  10.988  0.1058 -0.1784  0.7607
 4060TIP3    H133595   0.831   1.430  10.934 -0.6989 -1.1298  0.6543
 4060TIP3    H233596   0.763   1.564  10.948  0.7776 -0.3437  0.3157
 4061TIP3   OH233597   3.484   0.503   0.397  0.1371 -0.4052  0.1510
 4061TIP3    H133598   3.463   0.515   0.489 -0.8978  1.3392 -0.2969
 4061TIP3    H233599   3.401   0.518   0.351  0.6990 -0.9875 -1.0926
 4062TIP3   OH233600   4.364   4.577   1.495  0.0244 -0.2112 -0.2334
 4062TIP3    H133601   4.408   4.652   1.537 -1.2373 -0.5759  1.7764
 4062TIP3    H233602   4.273   4.605   1.484  0.1951 -0.3480 -2.2375
 4063TIP3   OH233603   1.380   0.620   3.829  0.0254  0.2151 -0.1924
 4063TIP3    H133604   1.373   0.527   3.806 -2.5021  0.2553  0.1704
 4063TIP3    H233605   1.336   0.665   3.757 -1.2927  0.8990  1.0153
 4064TIP3   OH233606   6.309   5.833  12.887 -0.6031 -0.3674  0.0171
 4064TIP3    H133607   6.374   5.842  12.817 -1.4492  1.8335 -0.5335
 4064TIP3    H233608   6.256   5.757  12.862  1.4468 -1.9317  0.2596
 4065TIP3   OH233609   4.595   6.381  17.076 -0.2615  0.8210 -0.5967
 4065TIP3    H133610   4.562   6.364  17.164 -0.3288  1.4212 -0.5036
 4065TIP3    H233611   4.638   6.466  17.082  1.9168 -0.2699 -0.5617
 4066TIP3   OH233612   3.421   2.283  17.148 -0.0826 -0.3497  0.5817
 4066TIP3    H133613   3.483   2.217  17.182  1.8281  0.7688 -0.6465
 4066TIP3    H233614   3.427   2.274  17.053 -0.7893  0.7006  0.4366
 4067TIP3   OH233615   3.968   6.123  14.485 -0.2075 -0.4761  0.2994
 4067TIP3    H133616   4.052   6.083  14.509 -0.0674 -0.8447 -0.7963
 4067TIP3    H233617   3.958   6.196  14.546  1.7930  0.7127 -0.7524
 4068TIP3   OH233618   3.009   0.642   4.429 -0.0811 -0.0925 -0.2287
 4068TIP3    H133619   2.919   0.657   4.402 -0.2837  0.3941  0.6975
 4068TIP3    H233620   3.052   0.605   4.352 -0.4059  2.1758 -1.5448
 4069TIP3   OH233621   4.610   0.949   5.340 -0.0426 -0.0833  0.3517
 4069TIP3    H133622   4.598   1.025   5.397  0.5349  0.7142 -0.5769
 4069TIP3    H233623   4.617   0.986   5.252  1.5707 -1.1143  0.0294
 4070TIP3   OH233624   3.263   2.214  12.126  0.1140  0.3537 -0.2936
 4070TIP3    H133625   3.204   2.193  12.053  0.1427  0.0564 -0.2304
 4070TIP3    H233626   3.350   2.190  12.095 -0.0476 -1.0626  0.3505
 4071TIP3   OH233627   3.625   0.007   3.632  0.5459 -0.2987 -0.4814
 4071TIP3    H133628   3.638   0.081   3.692 -1.6575 -1.0790  1.0284
 4071TIP3    H233629   3.546   0.029   3.584 -0.4913 -1.9444  0.4306
 4072TIP3   OH233630   4.199   5.051  15.532  0.4139 -0.2897  0.0905
 4072TIP3    H133631   4.239   5.002  15.604 -0.9824 -1.3344  0.1823
 4072TIP3    H233632   4.105   5.043  15.547  0.0904 -0.5623 -1.8647
 4073TIP3   OH233633   5.210   5.837   1.274  0.4092  0.8145 -0.3242
 4073TIP3    H133634   5.126   5.806   1.239  0.8733 -1.6331  0.6555
 4073TIP3    H233635   5.186   5.882   1.355 -0.0432  0.9911 -0.5495
 4074TIP3   OH233636   5.941   4.424  12.135 -0.0473  0.4668  0.2895
 4074TIP3    H133637   5.984   4.353  12.183 -1.1639  0.3492  1.1466
 4074TIP3    H233638   5.878   4.380  12.078  0.5509  0.6708 -0.5429
 4075TIP3   OH233639   5.782   6.216  13.411 -0.0749  0.1223  0.3443
 4075TIP3    H133640   5.730   6.240  13.335 -1.3498  2.5968  1.9432
 4075TIP3    H233641   5.861   6.270  13.404  0.4004 -0.6008  0.0953
 4076TIP3   OH233642   6.001   3.592   0.923 -0.2060  0.4864 -0.2627
 4076TIP3    H133643   5.978   3.627   0.837 -0.2525  0.3561 -0.3037
 4076TIP3    H233644   5.977   3.500   0.918 -0.5643  0.5624  0.0205
 4077TIP3   OH233645   1.379   5.523   0.544 -0.2242 -0.0869 -0.1741
 4077TIP3    H133646   1.386   5.563   0.631 -1.9808 -2.4402  1.1343
 4077TIP3    H233647   1.439   5.573   0.489 -1.6468  3.7067  1.5327
 4078TIP3   OH233648   2.940   4.243  17.188 -0.1599 -0.2741 -0.8400
 4078TIP3    H133649   2.871   4.186  17.153  0.6458 -0.2923 -2.4605
 4078TIP3    H233650   2.907   4.272  17.273 -0.2372 -3.8376  0.4536
 4079TIP3   OH233651   0.626   0.967  16.678  0.9736  0.4472 -0.5637
 4079TIP3    H133652   0.693   0.915  16.632  0.4037 -0.0378 -0.8468
 4079TIP3    H233653   0.676   1.037  16.720  1.6192  0.3318 -1.1208
 4080TIP3   OH233654   4.397   0.203  16.533  0.2068 -0.5593  0.4306
 4080TIP3    H133655   4.390   0.210  16.438 -0.1457  1.0527  0.5679
 4080TIP3    H233656   4.454   0.276  16.558 -1.8920  0.6565  1.7361
 4081TIP3   OH233657   3.741   6.286  12.873 -0.4939 -0.6280  0.4526
 4081TIP3    H133658   3.825   6.243  12.889 -0.5252 -0.7418  0.3101
 4081TIP3    H233659   3.752   6.328  12.788 -0.4616 -0.3488  0.5945
 4082TIP3   OH233660   4.739   3.633  11.697  0.5743 -0.3137  0.4569
 4082TIP3    H133661   4.789   3.575  11.755 -0.6468 -2.6224 -0.7300
 4082TIP3    H233662   4.666   3.579  11.666 -0.2165  1.6618 -1.2458
 4083TIP3   OH233663   6.400   0.016   0.122 -0.0590  0.1244 -0.5615
 4083TIP3    H133664   6.338  -0.058   0.121 -0.6641  0.6268 -0.5856
 4083TIP3    H233665   6.468  -0.009   0.060 -1.4051  0.5474 -2.2363
 4084TIP3   OH233666   4.006   3.083  14.711 -0.5674 -0.3296 -0.8333
 4084TIP3    H133667   3.969   3.162  14.672 -0.8852  0.3938  0.8900
 4084TIP3    H233668   3.930   3.027  14.729 -0.5685 -0.0095  0.1644
 4085TIP3   OH233669   4.519   2.579  14.535  0.4399 -0.4044  0.6501
 4085TIP3    H133670   4.487   2.491  14.555 -0.7898 -0.1364 -0.0285
 4085TIP3    H233671   4.465   2.607  14.461  0.4612  1.1162  1.1861
 4086TIP3   OH233672   0.510   3.105   2.093 -0.5468  0.4232  0.2598
 4086TIP3    H133673   0.562   3.025   2.090 -1.3846 -0.1306  0.1275
 4086TIP3    H233674   0.528   3.143   2.179  2.7940  2.1275 -1.1043
 4087TIP3   OH233675   4.223   6.501  11.651  0.0648 -0.0868  0.4617
 4087TIP3    H133676   4.166   6.425  11.639  0.6520 -0.1386 -2.5865
 4087TIP3    H233677   4.181   6.571  11.600  1.0216  0.8195  0.8909
 4088TIP3   OH233678   6.003   3.947  17.009 -0.3663 -0.6974 -0.0636
 4088TIP3    H133679   5.991   3.852  17.003  1.5678 -0.9435 -0.3098
 4088TIP3    H233680   6.047   3.961  17.093 -1.1193  0.0367  0.2161
 4089TIP3   OH233681   0.064   5.887   4.345  0.0675 -0.2547 -0.0448
 4089TIP3    H133682   0.036   5.796   4.341  1.0406 -0.6122  1.0971
 4089TIP3    H233683   0.100   5.898   4.433  1.4806  0.7777 -0.7162
 4090TIP3   OH233684   3.707   3.460   4.185 -0.0213 -0.1849  0.2049
 4090TIP3    H133685   3.730   3.464   4.092  0.9305 -0.5591  0.4212
 4090TIP3    H233686   3.732   3.372   4.213  2.0677  0.7517  1.4088
 4091TIP3   OH233687   4.048   0.759   3.719 -0.0767 -0.1921  0.5340
 4091TIP3    H133688   4.114   0.689   3.724  0.3180  0.0442 -0.9500
 4091TIP3    H233689   4.050   0.800   3.805  0.3491 -1.4236  1.1298
 4092TIP3   OH233690   5.236   3.119  11.423 -0.2365  0.3034 -0.2451
 4092TIP3    H133691   5.293   3.196  11.417 -0.4189  0.6049  1.6933
 4092TIP3    H233692   5.176   3.138  11.496 -0.4125 -1.5813  0.1362
 4093TIP3   OH233693   3.071   6.168  16.998  0.3055  0.1430 -0.0326
 4093TIP3    H133694   3.024   6.125  16.927 -2.8672  3.6572 -0.2215
 4093TIP3    H233695   3.051   6.116  17.076  0.7016 -1.5622 -1.0487
 4094TIP3   OH233696   2.053   2.810  11.205  0.0331 -0.4072  0.3481
 4094TIP3    H133697   2.012   2.727  11.229  0.3919 -0.1967  1.7582
 4094TIP3    H233698   2.126   2.786  11.149  0.6193 -1.1163  1.3923
 4095TIP3   OH233699   2.134   1.416  15.538  0.0330  0.0929  0.0873
 4095TIP3    H133700   2.099   1.404  15.450  3.1470 -0.4137 -1.1542
 4095TIP3    H233701   2.076   1.480  15.579 -1.5731  0.1735 -2.2525
 4096TIP3   OH233702   1.784   0.628  15.821  0.4311 -0.2140  0.1658
 4096TIP3    H133703   1.768   0.540  15.786 -0.9212 -0.0886  0.4313
 4096TIP3    H233704   1.832   0.672  15.751  0.3983 -0.9068 -0.3060
 4097TIP3   OH233705   4.680   3.527  16.333 -0.7621 -0.5977  0.1572
 4097TIP3    H133706   4.715   3.462  16.272  0.3006 -1.2041  1.3895
 4097TIP3    H233707   4.691   3.610  16.288 -0.4408 -1.0861 -0.6863
 4098TIP3   OH233708   4.322   0.730   2.879  0.4041 -0.6112 -0.0665
 4098TIP3    H133709   4.298   0.637   2.875  0.3188 -0.6411  1.0918
 4098TIP3    H233710   4.398   0.733   2.937  0.4997  0.0334 -0.2217
 4099TIP3   OH233711   4.253   0.075   2.747  0.3109 -0.3369 -0.2059
 4099TIP3    H133712   4.246   0.128   2.827 -1.3696  1.0015 -1.1913
 4099TIP3    H233713   4.305  -0.001   2.773  1.5028  1.0590  1.6382
 4100TIP3   OH233714   2.498   2.513   0.290  0.3013  0.3504 -0.2913
 4100TIP3    H133715   2.555   2.455   0.340 -2.2426 -1.2057  0.8952
 4100TIP3    H233716   2.451   2.563   0.356 -0.7069  0.6426 -1.2256
 4101TIP3   OH233717   4.087   1.399   4.332  0.4349 -0.4207 -0.1097
 4101TIP3    H133718   3.996   1.371   4.332 -0.3169  1.9069 -0.5505
 4101TIP3    H233719   4.093   1.461   4.259  2.3152 -0.4009  0.0348
 4102TIP3   OH233720   6.709   3.581   1.639  0.8746  0.5340  0.5355
 4102TIP3    H133721   6.645   3.633   1.689  0.1424 -0.0594  0.2315
 4102TIP3    H233722   6.792   3.597   1.683  0.5916  1.6351  0.7028
 4103TIP3   OH233723   4.279   3.718  12.884 -0.7737 -0.1153  0.5008
 4103TIP3    H133724   4.328   3.788  12.843  0.3607 -0.0759  1.8953
 4103TIP3    H233725   4.187   3.736  12.862 -0.2512  0.3200 -1.3277
 4104TIP3   OH233726   6.696   2.064  10.938 -0.0292 -0.5102 -0.4854
 4104TIP3    H133727   6.707   2.109  11.021 -0.8455 -0.3430 -0.4694
 4104TIP3    H233728   6.782   2.024  10.921  1.2774  2.5189 -1.3808
 4105TIP3   OH233729   4.677   3.380  13.313 -0.0632  0.8478 -0.0537
 4105TIP3    H133730   4.656   3.411  13.225  0.7277  1.5355 -0.0074
 4105TIP3    H233731   4.661   3.456  13.370 -1.4300  0.1481  0.5237
 4106TIP3   OH233732   4.429   3.928  12.801  0.1651  0.2584  0.2108
 4106TIP3    H133733   4.497   3.990  12.828 -1.0869  1.9204 -0.3783
 4106TIP3    H233734   4.443   3.918  12.706 -0.2489  0.4221  0.1317
 4107TIP3   OH233735   2.225   2.606  12.221  0.4035  0.2313 -0.3284
 4107TIP3    H133736   2.189   2.686  12.184  0.9455  0.3147 -0.6771
 4107TIP3    H233737   2.259   2.557  12.146  1.6474  0.4734  0.0699
 4108TIP3   OH233738   4.180   5.605   5.276  0.0694  0.2425 -0.0711
 4108TIP3    H133739   4.143   5.656   5.204 -1.1474 -1.1121 -0.4356
 4108TIP3    H233740   4.187   5.516   5.241  1.8974  0.0860  0.6469
 4109TIP3   OH233741   2.168   6.278  16.991 -0.1778  0.3865  0.1052
 4109TIP3    H133742   2.202   6.351  17.042 -1.6672  1.3290 -0.1993
 4109TIP3    H233743   2.080   6.263  17.026  0.2210 -1.4536  0.3490
 4110TIP3   OH233744   2.858   1.938  17.168 -0.2538 -0.4151 -0.0629
 4110TIP3    H133745   2.892   1.888  17.093 -0.1725 -0.2036 -0.1693
 4110TIP3    H233746   2.880   1.884  17.244 -0.4371 -0.6862 -0.2011
 4111TIP3   OH233747   1.081   2.462   1.699 -0.1712  0.4756 -0.4474
 4111TIP3    H133748   1.031   2.389   1.737  0.8158  0.8818  1.7272
 4111TIP3    H233749   1.161   2.421   1.665 -0.7960  0.1847 -1.5633
 4112TIP3   OH233750   5.287   4.644   4.554 -0.0149 -0.0217  0.1479
 4112TIP3    H133751   5.241   4.656   4.637  1.1442 -1.4129  0.9987
 4112TIP3    H233752   5.219   4.659   4.488 -1.3868 -0.6458  1.3657
 4113TIP3   OH233753   4.938   6.526   4.277 -0.1148 -0.2221 -0.2928
 4113TIP3    H133754   5.030   6.502   4.290 -0.7784 -1.7779  1.7081
 4113TIP3    H233755   4.935   6.558   4.187  3.0417  3.1008  0.6454
 4114TIP3   OH233756   2.765   3.042   5.082  0.0099 -0.7708 -0.1974
 4114TIP3    H133757   2.800   2.970   5.135  0.2731  0.7554  1.7543
 4114TIP3    H233758   2.689   3.073   5.130  0.7397  1.1891 -0.2614
 4115TIP3   OH233759   6.589   5.627  14.337  0.2613  0.8843 -0.3054
 4115TIP3    H133760   6.601   5.536  14.311 -0.2600  0.2854  1.5075
 4115TIP3    H233761   6.677   5.664  14.334  0.4625  0.3431 -1.1474
 4116TIP3   OH233762   5.651   5.616  12.271 -0.0064 -0.5750  0.4231
 4116TIP3    H133763   5.734   5.647  12.234  1.2921 -0.6466  3.1391
 4116TIP3    H233764   5.677   5.543  12.328 -2.0064 -0.9757  0.8346
 4117TIP3   OH233765   5.891   5.909  12.253 -0.1136 -0.1362 -0.3687
 4117TIP3    H133766   5.801   5.916  12.222 -0.3357  0.7516  0.4633
 4117TIP3    H233767   5.887   5.848  12.326 -0.1914  0.6351  0.2687
 4118TIP3   OH233768   3.569   2.120  16.691  0.5729 -0.3112 -0.1188
 4118TIP3    H133769   3.541   2.124  16.599 -0.6665 -0.2653  0.2473
 4118TIP3    H233770   3.565   2.027  16.713  1.0788 -0.3463 -0.1694
 4119TIP3   OH233771   1.580   1.273  15.665  0.1947  0.1835 -0.2148
 4119TIP3    H133772   1.652   1.263  15.727  0.0311 -0.1282 -0.0722
 4119TIP3    H233773   1.515   1.208  15.693 -0.0631  0.3353 -0.4522
 4120TIP3   OH233774   5.489   5.236  14.301  0.0293 -0.4654  0.2995
 4120TIP3    H133775   5.491   5.143  14.278  0.6008 -0.6200  0.9567
 4120TIP3    H233776   5.422   5.242  14.369 -0.5051 -0.2763 -0.2362
 4121TIP3   OH233777   4.157   0.173  13.226 -0.2148  0.0474 -0.6645
 4121TIP3    H133778   4.205   0.092  13.206 -0.0443  0.4949 -2.0820
 4121TIP3    H233779   4.076   0.142  13.268 -1.6056 -1.0496 -4.0215
 4122TIP3   OH233780   0.625   1.076   1.850 -0.0216  0.6225  0.0307
 4122TIP3    H133781   0.597   1.102   1.762  0.2143 -0.1105 -0.2619
 4122TIP3    H233782   0.566   1.003   1.872  1.3911 -0.6883 -0.4364
 4123TIP3   OH233783   3.208   6.128   3.056 -0.3902 -0.1510  0.3521
 4123TIP3    H133784   3.141   6.064   3.078  1.3537 -2.2774 -0.3529
 4123TIP3    H233785   3.256   6.089   2.983  0.1212  2.4005 -0.7505
 4124TIP3   OH233786   6.787   6.223  12.241 -0.0461 -0.6706 -0.3791
 4124TIP3    H133787   6.733   6.144  12.243 -1.3858  0.2439  2.0177
 4124TIP3    H233788   6.854   6.208  12.307  0.9378 -0.6399 -1.3686
 4125TIP3   OH233789   2.525   2.774   4.290  0.2607  0.3787  0.3827
 4125TIP3    H133790   2.559   2.694   4.250 -1.0079  0.1638 -0.2903
 4125TIP3    H233791   2.479   2.818   4.219 -2.2086 -0.1169  1.6419
 4126TIP3   OH233792   3.474   3.634  12.274 -0.8289 -0.2652  0.2448
 4126TIP3    H133793   3.513   3.719  12.255  1.0953 -1.0955  0.2949
 4126TIP3    H233794   3.380   3.651  12.281 -0.4991  1.7882 -0.0201
 4127TIP3   OH233795   3.170   5.116  14.883  0.4951  0.3263  0.0900
 4127TIP3    H133796   3.154   5.180  14.814  1.0539 -1.4320 -1.7071
 4127TIP3    H233797   3.246   5.066  14.853  0.4876 -0.7525  1.7774
 4128TIP3   OH233798   1.073   0.822  11.113 -0.2748  0.3539  0.4902
 4128TIP3    H133799   1.094   0.782  11.029  0.5800 -0.3198  1.0245
 4128TIP3    H233800   1.127   0.901  11.115  0.8441 -0.4223  1.0659
 4129TIP3   OH233801   0.379   5.817   2.352 -0.3205 -0.5626 -0.0419
 4129TIP3    H133802   0.320   5.742   2.344  0.8996 -1.5575  0.0344
 4129TIP3    H233803   0.460   5.788   2.310  0.6705  0.1656  1.3167
 4130TIP3   OH233804   5.205   5.735   2.755  0.2037  0.2630 -0.2582
 4130TIP3    H133805   5.207   5.738   2.660  1.1039 -0.7810 -0.2916
 4130TIP3    H233806   5.143   5.803   2.781 -0.4886  0.1507 -1.6068
 4131TIP3   OH233807   4.060   0.852   0.709  0.4579 -0.5337  0.1341
 4131TIP3    H133808   4.081   0.883   0.797  0.3536  0.9142 -0.3269
 4131TIP3    H233809   4.123   0.896   0.652  1.2179 -2.2927 -0.4224
 4132TIP3   OH233810   2.266   4.079  15.148  0.0822 -0.3547  1.1217
 4132TIP3    H133811   2.193   4.093  15.088 -1.6832 -2.0541  2.7929
 4132TIP3    H233812   2.321   4.014  15.104 -1.3392 -1.7892  1.3885
 4133TIP3   OH233813   0.690   3.537   3.474 -0.1504  0.0521 -0.0617
 4133TIP3    H133814   0.627   3.535   3.547  0.5072  1.7323  0.5710
 4133TIP3    H233815   0.665   3.462   3.420 -1.9557 -0.0207  0.8056
 4134TIP3   OH233816   2.859   1.807  12.677  0.2913 -0.3337 -0.0069
 4134TIP3    H133817   2.844   1.887  12.627 -0.8345 -0.2765  0.3965
 4134TIP3    H233818   2.877   1.838  12.766 -1.2657 -0.5533  0.4018
 4135TIP3   OH233819   5.952   3.203   2.267 -0.4390 -0.4193  0.0438
 4135TIP3    H133820   6.002   3.127   2.298  0.0057  0.4204  1.4132
 4135TIP3    H233821   5.912   3.239   2.346  0.2718  1.4417 -0.4211
 4136TIP3   OH233822   3.767   4.173  11.607  0.4012 -0.1884  0.4804
 4136TIP3    H133823   3.702   4.149  11.675 -0.5891 -0.7983 -0.6601
 4136TIP3    H233824   3.823   4.095  11.600  1.2171  0.3001  1.3920
 4137TIP3   OH233825   3.263   3.495   1.002  0.0949  0.2147 -0.5370
 4137TIP3    H133826   3.201   3.543   0.947  2.9294  1.3754 -2.8811
 4137TIP3    H233827   3.279   3.413   0.955  1.5694  0.6590 -0.8475
 4138TIP3   OH233828   0.026   1.857  12.509 -0.1606 -0.4089 -0.2204
 4138TIP3    H133829  -0.065   1.882  12.525 -0.1545 -0.1123 -0.6562
 4138TIP3    H233830   0.073   1.940  12.499  0.1952 -0.5574  0.2004
 4139TIP3   OH233831   4.854   1.129   2.853 -0.5619  0.2952  0.5099
 4139TIP3    H133832   4.761   1.124   2.834 -0.5545 -2.9741  0.9690
 4139TIP3    H233833   4.859   1.135   2.949 -0.3221 -2.3118  0.7081
 4140TIP3   OH233834   4.907   1.639  15.427 -0.1457  1.3499  0.4860
 4140TIP3    H133835   4.856   1.636  15.346  1.1778 -0.4884 -0.3206
 4140TIP3    H233836   4.997   1.622  15.398  0.0666 -1.2724  2.5807
 4141TIP3   OH233837   3.655   1.720  16.976 -0.4431  0.3656 -0.0635
 4141TIP3    H133838   3.653   1.802  17.025 -4.0163  0.5511 -0.4390
 4141TIP3    H233839   3.722   1.735  16.909 -1.1845  3.0607 -0.2776
 4142TIP3   OH233840   0.551   5.952   4.388 -0.3515 -0.3568 -0.0180
 4142TIP3    H133841   0.564   6.021   4.322 -0.1496 -1.3793 -1.0675
 4142TIP3    H233842   0.492   5.890   4.346  1.8869 -2.3884 -0.3081
 4143TIP3   OH233843   5.353   1.484  11.804 -0.5509  0.4609 -0.9448
 4143TIP3    H133844   5.331   1.544  11.875 -0.3704  0.3295 -0.7738
 4143TIP3    H233845   5.421   1.529  11.754 -0.9666  0.7230 -1.2709
 4144TIP3   OH233846   3.395   2.977   1.521 -0.8782  0.3710  0.3609
 4144TIP3    H133847   3.314   3.003   1.477 -0.7921  0.5641  0.3186
 4144TIP3    H233848   3.413   2.889   1.488 -2.4318 -0.7222  2.2406
 4145TIP3   OH233849   2.546   5.077  16.086 -0.3053  0.0114 -0.8693
 4145TIP3    H133850   2.563   5.133  16.162  0.7909 -0.1997 -0.9525
 4145TIP3    H233851   2.576   4.990  16.112  0.4262  0.0169 -1.6816
 4146TIP3   OH233852   3.674   5.324  15.896  0.2551 -0.1580 -0.7475
 4146TIP3    H133853   3.707   5.236  15.882  0.0095 -0.5402  0.9736
 4146TIP3    H233854   3.581   5.318  15.876 -0.3712 -1.0231  2.1712
 4147TIP3   OH233855   6.538   3.382   5.685  0.4049  0.0741  0.6712
 4147TIP3    H133856   6.622   3.340   5.671  1.3939  1.3205  2.7563
 4147TIP3    H233857   6.559   3.473   5.705 -1.4837  0.5855  0.5108
 4148TIP3   OH233858   2.482   1.180   0.608  0.3449 -0.2352  0.0284
 4148TIP3    H133859   2.537   1.210   0.680 -0.5743  0.2554  0.5412
 4148TIP3    H233860   2.492   1.084   0.608 -0.7831 -0.3737  1.7547
 4149TIP3   OH233861   3.437   0.463  13.053 -0.3928 -0.7583  0.4429
 4149TIP3    H133862   3.356   0.480  13.004  1.2861  1.2425 -1.7811
 4149TIP3    H233863   3.485   0.402  12.997  0.7003  0.0150  0.5305
 4150TIP3   OH233864   2.219   3.618  17.205 -0.2469  0.4343 -0.1515
 4150TIP3    H133865   2.157   3.566  17.256 -0.2499  1.4012  0.8442
 4150TIP3    H233866   2.299   3.565  17.203 -0.5871 -0.0823 -0.0330
 4151TIP3   OH233867   3.999   3.752  12.772  0.5506 -0.5710  0.2154
 4151TIP3    H133868   4.027   3.692  12.703  0.2418  0.3876 -0.7560
 4151TIP3    H233869   3.995   3.838  12.729  0.2086  0.0055  1.3852
 4152TIP3   OH233870   5.985   2.615   4.396  0.3772  0.2012  0.3430
 4152TIP3    H133871   6.029   2.688   4.440  3.6235 -1.5888  0.1694
 4152TIP3    H233872   5.986   2.544   4.460 -0.8761 -0.3797 -0.2599
 4153TIP3   OH233873   4.690   4.357   1.263  0.2270  0.0465 -0.2091
 4153TIP3    H133874   4.722   4.269   1.243 -0.0159 -0.0579 -0.1381
 4153TIP3    H233875   4.610   4.342   1.314  0.9847  0.2961  1.0807
 4154TIP3   OH233876   1.139   5.424   2.142 -0.0744  0.6532  0.0944
 4154TIP3    H133877   1.046   5.432   2.165  0.0083 -0.2658  0.7546
 4154TIP3    H233878   1.157   5.330   2.146  0.3547  0.6176 -2.1908
 4155TIP3   OH233879   6.083   4.471  15.732  0.0476  0.1466 -0.4998
 4155TIP3    H133880   6.000   4.428  15.713 -1.8516  2.6224  1.7940
 4155TIP3    H233881   6.119   4.422  15.806 -1.3053  1.4607  1.0431
 4156TIP3   OH233882   5.369   1.954  11.070 -0.2212  0.3266  0.0537
 4156TIP3    H133883   5.430   2.028  11.070  2.8604 -2.0927  0.7032
 4156TIP3    H233884   5.389   1.907  10.989 -1.1405 -0.5842  0.3417
 4157TIP3   OH233885   3.277   2.008  14.767  0.2334 -0.4704 -0.3563
 4157TIP3    H133886   3.275   2.103  14.781  0.9190 -0.3805 -0.8186
 4157TIP3    H233887   3.313   1.998  14.678  1.8603 -1.2098  0.3652
 4158TIP3   OH233888   5.796   6.369   5.340 -0.0702 -0.3260  0.0580
 4158TIP3    H133889   5.743   6.409   5.270  1.7006  0.0530 -1.0984
 4158TIP3    H233890   5.770   6.417   5.419 -1.0474  0.2367 -0.5818
 4159TIP3   OH233891   0.989   0.178   2.131  0.2579 -0.3224  0.0882
 4159TIP3    H133892   1.024   0.089   2.133  2.4366  0.5299  1.7566
 4159TIP3    H233893   0.963   0.195   2.222 -0.3201  0.6864 -0.2600
 4160TIP3   OH233894   2.025   2.811   2.206 -0.3157  0.0712 -1.1140
 4160TIP3    H133895   1.932   2.792   2.213 -0.0306 -1.9291 -2.0554
 4160TIP3    H233896   2.068   2.733   2.243  0.9944  1.7092  0.9153
 4161TIP3   OH233897   5.796   6.609   4.528 -0.4356  0.1136  0.0474
 4161TIP3    H133898   5.777   6.579   4.616  0.3549  0.5205  0.3611
 4161TIP3    H233899   5.764   6.699   4.525 -1.3964 -0.2273 -0.4120
 4162TIP3   OH233900   4.861   1.010  12.233 -0.0277 -0.3801  0.2219
 4162TIP3    H133901   4.790   0.962  12.276  0.3117  0.3004  1.5649
 4162TIP3    H233902   4.872   0.966  12.149 -2.1677 -0.3732 -0.0748
 4163TIP3   OH233903   1.555   6.634  10.575 -0.8649  0.0219 -0.4994
 4163TIP3    H133904   1.568   6.718  10.618  1.4971 -0.6139  0.1145
 4163TIP3    H233905   1.618   6.634  10.502 -1.2297 -0.9903 -0.8340
 4164TIP3   OH233906   1.295   0.549  16.381 -0.3137 -0.4212  0.1867
 4164TIP3    H133907   1.251   0.514  16.303 -1.2964 -0.2390  0.6580
 4164TIP3    H233908   1.364   0.484  16.400 -0.6469 -0.9268 -0.3002
 4165TIP3   OH233909   0.636   2.966  15.003 -0.0703 -0.1638  0.2911
 4165TIP3    H133910   0.637   3.046  14.950  1.0954  0.8464  1.7904
 4165TIP3    H233911   0.544   2.950  15.019 -0.5104 -0.9105 -2.6207
 4166TIP3   OH233912   5.522   0.482   2.942  0.2820 -0.2334  0.0822
 4166TIP3    H133913   5.507   0.458   2.851 -0.7800 -0.8561  0.4154
 4166TIP3    H233914   5.613   0.460   2.959  0.2556 -0.8542 -0.5988
 4167TIP3   OH233915   1.971   3.245   5.824  0.0943 -0.4047  0.1979
 4167TIP3    H133916   1.918   3.273   5.898 -0.5607  0.7522 -0.6885
 4167TIP3    H233917   2.005   3.159   5.849  2.5146  1.3042  3.1902
 4168TIP3   OH233918   6.333   0.781   2.487 -0.1645  0.6256  0.1715
 4168TIP3    H133919   6.349   0.706   2.429 -0.2178  0.3859  0.4618
 4168TIP3    H233920   6.239   0.780   2.502 -0.0404  0.1584  0.9601
 4169TIP3   OH233921   3.199   2.029   5.117 -0.7314 -0.5122  0.2587
 4169TIP3    H133922   3.199   2.118   5.152 -1.5014  0.4753 -2.1697
 4169TIP3    H233923   3.281   2.022   5.067 -1.8308 -0.3083 -1.6073
 4170TIP3   OH233924   2.086   3.847   0.658 -0.2310  0.2933  0.0235
 4170TIP3    H133925   2.055   3.761   0.686  1.6324 -0.1197  0.9337
 4170TIP3    H233926   2.021   3.909   0.691 -0.1520 -0.5511  1.8003
 4171TIP3   OH233927   2.262   4.575  14.142  0.4224  0.2780  0.0921
 4171TIP3    H133928   2.300   4.656  14.106 -0.8015  1.1054  0.6456
 4171TIP3    H233929   2.169   4.594  14.151  0.1546 -1.1425  0.4127
 4172TIP3   OH233930   6.244   4.225  12.504  0.3545  0.4139  0.0714
 4172TIP3    H133931   6.162   4.251  12.547  0.4155 -0.2339  0.5877
 4172TIP3    H233932   6.313   4.264  12.558  0.4213 -0.0549  0.3215
 4173TIP3   OH233933   6.590   6.068   0.809 -0.0425  0.0526 -0.2345
 4173TIP3    H133934   6.535   6.095   0.883  0.6753  1.5519 -0.2260
 4173TIP3    H233935   6.527   6.037   0.743 -0.7487 -0.3163  0.6010
 4174TIP3   OH233936   2.376   6.203  12.434 -0.7771  0.3173 -0.0616
 4174TIP3    H133937   2.294   6.161  12.461 -0.4902  0.2792  0.7505
 4174TIP3    H233938   2.349   6.267  12.368 -1.5329  0.7216  0.6400
 4175TIP3   OH233939   0.315   5.784   3.108 -0.7230  0.3506 -0.6375
 4175TIP3    H133940   0.310   5.796   3.203 -1.2184 -0.3676 -0.5666
 4175TIP3    H233941   0.247   5.842   3.073 -0.7282  0.4068 -0.5351
 4176TIP3   OH233942   6.147   2.510  15.641 -0.3166  0.7874  0.4097
 4176TIP3    H133943   6.221   2.542  15.692 -0.5715 -0.2217  1.4108
 4176TIP3    H233944   6.177   2.516  15.550  1.7095 -1.3958  0.8781
 4177TIP3   OH233945   3.487   3.963  14.797 -0.4285  0.0193 -0.1915
 4177TIP3    H133946   3.409   4.000  14.838  0.1650  1.7470 -0.6087
 4177TIP3    H233947   3.545   3.942  14.871 -1.3194 -1.3948  0.1281
 4178TIP3   OH233948   4.547   0.345  15.927 -0.4449  0.0249  0.0600
 4178TIP3    H133949   4.515   0.323  15.840 -1.4748  0.2001  0.3880
 4178TIP3    H233950   4.476   0.395  15.967  0.6616  1.3024  0.4348
 4179TIP3   OH233951   5.487   5.395  12.367  0.1838 -0.0065 -0.6960
 4179TIP3    H133952   5.579   5.400  12.392  0.4752 -1.0330 -1.5464
 4179TIP3    H233953   5.440   5.425  12.445  1.1796 -0.9215  0.2787
 4180TIP3   OH233954   1.428   2.366  17.227  0.5382 -0.6406  0.5607
 4180TIP3    H133955   1.409   2.439  17.168  1.1984  0.3559  1.5549
 4180TIP3    H233956   1.397   2.396  17.312 -0.6292 -2.1641  0.6876
 4181TIP3   OH233957   2.082   5.345  10.731 -0.0331 -0.1197  0.3376
 4181TIP3    H133958   2.140   5.277  10.765 -0.4125 -1.7363 -2.1530
 4181TIP3    H233959   1.994   5.309  10.743 -0.2140 -0.2616 -1.3748
 4182TIP3   OH233960   6.013   2.208  13.121  0.3227  0.1563 -0.4183
 4182TIP3    H133961   5.985   2.296  13.146  1.2021  0.5917 -0.9135
 4182TIP3    H233962   6.099   2.198  13.163 -0.7859 -1.3731  1.5819
 4183TIP3   OH233963   0.653   3.837  13.019  0.6123  0.7063 -0.5651
 4183TIP3    H133964   0.694   3.840  12.932  1.8330  1.9786  0.0509
 4183TIP3    H233965   0.724   3.812  13.078 -0.4096 -1.0130 -0.0214
 4184TIP3   OH233966   2.047   4.494  12.720  0.0289 -0.1131 -0.6851
 4184TIP3    H133967   2.018   4.408  12.748  1.2514 -0.3670 -0.1852
 4184TIP3    H233968   1.966   4.545  12.712 -0.6572 -1.1668 -0.5517
 4185TIP3   OH233969   4.966   2.078   3.254 -0.2283  0.4419 -0.6248
 4185TIP3    H133970   4.914   1.998   3.243 -1.1757  0.8970  0.4841
 4185TIP3    H233971   4.903   2.149   3.247  0.3544  1.0327  0.0570
 4186TIP3   OH233972   3.979   5.085  13.010 -0.4058  0.0770  1.0544
 4186TIP3    H133973   4.059   5.121  13.048  0.0028 -0.1878  0.4577
 4186TIP3    H233974   3.911   5.149  13.031  0.1617  0.8035  0.6685
 4187TIP3   OH233975   2.459   2.027   1.505  0.4094  0.4577  0.1735
 4187TIP3    H133976   2.469   2.077   1.424 -0.2742 -0.5286 -0.5297
 4187TIP3    H233977   2.486   2.087   1.574  0.3656  1.5211 -0.7289
 4188TIP3   OH233978   2.967   5.957  11.376 -0.0877 -0.4691 -0.4214
 4188TIP3    H133979   2.999   5.965  11.465  0.9689  0.7820 -0.8986
 4188TIP3    H233980   2.934   6.044  11.354  0.7039 -0.4567 -1.6266
 4189TIP3   OH233981   2.229   3.484   0.299 -0.8755 -0.4192 -0.4252
 4189TIP3    H133982   2.164   3.479   0.229  0.7995  2.1101 -2.2434
 4189TIP3    H233983   2.212   3.568   0.343  0.1577 -0.4604  0.0908
 4190TIP3   OH233984   3.590   0.097   4.861  0.4257  0.1317  0.3050
 4190TIP3    H133985   3.628   0.180   4.832  2.0071 -0.8361 -0.4315
 4190TIP3    H233986   3.650   0.065   4.928 -0.6935  0.0398  1.2751
 4191TIP3   OH233987   3.169   6.399   2.656 -0.2520 -0.3083 -0.4754
 4191TIP3    H133988   3.090   6.374   2.704 -0.6993  1.2754 -0.3552
 4191TIP3    H233989   3.232   6.329   2.674 -0.7539 -0.2488  1.5670
 4192TIP3   OH233990   1.352   2.106   1.325  0.3057 -0.4166 -0.1988
 4192TIP3    H133991   1.308   2.051   1.389 -0.9993  1.1277  0.2541
 4192TIP3    H233992   1.315   2.080   1.241  0.3325 -0.8322 -0.0830
 4193TIP3   OH233993   1.148   5.430   4.076  0.2288  0.1173 -0.2491
 4193TIP3    H133994   1.238   5.438   4.110  0.0517  0.7431  0.0767
 4193TIP3    H233995   1.153   5.358   4.013  0.5264 -1.1593  1.2168
 4194TIP3   OH233996   0.509   6.236  11.179 -0.2086 -0.4101 -0.3973
 4194TIP3    H133997   0.415   6.242  11.165  0.2859  1.3918 -3.3112
 4194TIP3    H233998   0.543   6.195  11.100  1.7630  1.7452 -0.7113
 4195TIP3   OH233999   4.685   3.409   5.637 -0.4087 -0.2243  0.0502
 4195TIP3    H134000   4.674   3.439   5.728 -1.7675  0.5091 -0.3537
 4195TIP3    H234001   4.760   3.350   5.641 -1.2803 -1.2443  1.9113
 4196TIP3   OH234002   6.242   2.321   5.887 -0.3689 -0.4113  0.2688
 4196TIP3    H134003   6.176   2.326   5.818  0.0024  0.3555 -0.0442
 4196TIP3    H234004   6.192   2.313   5.968 -0.9399  1.9823  0.2091
 4197TIP3   OH234005   0.809   5.598  12.840 -0.1009 -0.4001  0.2134
 4197TIP3    H134006   0.854   5.676  12.873 -0.1986 -0.5852  0.7883
 4197TIP3    H234007   0.726   5.631  12.805  0.6080 -0.0122 -1.1471
 4198TIP3   OH234008   1.621   1.304   1.614  0.3159  0.2551  0.0895
 4198TIP3    H134009   1.598   1.387   1.656  0.9744 -0.4034  1.7723
 4198TIP3    H234010   1.674   1.258   1.679 -1.9718 -2.5000  0.0561
 4199TIP3   OH234011   4.817   0.931  13.457 -0.0153 -0.3711  0.3546
 4199TIP3    H134012   4.836   1.022  13.479 -1.3040 -0.1051  0.3790
 4199TIP3    H234013   4.876   0.911  13.384  0.4295  0.4082  0.4966
 4200TIP3   OH234014   5.520   2.784  13.423 -1.2082 -0.2111  0.1317
 4200TIP3    H134015   5.600   2.814  13.466 -2.5168  1.1498  1.6516
 4200TIP3    H234016   5.492   2.709  13.474 -1.8249  0.3599  0.6429
 4201TIP3   OH234017   1.731   3.034  10.732  0.4891  0.2601 -0.5446
 4201TIP3    H134018   1.680   2.962  10.696  0.3845 -0.2453  0.6052
 4201TIP3    H234019   1.675   3.111  10.720 -0.7393 -0.3429  1.0204
 4202TIP3   OH234020   0.573   2.376   1.167 -0.4494 -0.3573 -0.6068
 4202TIP3    H134021   0.617   2.409   1.245  0.7106 -1.1086 -0.9387
 4202TIP3    H234022   0.485   2.353   1.198 -0.3527  0.3770  0.2353
 4203TIP3   OH234023   5.162   5.432  12.331  0.0540  0.4903 -0.5639
 4203TIP3    H134024   5.202   5.519  12.338  1.6211 -0.2947  0.6006
 4203TIP3    H234025   5.167   5.410  12.238 -0.0643  1.5067 -0.8189
 4204TIP3   OH234026   3.531   5.134  16.941 -0.4528  0.4644 -0.0745
 4204TIP3    H134027   3.575   5.161  16.860 -1.5290  1.8738 -0.2083
 4204TIP3    H234028   3.602   5.099  16.995  0.1825 -1.1952 -1.8808
 4205TIP3   OH234029   5.940   5.648   4.937 -0.3969 -0.1125  0.0161
 4205TIP3    H134030   5.929   5.724   4.995 -0.3332 -0.6900  0.7896
 4205TIP3    H234031   5.884   5.667   4.862  1.1184  1.6231 -0.7261
 4206TIP3   OH234032   5.936   1.210  13.968  0.1962  0.0230 -0.1688
 4206TIP3    H134033   5.846   1.183  13.950  0.4034 -0.4488 -0.4974
 4206TIP3    H234034   5.982   1.129  13.990  0.3097  0.3880  0.9833
 4207TIP3   OH234035   3.515   6.158   3.693 -0.2647  0.1838 -0.6231
 4207TIP3    H134036   3.489   6.226   3.631  0.5293  0.0242 -1.1436
 4207TIP3    H234037   3.480   6.077   3.657  2.0848 -0.2334 -2.0592
 4208TIP3   OH234038   1.489   5.167   3.025 -0.1550  0.3930 -0.2488
 4208TIP3    H134039   1.578   5.176   2.990 -0.2433  1.5508 -0.1986
 4208TIP3    H234040   1.499   5.179   3.119 -0.4165  0.9724 -0.2907
 4209TIP3   OH234041   6.053   4.281  14.550 -0.2354 -0.8901  0.0034
 4209TIP3    H134042   6.049   4.263  14.644  0.0281  0.6165  0.3154
 4209TIP3    H234043   5.969   4.323  14.530  0.1811 -0.1542 -0.2032
 4210TIP3   OH234044   6.512   3.495  10.499  0.0807 -0.2470 -0.7676
 4210TIP3    H134045   6.492   3.499  10.592  1.8837  1.1261 -0.4052
 4210TIP3    H234046   6.595   3.447  10.494  0.4356  0.4238 -1.5604
 4211TIP3   OH234047   2.544   2.683   0.671 -0.3233  0.0583  0.5846
 4211TIP3    H134048   2.596   2.656   0.747  0.5126  1.5057  0.5411
 4211TIP3    H234049   2.471   2.732   0.709 -1.0925 -1.0651  0.5779
 4212TIP3   OH234050   1.751   3.830  13.609 -0.2702  0.1072  0.2213
 4212TIP3    H134051   1.788   3.743  13.621 -0.1271  0.2435  0.7743
 4212TIP3    H234052   1.687   3.839  13.680 -2.8198 -0.8965 -1.8865
 4213TIP3   OH234053   0.874   1.613  14.618 -0.0485 -0.6639 -0.1835
 4213TIP3    H134054   0.870   1.608  14.522 -1.1334  1.4510 -0.2669
 4213TIP3    H234055   0.786   1.587  14.646 -0.7395  1.8561  0.0737
 4214TIP3   OH234056   1.730   2.251   0.519  0.1403  0.5788 -0.3990
 4214TIP3    H134057   1.747   2.310   0.445  0.5194  0.8183 -0.1262
 4214TIP3    H234058   1.671   2.184   0.483 -0.9992  1.6082 -0.4724
 4215TIP3   OH234059   1.204   5.255  13.559 -0.1429 -0.1829  0.4521
 4215TIP3    H134060   1.168   5.167  13.546  1.5832 -0.5693 -2.1224
 4215TIP3    H234061   1.152   5.311  13.502 -0.3331  0.2323  1.0319
 4216TIP3   OH234062   4.468   2.810   5.832 -0.5815  0.3281 -0.3840
 4216TIP3    H134063   4.509   2.857   5.759  0.2703 -1.3813 -1.0439
 4216TIP3    H234064   4.400   2.757   5.790  1.5639 -2.6067 -0.3717
 4217TIP3   OH234065   2.933   2.926  16.861  0.1282 -0.0148  0.2349
 4217TIP3    H134066   2.918   2.906  16.769 -1.3126  0.6040  0.3332
 4217TIP3    H234067   2.847   2.921  16.902  0.7920 -0.6008  1.6237
 4218TIP3   OH234068   2.349   1.351  11.678  0.0312  0.0582 -0.4255
 4218TIP3    H134069   2.260   1.369  11.709 -0.1521 -0.9875 -0.3057
 4218TIP3    H234070   2.372   1.427  11.625 -0.5109  0.8458  0.4479
 4219TIP3   OH234071   2.312   4.948   0.844  0.1180  0.6175 -0.4662
 4219TIP3    H134072   2.239   4.936   0.904  0.3439 -0.3811 -0.3814
 4219TIP3    H234073   2.310   4.870   0.788  2.8854 -0.8741  1.4249
 4220TIP3   OH234074   1.807   1.829   4.890 -0.0680  0.0837  0.3123
 4220TIP3    H134075   1.838   1.773   4.962 -2.5084 -0.1587  1.2086
 4220TIP3    H234076   1.803   1.771   4.814  1.1855  0.0105  0.2844
 4221TIP3   OH234077   2.650   1.563   4.954  0.5944 -0.3129  0.0832
 4221TIP3    H134078   2.605   1.529   5.032  0.6139 -2.5192 -0.8402
 4221TIP3    H234079   2.585   1.617   4.910 -0.7490 -2.4057 -0.5368
 4222TIP3   OH234080   3.063   2.750   4.093  0.1707  0.6489 -0.5799
 4222TIP3    H134081   3.097   2.683   4.033  0.0269 -1.7129  1.8684
 4222TIP3    H234082   3.013   2.701   4.158 -0.7212  3.2548  0.7763
 4223TIP3   OH234083   3.510   2.563  17.213  0.2083  0.4366 -0.1193
 4223TIP3    H134084   3.472   2.475  17.203 -0.8098  0.6888  1.4444
 4223TIP3    H234085   3.513   2.597  17.123 -2.0577 -0.0991 -0.4398
 4224TIP3   OH234086   1.721   5.572  14.121  0.4073 -0.2832 -0.7353
 4224TIP3    H134087   1.771   5.504  14.078  1.5680 -0.6045  1.0764
 4224TIP3    H234088   1.664   5.526  14.182  2.6493  0.4394  1.9753
 4225TIP3   OH234089   2.886   5.780   1.987 -0.2545 -0.4582 -0.3581
 4225TIP3    H134090   2.832   5.857   1.974  1.1471  0.7589  0.8736
 4225TIP3    H234091   2.830   5.706   1.963 -2.9062  0.6673  2.1688
 4226TIP3   OH234092   0.129   5.780   1.765 -0.3817 -0.0024 -0.3530
 4226TIP3    H134093   0.128   5.770   1.860 -0.3745 -1.1947 -0.4623
 4226TIP3    H234094   0.148   5.872   1.750  0.3821  0.0404  0.8018
 4227TIP3   OH234095   4.464   3.018   1.617 -0.9751 -0.3207 -0.6048
 4227TIP3    H134096   4.446   2.925   1.599 -0.1652 -0.4526 -0.7332
 4227TIP3    H234097   4.508   3.050   1.538 -0.4336 -0.0605 -0.2006
 4228TIP3   OH234098   1.733   1.024  11.662  0.3585  0.2952  0.0895
 4228TIP3    H134099   1.735   1.024  11.757  0.3065 -1.0417  0.0916
 4228TIP3    H234100   1.692   0.941  11.638  2.6343 -0.4886 -1.1551
 4229TIP3   OH234101   0.464   5.978   5.924  0.5359 -0.5129  0.4158
 4229TIP3    H134102   0.447   6.010   6.013 -1.2120 -1.1301  0.3233
 4229TIP3    H234103   0.403   6.026   5.869 -0.0500 -1.8415 -0.1215
 4230TIP3   OH234104   6.385   0.932   1.867 -0.9539 -0.4256  0.0108
 4230TIP3    H134105   6.363   0.993   1.938 -0.4172 -2.8731  2.3635
 4230TIP3    H234106   6.462   0.970   1.826 -1.5627  1.2799  0.3956
 4231TIP3   OH234107   1.225   6.325   5.135 -0.3805  0.2936  0.8330
 4231TIP3    H134108   1.261   6.325   5.046  1.6060  3.6727  1.5689
 4231TIP3    H234109   1.134   6.353   5.124 -0.3084  0.1286 -0.2028
 4232TIP3   OH234110   0.410   1.376  16.497  0.3223 -0.0694  0.1691
 4232TIP3    H134111   0.377   1.286  16.499  2.5343 -0.9162  0.8405
 4232TIP3    H234112   0.370   1.418  16.572 -0.0851 -0.7475  0.3388
 4233TIP3   OH234113   0.454   0.907  11.109 -0.2855 -0.0144  0.1716
 4233TIP3    H134114   0.506   0.846  11.163  0.9812  0.9114  0.0317
 4233TIP3    H234115   0.398   0.850  11.056  0.6525 -1.0508  0.2640
 4234TIP3   OH234116   1.915   1.405   1.310  0.3305 -0.1005 -0.0695
 4234TIP3    H134117   1.846   1.466   1.283  1.0849  1.2670  0.9856
 4234TIP3    H234118   1.921   1.416   1.405  0.1143 -2.2408  0.2171
 4235TIP3   OH234119   1.132   3.593  14.837 -0.5575  0.6205 -0.4884
 4235TIP3    H134120   1.142   3.526  14.770 -1.7063  1.0254 -1.0635
 4235TIP3    H234121   1.040   3.619  14.832 -0.5101  1.0815  0.8327
 4236TIP3   OH234122   2.027   2.532  11.261  0.1070 -0.7188 -0.5400
 4236TIP3    H134123   2.000   2.520  11.170  2.1460  1.2597 -1.4628
 4236TIP3    H234124   2.112   2.488  11.267  2.3778  3.2966 -1.0360
 4237TIP3   OH234125   3.494   0.876   2.035 -0.7016  0.2066  0.2736
 4237TIP3    H134126   3.504   0.829   2.118 -1.9876  1.2432  1.0373
 4237TIP3    H234127   3.442   0.953   2.057 -1.8999  0.0062 -1.6740
 4238TIP3   OH234128   0.946   2.198   3.128  0.0634 -0.1964  0.2804
 4238TIP3    H134129   0.883   2.128   3.111  1.1085 -1.3957  1.2618
 4238TIP3    H234130   0.916   2.271   3.074 -1.8052 -0.9530  0.2544
 4239TIP3   OH234131   1.880   1.130  10.887  0.0009  0.0780 -0.0878
 4239TIP3    H134132   1.799   1.125  10.938 -1.4898 -0.0839 -2.3830
 4239TIP3    H234133   1.892   1.042  10.853  0.7413  0.2916 -0.3832
 4240TIP3   OH234134   3.057   2.067  11.208 -0.4017  0.3260 -0.1605
 4240TIP3    H134135   3.128   2.128  11.228  0.3478 -0.1352 -1.3637
 4240TIP3    H234136   3.069   1.994  11.268 -1.3711  1.3938  1.3709
 4241TIP3   OH234137   2.496   5.240  13.088 -0.3022  0.1193  0.6058
 4241TIP3    H134138   2.493   5.315  13.147  2.0603  0.7619 -0.0594
 4241TIP3    H234139   2.496   5.278  13.000  2.1746 -0.5655  0.2718
 4242TIP3   OH234140   1.777   6.411  14.304  0.4832  0.5364  0.0530
 4242TIP3    H134141   1.838   6.451  14.242  0.6017 -3.2146 -2.4757
 4242TIP3    H234142   1.791   6.317  14.292 -4.2089 -0.3713  1.0338
 4243TIP3   OH234143   3.837   2.332  15.455 -0.0777 -0.2203  0.0191
 4243TIP3    H134144   3.895   2.329  15.531 -0.1376 -1.7356  0.0106
 4243TIP3    H234145   3.821   2.426  15.441 -0.3359  0.0574  2.0750
 4244TIP3   OH234146   0.933   2.798  16.382  0.0184 -0.3888 -0.3980
 4244TIP3    H134147   0.841   2.789  16.356 -0.3934 -0.5437  1.0678
 4244TIP3    H234148   0.930   2.830  16.472  1.4241  0.5980 -0.6848
 4245TIP3   OH234149   0.357   6.583  11.284  0.0716 -0.4393  0.0823
 4245TIP3    H134150   0.420   6.618  11.346  0.8254 -0.9489 -0.3819
 4245TIP3    H234151   0.321   6.660  11.240 -0.8281 -0.0464  1.4807
 4246TIP3   OH234152   4.486   4.779   5.830  0.0204 -0.1534 -0.1223
 4246TIP3    H134153   4.394   4.753   5.828 -0.0907 -0.1696  2.5984
 4246TIP3    H234154   4.531   4.703   5.869  0.5879  1.2575  2.0899
 4247TIP3   OH234155   1.820   1.522  15.715  0.2104  0.3023  0.0918
 4247TIP3    H134156   1.796   1.614  15.728  2.6764  0.9481  0.3252
 4247TIP3    H234157   1.739   1.480  15.688 -0.5574  2.9206 -1.8536
 4248TIP3   OH234158   3.298   1.752   1.956  0.5451 -0.0563  0.1199
 4248TIP3    H134159   3.325   1.811   2.027 -0.4030 -0.8146  1.1255
 4248TIP3    H234160   3.204   1.765   1.949  0.8529  1.0885 -2.0026
 4249TIP3   OH234161   1.063   3.892  14.885 -0.0542  0.2229 -0.1757
 4249TIP3    H134162   0.998   3.960  14.865  1.1343  1.6707  0.7233
 4249TIP3    H234163   1.011   3.813  14.901 -1.4459  0.7893 -1.6947
 4250TIP3   OH234164   4.887   1.419  11.280  0.1639 -0.2647  0.2003
 4250TIP3    H134165   4.890   1.462  11.194 -0.4747  1.9207  1.2101
 4250TIP3    H234166   4.848   1.334  11.263 -1.4161  0.7494 -1.4707
 4251TIP3   OH234167   3.452   0.178  15.322  0.2309  0.2255 -0.0091
 4251TIP3    H134168   3.502   0.096  15.331  0.9355  0.6321 -0.1869
 4251TIP3    H234169   3.362   0.149  15.309  0.1450 -0.4855  2.0187
 4252TIP3   OH234170   4.089   2.485  16.969  0.1966  0.2232  0.1044
 4252TIP3    H134171   4.092   2.389  16.976  1.3218  0.2232 -0.3226
 4252TIP3    H234172   3.999   2.507  16.992  0.0169 -0.9131  0.5539
 4253TIP3   OH234173   4.012   5.811  16.284 -0.1446 -0.0772 -0.7618
 4253TIP3    H134174   4.014   5.862  16.203  0.1545  0.5936 -0.3302
 4253TIP3    H234175   4.100   5.772  16.290  0.2737  0.9493 -0.0783
 4254TIP3   OH234176   0.813   5.417   0.163 -0.4559 -0.1530  0.4041
 4254TIP3    H134177   0.738   5.384   0.114  0.5517 -1.9673  0.0540
 4254TIP3    H234178   0.775   5.466   0.236 -1.9685  0.2110 -0.6148
 4255TIP3   OH234179   6.785   1.722   4.284  0.3462  0.0580 -0.6186
 4255TIP3    H134180   6.871   1.764   4.282  0.8641 -0.9454  0.2450
 4255TIP3    H234181   6.730   1.777   4.228  1.4154  0.9958 -0.7590
 4256TIP3   OH234182   2.756   1.954  15.994  0.2426 -0.1270  0.1240
 4256TIP3    H134183   2.722   2.036  15.959  0.5025 -0.4036 -0.8188
 4256TIP3    H234184   2.842   1.945  15.953 -0.3009 -1.4725 -0.7704
 4257TIP3   OH234185   3.857   5.132   2.676  0.3457  0.0903  0.1600
 4257TIP3    H134186   3.821   5.181   2.601  0.5835 -0.0415 -0.0407
 4257TIP3    H234187   3.851   5.040   2.650 -0.0345  0.0176  0.5099
 4258TIP3   OH234188   4.005   4.710  14.738  0.5747 -0.0820  0.2668
 4258TIP3    H134189   4.016   4.645  14.808  0.5287 -1.1381 -0.6824
 4258TIP3    H234190   4.059   4.677  14.666 -2.5971 -1.3076 -1.7029
 4259TIP3   OH234191   2.296   3.914  16.293 -0.4503  0.1333 -0.0054
 4259TIP3    H134192   2.305   3.895  16.386 -0.2154  4.1299  0.8954
 4259TIP3    H234193   2.386   3.927  16.263 -0.5844 -0.2869 -0.5880
 4260TIP3   OH234194   0.748   5.398  14.667 -0.2543  0.1781 -0.5777
 4260TIP3    H134195   0.690   5.474  14.668 -0.6624 -0.1158 -1.5409
 4260TIP3    H234196   0.793   5.403  14.583 -1.0632 -1.2233 -1.1101
 4261TIP3   OH234197   3.612   4.931   0.306 -0.1593 -0.3752 -0.0155
 4261TIP3    H134198   3.595   4.948   0.398  0.0813 -0.4819  0.0483
 4261TIP3    H234199   3.543   4.980   0.260 -0.3155 -0.3704  0.2199
 4262TIP3   OH234200   3.916   3.808   0.379  0.6114 -0.3775  0.1595
 4262TIP3    H134201   4.001   3.844   0.352  0.0196  0.5133 -0.5238
 4262TIP3    H234202   3.924   3.714   0.363  0.7469 -0.0477 -1.9254
 4263TIP3   OH234203   6.326   0.517  14.356  0.6351  0.1672 -0.3696
 4263TIP3    H134204   6.267   0.443  14.344  1.4782 -0.3057 -1.6719
 4263TIP3    H234205   6.325   0.562  14.272 -1.8284  3.1104  1.1483
 4264TIP3   OH234206   4.226   1.032   0.209 -0.0331 -0.1009 -0.5917
 4264TIP3    H134207   4.301   1.019   0.267  0.5554 -0.6916 -1.4692
 4264TIP3    H234208   4.233   1.124   0.181 -0.7821  0.4159  0.8956
 4265TIP3   OH234209   4.818   6.674  16.029 -0.1863  0.0245 -0.1630
 4265TIP3    H134210   4.772   6.590  16.030  0.8783 -0.5629  0.2085
 4265TIP3    H234211   4.911   6.650  16.033  0.1378  1.2056 -0.6351
 4266TIP3   OH234212   3.772   3.430  13.531  0.8953 -0.0428 -0.4469
 4266TIP3    H134213   3.725   3.395  13.606 -0.5009  1.9323 -0.3585
 4266TIP3    H234214   3.848   3.475  13.568  1.2200 -0.6727 -0.3558
 4267TIP3   OH234215   3.782   2.871  16.556  0.2923  0.1850  0.2418
 4267TIP3    H134216   3.734   2.911  16.484  0.6749  0.5107  0.1672
 4267TIP3    H234217   3.819   2.944  16.605  3.2621 -0.0680 -1.4432
 4268TIP3   OH234218   5.150   5.119   0.223 -0.5291 -0.1877  0.3457
 4268TIP3    H134219   5.180   5.037   0.184  1.3654  0.7532 -0.2302
 4268TIP3    H234220   5.166   5.185   0.156 -1.1514  0.8102  1.1650
 4269TIP3   OH234221   2.170   0.378   5.171 -0.1615  0.1517 -0.1076
 4269TIP3    H134222   2.135   0.460   5.137 -0.5991  0.6718  1.5492
 4269TIP3    H234223   2.265   0.389   5.168 -0.2067  0.2859 -0.9293
 4270TIP3   OH234224   5.629   1.168  12.263  0.3557 -0.0707  1.0418
 4270TIP3    H134225   5.660   1.212  12.184 -1.1703 -0.9522 -0.0641
 4270TIP3    H234226   5.677   1.086  12.266 -1.6800 -1.3875 -0.6142
 4271TIP3   OH234227   1.759   2.412   0.305 -0.3605  0.5359 -0.1269
 4271TIP3    H134228   1.689   2.476   0.294 -1.0573 -0.6521 -3.3126
 4271TIP3    H234229   1.833   2.447   0.255 -0.8833 -1.2464 -2.2468
 4272TIP3   OH234230   3.220   0.943  16.714 -0.6673 -0.0295 -0.3827
 4272TIP3    H134231   3.250   0.855  16.696 -0.6472  0.2701 -1.9083
 4272TIP3    H234232   3.136   0.932  16.758 -0.6073 -0.8015 -0.4686
 4273TIP3   OH234233   4.249   5.259   3.529 -0.6973  0.5790  0.2765
 4273TIP3    H134234   4.193   5.196   3.484 -0.2326 -0.6560  1.3915
 4273TIP3    H234235   4.253   5.227   3.620  1.8960  0.5763  0.1916
 4274TIP3   OH234236   0.753   0.435   4.056  0.1792  0.1575 -0.3436
 4274TIP3    H134237   0.737   0.349   4.017  0.5316  0.6950 -1.7039
 4274TIP3    H234238   0.836   0.464   4.017  0.3927  0.8390  0.5905
 4275TIP3   OH234239   1.145   1.931   3.752  0.3957 -0.2795  0.0821
 4275TIP3    H134240   1.104   1.970   3.830  0.1613 -0.7706  0.2073
 4275TIP3    H234241   1.131   1.996   3.683  0.3477  0.0326  0.3806
 4276TIP3   OH234242   2.393   3.011  15.074  0.0102  0.2137  0.0739
 4276TIP3    H134243   2.446   2.933  15.058 -0.0302  0.1055  0.4671
 4276TIP3    H234244   2.309   2.977  15.104  0.4156  0.4361  1.4984
 4277TIP3   OH234245   3.779   5.897  10.966 -0.1262 -0.1220  0.3584
 4277TIP3    H134246   3.863   5.854  10.982  0.7167  1.3479 -0.0643
 4277TIP3    H234247   3.802   5.986  10.941 -1.6685 -0.5463 -2.7824
 4278TIP3   OH234248   4.173   6.553  13.771  0.2247  0.6627 -0.1257
 4278TIP3    H134249   4.090   6.547  13.818  0.9356 -0.6985  0.9964
 4278TIP3    H234250   4.148   6.554  13.678 -1.0860  1.3685  0.2145
 4279TIP3   OH234251   0.692   1.576   4.572  0.5755 -0.2112 -0.1839
 4279TIP3    H134252   0.721   1.581   4.481 -1.7000  0.4864 -0.8954
 4279TIP3    H234253   0.691   1.482   4.592  1.8986 -0.3236 -0.5718
 4280TIP3   OH234254   1.130   2.625  16.558  0.1742  0.6389  0.0211
 4280TIP3    H134255   1.208   2.680  16.567  1.1445 -0.8107  0.6403
 4280TIP3    H234256   1.161   2.536  16.574 -0.6610 -0.5684 -4.3006
 4281TIP3   OH234257   5.890   5.876  10.899 -0.3702  0.0893  0.1415
 4281TIP3    H134258   5.937   5.957  10.880  0.0970 -0.6848 -2.1017
 4281TIP3    H234259   5.820   5.873  10.834  1.6829 -2.9560 -2.0576
 4282TIP3   OH234260   2.841   5.172   5.143  0.3983  0.2173 -0.3791
 4282TIP3    H134261   2.841   5.260   5.107  0.5962 -1.0475 -3.6298
 4282TIP3    H234262   2.749   5.145   5.141  0.4254  0.0912 -0.0528
 4283TIP3   OH234263   4.258   5.508  16.909 -0.5324 -0.1149 -0.2636
 4283TIP3    H134264   4.178   5.475  16.869 -0.6548 -1.3047  0.9279
 4283TIP3    H234265   4.229   5.552  16.989 -0.1515  0.9160 -0.6827
 4284TIP3   OH234266   4.617   1.364   0.640  0.4264 -0.0417  0.3419
 4284TIP3    H134267   4.643   1.355   0.731 -1.1359  1.0562  0.9076
 4284TIP3    H234268   4.684   1.421   0.601  0.4709  0.4201  1.0845
 4285TIP3   OH234269   1.705   0.046  15.089  0.1680 -0.2413  0.6950
 4285TIP3    H134270   1.745   0.101  15.022  2.1956 -0.7482  1.4740
 4285TIP3    H234271   1.743   0.076  15.171 -0.6835 -1.0654  1.4041
 4286TIP3   OH234272   1.922   2.955   2.517 -0.0690 -0.4479 -0.5336
 4286TIP3    H134273   1.875   2.879   2.550  1.0942 -1.0676 -0.2679
 4286TIP3    H234274   1.904   2.956   2.423 -2.1459  0.4363 -0.1620
 4287TIP3   OH234275   5.682   2.188   5.221 -0.7876 -0.0826  0.3281
 4287TIP3    H134276   5.636   2.126   5.164 -0.1370 -0.0428 -0.2538
 4287TIP3    H234277   5.770   2.195   5.182 -0.0057 -0.8525  1.9263
 4288TIP3   OH234278   1.843   4.422   4.040 -0.1630 -0.2583  0.4176
 4288TIP3    H134279   1.839   4.504   4.088 -1.6755  0.2666 -0.5752
 4288TIP3    H234280   1.925   4.427   3.990  0.0532  0.3714  0.8358
 4289TIP3   OH234281   4.959   1.171  16.664 -0.1156  0.1628  0.1802
 4289TIP3    H134282   4.991   1.216  16.586 -0.5875 -2.5768 -1.6602
 4289TIP3    H234283   5.022   1.193  16.732  0.5902  2.1996 -1.0845
 4290TIP3   OH234284   4.213   3.048  14.976  0.0949  0.4806 -0.1041
 4290TIP3    H134285   4.274   3.016  14.910 -0.6294 -0.2777 -0.4128
 4290TIP3    H234286   4.139   3.082  14.926 -0.1621  0.5080  0.2907
 4291TIP3   OH234287   5.667   0.484  10.847 -0.2591  0.3286 -0.3560
 4291TIP3    H134288   5.653   0.390  10.836  3.1615 -0.2363 -0.3417
 4291TIP3    H234289   5.695   0.515  10.761 -0.6628  1.1945 -0.1840
 4292TIP3   OH234290   3.055   5.616  16.448 -0.0622  0.3949  0.1787
 4292TIP3    H134291   3.141   5.578  16.465 -0.4052 -0.3704  0.1943
 4292TIP3    H234292   3.069   5.676  16.375  0.3014 -0.3842 -0.3824
 4293TIP3   OH234293   3.701   3.491  15.994  0.2745 -0.2570  0.3262
 4293TIP3    H134294   3.736   3.429  15.929  0.1478 -0.8014  0.7711
 4293TIP3    H234295   3.701   3.575  15.949 -0.3436 -0.7314 -0.5756
 4294TIP3   OH234296   4.824   2.301   4.205  0.4942  0.6686  0.4534
 4294TIP3    H134297   4.859   2.306   4.116  0.1074 -0.2367  0.2491
 4294TIP3    H234298   4.901   2.294   4.261  0.7107  0.6070  0.1455
 4295TIP3   OH234299   0.841   3.751  16.222 -0.1274 -0.5045  0.0496
 4295TIP3    H134300   0.767   3.798  16.262  0.8868  0.4123  0.8776
 4295TIP3    H234301   0.847   3.670  16.272  0.1745 -0.0452  0.7688
 4296TIP3   OH234302   3.285   4.545   2.902  0.0779 -0.1333  0.3373
 4296TIP3    H134303   3.294   4.496   2.984 -0.2336 -1.2570 -0.3009
 4296TIP3    H234304   3.193   4.575   2.902  0.1079 -0.0388  0.4445
 4297TIP3   OH234305   0.112   4.819   4.425 -0.0100  0.5039 -0.2259
 4297TIP3    H134306   0.155   4.779   4.501  1.5115  0.0891 -1.2715
 4297TIP3    H234307   0.171   4.800   4.352 -1.8071  0.2776 -1.6410
 4298TIP3   OH234308   3.624   3.424   2.359  0.2595 -0.0340 -0.6181
 4298TIP3    H134309   3.535   3.443   2.390  0.3959 -1.5219  0.7737
 4298TIP3    H234310   3.614   3.406   2.266 -1.2919 -2.5779 -0.0092
 4299TIP3   OH234311   4.847   4.336  10.525  0.1608  0.1570 -0.1499
 4299TIP3    H134312   4.836   4.388  10.446  1.1348 -0.2599 -0.5543
 4299TIP3    H234313   4.806   4.252  10.505 -0.4921  0.3986  0.1455
 4300TIP3   OH234314   4.715   0.060   4.552  0.1297 -0.7691 -0.3693
 4300TIP3    H134315   4.808   0.038   4.561  0.6505  0.0172 -3.2620
 4300TIP3    H234316   4.677  -0.013   4.504 -1.1302 -1.8319  2.1630
 4301TIP3   OH234317   1.397   6.111   3.105  0.3224  0.4030 -0.1970
 4301TIP3    H134318   1.469   6.084   3.048 -1.5817 -0.6949 -2.1309
 4301TIP3    H234319   1.403   6.052   3.180  0.1758 -1.1021 -1.3375
 4302TIP3   OH234320   5.732   3.517   3.460  0.2266 -0.7016  0.4866
 4302TIP3    H134321   5.810   3.569   3.441  1.4415 -2.4079  0.6156
 4302TIP3    H234322   5.738   3.497   3.553 -0.6301 -0.4441  0.6043
 4303TIP3   OH234323   3.138   3.429   5.219 -0.1141  0.4460  0.0290
 4303TIP3    H134324   3.160   3.501   5.278 -0.6824  0.7011 -0.0622
 4303TIP3    H234325   3.044   3.440   5.203 -0.2767 -0.5132  0.2863
 4304TIP3   OH234326   3.000   0.902  15.759  0.0732 -0.0014  0.5565
 4304TIP3    H134327   3.050   0.947  15.827  0.5550  1.1444 -0.5365
 4304TIP3    H234328   2.909   0.928  15.775  0.5778  3.2203 -1.4063
 4305TIP3   OH234329   3.834   4.063   5.935  0.1198 -0.2075  0.1809
 4305TIP3    H134330   3.748   4.036   5.968 -0.1286  0.0490 -0.2520
 4305TIP3    H234331   3.826   4.158   5.922 -0.0090 -0.4178 -1.2902
 4306TIP3   OH234332   2.444   4.205   1.283 -0.5336  0.6435  0.4722
 4306TIP3    H134333   2.515   4.186   1.222  0.1212  1.1700  1.0535
 4306TIP3    H234334   2.480   4.273   1.340 -1.2044  0.3043  1.3081
 4307TIP3   OH234335   5.673   5.155   3.049  0.3851  0.1185  0.1661
 4307TIP3    H134336   5.727   5.093   3.097 -2.7418 -0.0095  3.7728
 4307TIP3    H234337   5.628   5.102   2.983  0.2022 -0.8773  1.0780
 4308TIP3   OH234338   3.537   2.754  13.536 -0.6860  0.4590 -0.1647
 4308TIP3    H134339   3.549   2.843  13.504  0.7341 -0.0394 -1.0322
 4308TIP3    H234340   3.465   2.719  13.483 -0.5249  0.7283 -0.5612
 4309TIP3   OH234341   4.973   3.501   0.678 -0.0189  0.1165 -0.2851
 4309TIP3    H134342   4.949   3.544   0.596 -0.6668  1.9109  0.8147
 4309TIP3    H234343   4.918   3.423   0.681 -1.0634  0.8178 -0.8425
 4310TIP3   OH234344   1.848   5.342   5.302 -0.0867  0.2111  0.4437
 4310TIP3    H134345   1.834   5.286   5.225  2.1492  0.6177 -0.2926
 4310TIP3    H234346   1.862   5.429   5.265  1.1317  0.3854  1.3049
 4311TIP3   OH234347   2.786   1.159   2.506 -0.1586 -0.0374  0.1144
 4311TIP3    H134348   2.748   1.132   2.423  0.3067 -0.5282  0.0574
 4311TIP3    H234349   2.846   1.231   2.483 -0.4838  0.2333  0.1074
 4312TIP3   OH234350   0.480   0.388  12.992  0.0737  1.2264  0.3721
 4312TIP3    H134351   0.510   0.346  13.073 -0.5866  0.8849  0.4388
 4312TIP3    H234352   0.523   0.473  12.993 -0.1733  1.3466  1.2379
 4313TIP3   OH234353   3.831   2.806   2.065  0.6100  0.2463 -0.5473
 4313TIP3    H134354   3.749   2.762   2.088  0.9227 -0.9966 -1.7630
 4313TIP3    H234355   3.881   2.807   2.147 -0.3643  0.4580  0.0535
 4314TIP3   OH234356   1.163   3.238  10.606  0.2062 -0.3659  0.4517
 4314TIP3    H134357   1.234   3.173  10.608 -0.2998 -0.8853  2.4415
 4314TIP3    H234358   1.197   3.312  10.657  0.1586  0.2941 -0.4599
 4315TIP3   OH234359   4.546   2.898  14.329 -0.6559 -0.2035 -0.4392
 4315TIP3    H134360   4.502   2.813  14.332  1.9763 -1.6030  1.0100
 4315TIP3    H234361   4.508   2.947  14.402  0.5473 -1.6112  1.1739
 4316TIP3   OH234362   1.108   3.054  15.717  0.0418  0.0602 -0.1689
 4316TIP3    H134363   1.172   3.001  15.764  0.2798  1.1922  0.8087
 4316TIP3    H234364   1.085   3.124  15.778  0.3457  1.5610 -1.7171
 4317TIP3   OH234365   6.494   1.218  15.957  0.2194  0.1492  1.0193
 4317TIP3    H134366   6.496   1.125  15.933 -1.2066  0.4611 -0.3721
 4317TIP3    H234367   6.407   1.248  15.931  1.5145  2.4727 -0.8943
 4318TIP3   OH234368   3.703   2.724   2.456  0.1652  0.1099  0.7636
 4318TIP3    H134369   3.700   2.632   2.431 -0.9873  0.9814 -2.4615
 4318TIP3    H234370   3.777   2.729   2.517  1.6026 -2.5363 -0.6574
 4319TIP3   OH234371   0.992   4.274  15.132  0.0040 -0.0139 -0.3661
 4319TIP3    H134372   0.896   4.273  15.127  0.0226  2.3693 -2.4549
 4319TIP3    H234373   1.011   4.317  15.216 -0.7092 -1.6511  0.6644
 4320TIP3   OH234374   4.176   1.576   4.552 -0.1527  0.7207  0.1861
 4320TIP3    H134375   4.142   1.531   4.475  0.6051  1.0344 -0.3299
 4320TIP3    H234376   4.204   1.506   4.610 -1.9291  0.4346  0.7497
 4321TIP3   OH234377   6.085   2.476   2.795  0.2662  0.0026 -0.4833
 4321TIP3    H134378   6.158   2.416   2.781  1.7549  2.3682 -3.4580
 4321TIP3    H234379   6.008   2.426   2.768  1.2991 -1.1183 -1.4207
 4322TIP3   OH234380   0.468   6.763   5.643 -0.4331 -0.2595  0.3905
 4322TIP3    H134381   0.441   6.680   5.605 -0.1549  0.0742 -0.5575
 4322TIP3    H234382   0.523   6.803   5.575  1.2387 -0.2901  1.7122
 4323TIP3   OH234383   4.166   0.772  15.850  0.1535  0.1102 -0.4774
 4323TIP3    H134384   4.105   0.798  15.781 -0.7900  0.2156  0.3766
 4323TIP3    H234385   4.145   0.830  15.923  0.3342 -0.7921  0.3034
 4324TIP3   OH234386   5.961   0.611   1.983 -0.2223  0.0648  0.0267
 4324TIP3    H134387   6.013   0.598   2.061 -0.6836 -0.2667  0.2836
 4324TIP3    H234388   6.021   0.652   1.920  0.8109 -1.7974 -0.2401
 4325TIP3   OH234389   0.954   1.970   5.099 -0.1125 -0.3813  0.1477
 4325TIP3    H134390   0.941   2.040   5.163  0.7055 -1.5368  1.6021
 4325TIP3    H234391   1.045   1.945   5.108  0.5438  0.6899 -2.8141
 4326TIP3   OH234392   2.806   1.395  13.480  0.1848 -0.2414 -0.0285
 4326TIP3    H134393   2.842   1.394  13.569 -0.7215  1.0723  0.3650
 4326TIP3    H234394   2.867   1.449  13.430 -0.4121  0.7575  0.2973
 4327TIP3   OH234395   5.651   3.915   1.674 -0.3036 -0.0925  0.3308
 4327TIP3    H134396   5.698   3.905   1.757 -1.7153 -0.7502  1.0624
 4327TIP3    H234397   5.686   3.845   1.619  0.0115 -0.1982  0.6621
 4328TIP3   OH234398   5.128   0.042   0.651  0.0271  0.3121  0.5619
 4328TIP3    H134399   5.113   0.099   0.576  2.8256  1.3326  0.7080
 4328TIP3    H234400   5.111   0.097   0.727  3.1442  1.1812  0.7100
 4329TIP3   OH234401   0.172   6.608   5.035 -0.0082 -0.0427 -0.5232
 4329TIP3    H134402   0.163   6.540   4.968  3.6049 -0.7740 -0.3524
 4329TIP3    H234403   0.209   6.562   5.111  0.3471  1.6712  0.3716
 4330TIP3   OH234404   0.843   5.797   3.168  0.3781  0.0744  0.0690
 4330TIP3    H134405   0.764   5.814   3.117  0.5347  0.4062 -0.0691
 4330TIP3    H234406   0.836   5.856   3.243 -0.5627 -1.4547  1.2159
 4331TIP3   OH234407   5.048   6.630   6.147 -0.1140 -0.0259 -0.0025
 4331TIP3    H134408   4.966   6.636   6.098  0.9112  0.8550 -1.6500
 4331TIP3    H234409   5.055   6.538   6.170 -1.7110 -0.0573  0.4046
 4332TIP3   OH234410   2.663   4.885   2.433 -0.0731  0.1828  0.4480
 4332TIP3    H134411   2.686   4.836   2.354  1.6116 -0.8530  1.5585
 4332TIP3    H234412   2.728   4.954   2.438 -0.3971  0.4703  0.7506
 4333TIP3   OH234413   5.952   2.258   4.029 -0.0843 -0.0525 -0.2917
 4333TIP3    H134414   6.024   2.195   4.026  0.3619  0.2183  2.8327
 4333TIP3    H234415   5.882   2.212   4.076 -0.2506  1.2563  0.7720
 4334TIP3   OH234416   3.147   4.198   1.136 -0.4132 -0.0887  0.2451
 4334TIP3    H134417   3.210   4.181   1.066 -1.3156  0.6091 -0.7541
 4334TIP3    H234418   3.068   4.151   1.109 -0.7991  0.2740  0.7402
 4335TIP3   OH234419   0.517   1.637   5.432 -0.2258 -0.2556 -0.6538
 4335TIP3    H134420   0.594   1.672   5.477 -0.7043 -0.6833  0.5203
 4335TIP3    H234421   0.511   1.547   5.462 -0.0370 -0.8373 -2.2907
 4336TIP3   OH234422   1.349   2.732  11.606  0.1095  0.4387  0.3554
 4336TIP3    H134423   1.361   2.659  11.666 -1.8778 -1.6383 -1.6634
 4336TIP3    H234424   1.433   2.741  11.561  0.0773 -1.3169 -0.0990
 4337TIP3   OH234425   3.582   5.109  13.502  0.2359 -0.1071 -0.2768
 4337TIP3    H134426   3.506   5.052  13.490 -0.2584  0.4174  0.2915
 4337TIP3    H234427   3.548   5.197  13.480  0.9756 -0.0259 -1.1232
 4338TIP3   OH234428   3.237   5.490   2.164  0.2342  0.1162  0.0767
 4338TIP3    H134429   3.300   5.464   2.097  0.7260 -0.3010  0.6870
 4338TIP3    H234430   3.250   5.584   2.175 -0.3733  0.3252 -0.9432
 4339TIP3   OH234431   4.490   1.694  13.771 -0.0076  0.3191 -0.5297
 4339TIP3    H134432   4.553   1.645  13.824 -0.9379  0.5050  0.7557
 4339TIP3    H234433   4.508   1.786  13.791 -0.8550  0.3632  0.0388
 4340TIP3   OH234434   2.764   4.951   5.645  0.0682 -0.0274  0.6751
 4340TIP3    H134435   2.697   5.014   5.668 -0.1590 -0.5347  1.4049
 4340TIP3    H234436   2.784   4.905   5.726  1.9957  0.7798  0.6825
 4341TIP3   OH234437   5.119   4.671   4.780 -0.2594 -0.3415  0.3336
 4341TIP3    H134438   5.029   4.665   4.812 -0.5038 -0.7209 -0.4347
 4341TIP3    H234439   5.151   4.754   4.816 -1.3658  0.4713 -0.5224
 4342TIP3   OH234440   4.446   0.025   5.677 -0.0344 -0.1834 -0.2751
 4342TIP3    H134441   4.427   0.119   5.682  3.4174  0.5243  0.9812
 4342TIP3    H234442   4.382  -0.009   5.614 -2.9838  2.5239  1.1296
 4343TIP3   OH234443   1.049   1.187   2.887 -0.2111  0.3549  0.5516
 4343TIP3    H134444   1.042   1.167   2.793 -2.3748 -0.8068  0.9302
 4343TIP3    H234445   1.138   1.221   2.897  0.3280 -0.2337 -1.7949
 4344TIP3   OH234446   3.361   3.873   5.904 -0.2169 -0.6425  0.3224
 4344TIP3    H134447   3.278   3.917   5.885  1.1170  1.2945 -1.2030
 4344TIP3    H234448   3.387   3.907   5.990  0.3048  0.8160 -0.3991
 4345TIP3   OH234449   6.228   1.344  15.530  0.2217  0.5205  0.4937
 4345TIP3    H134450   6.205   1.264  15.482  0.3339  0.9026 -0.2019
 4345TIP3    H234451   6.165   1.348  15.602 -0.4596  0.3622 -0.0879
 4346TIP3   OH234452   5.301   6.444   4.105 -0.1179  0.2260 -0.2348
 4346TIP3    H134453   5.248   6.520   4.082 -0.2645  0.4247  0.7462
 4346TIP3    H234454   5.251   6.399   4.173 -0.2994 -1.0645 -1.1984
 4347TIP3   OH234455   3.845   1.601  13.664  0.1343 -0.5137  0.6142
 4347TIP3    H134456   3.838   1.635  13.575  2.5200  1.9397  1.2732
 4347TIP3    H234457   3.851   1.506  13.654  0.6834 -0.2478 -1.8801
 4348TIP3   OH234458   5.262   4.250  14.514  0.1862  0.2112 -0.6025
 4348TIP3    H134459   5.295   4.183  14.574  0.7010  0.4000 -0.6692
 4348TIP3    H234460   5.331   4.316  14.512  0.3606  0.0116 -1.7218
 4349TIP3   OH234461   3.879   0.615   2.481 -0.3585 -0.2998 -0.4738
 4349TIP3    H134462   3.881   0.529   2.523  1.2751 -0.1839 -0.2986
 4349TIP3    H234463   3.905   0.676   2.550  2.6530 -0.1395 -1.6717
 4350TIP3   OH234464   2.625   0.558   1.260 -0.4551 -0.0773  0.7157
 4350TIP3    H134465   2.655   0.529   1.346  2.5346  0.0787 -0.2317
 4350TIP3    H234466   2.702   0.553   1.204 -2.4720 -0.6697 -2.1194
 4351TIP3   OH234467   5.884   2.858  11.542 -0.0581 -0.2909  0.1075
 4351TIP3    H134468   5.821   2.892  11.605  0.2277 -0.7291  0.6364
 4351TIP3    H234469   5.852   2.887  11.457 -0.4605  0.2864  0.4550
 4352TIP3   OH234470   2.850   2.570  11.638 -0.0509 -0.2886  0.3073
 4352TIP3    H134471   2.795   2.633  11.591 -0.8171 -0.6988  0.6411
 4352TIP3    H234472   2.894   2.520  11.569 -0.9816 -0.7238  0.0130
 4353TIP3   OH234473   6.416   6.378   2.024 -0.0549 -0.2986 -0.6101
 4353TIP3    H134474   6.455   6.344   1.943 -0.8976  1.0263 -1.6066
 4353TIP3    H234475   6.322   6.378   2.007 -0.2948 -0.8258  0.7147
 4354TIP3   OH234476   1.832   3.399  14.972 -0.3782  0.5618 -0.3887
 4354TIP3    H134477   1.762   3.393  15.038 -1.4371  1.0740 -1.4470
 4354TIP3    H234478   1.817   3.483  14.928  2.1449  1.6410  0.7222
 4355TIP3   OH234479   2.908   1.268   3.162 -0.3502  0.1973  0.0441
 4355TIP3    H134480   2.943   1.196   3.109 -1.3489  1.0655 -1.8205
 4355TIP3    H234481   2.815   1.269   3.143 -0.6363  0.8917  1.4111
 4356TIP3   OH234482   3.586   3.028  13.412 -0.5272  0.2715 -0.1049
 4356TIP3    H134483   3.546   3.080  13.342 -0.8241 -0.9178 -0.8238
 4356TIP3    H234484   3.647   2.970  13.367  0.0133  0.1978  0.7206
 4357TIP3   OH234485   0.689   0.341   5.185  0.4748  0.8007 -0.1110
 4357TIP3    H134486   0.599   0.341   5.216  0.7211 -3.1581  0.9269
 4357TIP3    H234487   0.685   0.377   5.097 -2.1265  0.5024 -0.1486
 4358TIP3   OH234488   6.531   4.309   4.223 -0.1408  0.1665  0.4201
 4358TIP3    H134489   6.587   4.381   4.252 -0.7324  0.5025  0.7415
 4358TIP3    H234490   6.565   4.233   4.269  0.0681  0.3647  0.5987
 4359TIP3   OH234491   1.867   0.297  17.160 -0.0248  0.0738  0.2128
 4359TIP3    H134492   1.925   0.337  17.095 -0.2261 -0.2929 -0.1922
 4359TIP3    H234493   1.813   0.370  17.192  1.2139  0.5744  1.1917
 4360TIP3   OH234494   4.836   5.802  13.773 -0.8451  0.6034 -0.7117
 4360TIP3    H134495   4.792   5.769  13.852 -0.0450 -0.1130 -0.5608
 4360TIP3    H234496   4.878   5.883  13.801  0.5979 -0.3561 -0.0340
 4361TIP3   OH234497   3.852   5.879  14.544  0.4198  0.5197  0.0152
 4361TIP3    H134498   3.879   5.970  14.549  0.6313  0.4472  0.2253
 4361TIP3    H234499   3.773   5.880  14.490 -0.4185  1.0162  1.2175
 4362TIP3   OH234500   1.242   2.314   5.280 -0.0035  0.5425 -0.3121
 4362TIP3    H134501   1.233   2.338   5.372 -1.0283  0.7603 -0.4691
 4362TIP3    H234502   1.298   2.236   5.281  1.3647  1.5030  0.3696
 4363TIP3   OH234503   4.815   1.510   1.251  0.4765  0.1487 -0.0875
 4363TIP3    H134504   4.870   1.547   1.319  2.2657  1.3005 -2.0944
 4363TIP3    H234505   4.806   1.581   1.187 -3.0473 -0.1237 -0.0056
 4364TIP3   OH234506   2.003   1.599   1.919 -0.0648 -0.4486 -0.4947
 4364TIP3    H134507   2.045   1.626   2.001 -0.2643  1.9484 -1.1191
 4364TIP3    H234508   2.063   1.630   1.851 -0.1576 -1.9497 -1.2663
 4365TIP3   OH234509   5.857   0.800  10.657  0.0001  0.5474  0.0988
 4365TIP3    H134510   5.930   0.801  10.719  0.7743 -0.6006 -0.7731
 4365TIP3    H234511   5.882   0.862  10.589 -0.7996  1.7237  0.8600
 4366TIP3   OH234512   3.471   5.840  11.212 -0.3350  0.4090  0.6924
 4366TIP3    H134513   3.543   5.863  11.152 -0.3235 -0.1992  0.4651
 4366TIP3    H234514   3.451   5.748  11.191 -0.7613  0.3876  1.1837
 4367TIP3   OH234515   4.498   0.837   4.019  0.3503  0.4454 -0.2710
 4367TIP3    H134516   4.416   0.812   3.978  0.2327  1.3758 -0.6309
 4367TIP3    H234517   4.562   0.774   3.985 -0.3522 -0.7497  0.6092
 4368TIP3   OH234518   2.583   5.115   5.072  0.1954 -0.1294 -0.1768
 4368TIP3    H134519   2.517   5.090   5.008  0.4749 -1.1722 -0.0733
 4368TIP3    H234520   2.588   5.040   5.131 -0.0579  0.8145  1.0710
 4369TIP3   OH234521   0.958   3.460   2.630 -0.1862 -0.7251 -0.1174
 4369TIP3    H134522   0.996   3.381   2.670  1.0019 -0.2682 -0.3458
 4369TIP3    H234523   1.018   3.530   2.654 -0.4140 -0.1500 -1.2345
 4370TIP3   OH234524   6.225   4.226  15.490  0.2381  0.2927 -0.0050
 4370TIP3    H134525   6.145   4.258  15.447  1.1556 -0.9134 -2.6425
 4370TIP3    H234526   6.290   4.293  15.472  0.8424 -0.6134 -1.2295
 4371TIP3   OH234527   3.030   0.197   0.022  0.2303 -0.5563 -0.5918
 4371TIP3    H134528   3.011   0.291   0.026 -0.9429 -0.8157  0.1811
 4371TIP3    H234529   2.948   0.157  -0.008  0.5845 -1.3738 -0.4887
 4372TIP3   OH234530   0.394   3.751   2.833  0.5222 -0.3930  0.2286
 4372TIP3    H134531   0.464   3.691   2.808  2.9818  0.9275  3.6399
 4372TIP3    H234532   0.344   3.703   2.899 -1.2273 -0.9197 -1.4250
 4373TIP3   OH234533   6.355   3.533   1.360 -0.4712  0.6410 -0.8322
 4373TIP3    H134534   6.317   3.554   1.275 -1.4504  1.0473 -0.2983
 4373TIP3    H234535   6.319   3.599   1.420 -0.1568  0.0807 -0.0125
 4374TIP3   OH234536   1.961   3.821   4.391  0.2645 -0.1343 -0.1704
 4374TIP3    H134537   1.899   3.827   4.318  1.9667  0.0109 -1.6573
 4374TIP3    H234538   2.025   3.890   4.374  0.9610 -0.4274  1.1976
 4375TIP3   OH234539   5.727   5.810  16.321  0.1901  0.2500 -0.1919
 4375TIP3    H134540   5.638   5.842  16.336  1.2308  2.6759  1.1932
 4375TIP3    H234541   5.771   5.882  16.276  1.7316 -0.5121  0.0690
 4376TIP3   OH234542   3.135   4.484  13.491  0.2666 -0.8294  0.1962
 4376TIP3    H134543   3.105   4.408  13.441 -0.3676 -2.2510  2.6459
 4376TIP3    H234544   3.176   4.447  13.569  3.4262  1.2556 -0.3476
 4377TIP3   OH234545   6.310   0.412   0.611  0.5134 -0.1062  0.3728
 4377TIP3    H134546   6.222   0.394   0.644  0.2545 -0.1486 -0.3154
 4377TIP3    H234547   6.300   0.411   0.515  1.4975 -1.3438  0.2671
 4378TIP3   OH234548   2.592   6.343   0.503 -0.0983  0.7030 -0.0244
 4378TIP3    H134549   2.536   6.266   0.494  1.6694 -0.4665 -1.3884
 4378TIP3    H234550   2.550   6.410   0.450  1.1442 -0.9798 -3.2561
 4379TIP3   OH234551   5.460   0.271   3.180 -0.1866 -0.1770  0.2967
 4379TIP3    H134552   5.366   0.254   3.179 -0.1598 -0.3327 -0.3511
 4379TIP3    H234553   5.487   0.257   3.089  0.6065 -0.9858  0.6511
 4380TIP3   OH234554   2.152   2.217   6.068 -0.7853  0.0949 -0.5687
 4380TIP3    H134555   2.060   2.233   6.087 -0.3272  2.8659 -0.5815
 4380TIP3    H234556   2.199   2.257   6.141  0.4564 -0.7806 -0.8693
 4381TIP3   OH234557   0.885   6.500  16.191  0.5401  0.0799 -0.0697
 4381TIP3    H134558   0.811   6.499  16.130  1.1737  0.4333 -0.8526
 4381TIP3    H234559   0.863   6.569  16.254 -0.5302 -0.8809  0.6435
 4382TIP3   OH234560   4.798   6.253  11.337  0.2796 -0.7640  0.2733
 4382TIP3    H134561   4.778   6.253  11.431 -0.9956  1.7682  0.0711
 4382TIP3    H234562   4.865   6.320  11.328 -0.1739 -0.4315 -0.7046
 4383TIP3   OH234563   3.734   3.707   3.171 -0.4863 -0.4580 -0.0090
 4383TIP3    H134564   3.761   3.798   3.159 -1.5695 -0.0240  0.7400
 4383TIP3    H234565   3.767   3.661   3.093 -1.7172  0.9776 -1.3992
 4384TIP3   OH234566   2.134   4.870  15.803  0.0595  0.2199 -0.2722
 4384TIP3    H134567   2.182   4.789  15.784  1.7438  1.0300  0.4190
 4384TIP3    H234568   2.090   4.853  15.886 -3.2350 -1.5409 -2.2767
 4385TIP3   OH234569   5.637   1.122   2.623 -0.2010 -0.3107  0.0042
 4385TIP3    H134570   5.708   1.170   2.580 -0.8643 -0.1217 -0.9140
 4385TIP3    H234571   5.566   1.124   2.559 -1.2117 -0.0355  1.1272
 4386TIP3   OH234572   3.918   5.971   6.100  0.1417 -0.0400  0.4028
 4386TIP3    H134573   3.839   5.969   6.154  0.4811 -0.1888  0.8987
 4386TIP3    H234574   3.982   5.921   6.151  0.1987 -0.9591 -0.5637
 4387TIP3   OH234575   5.026   1.319   5.648  0.0241  0.1619 -0.3839
 4387TIP3    H134576   4.948   1.290   5.600  0.1157 -0.2913 -0.2608
 4387TIP3    H234577   5.070   1.379   5.588 -0.7620  0.9448 -0.2069
 4388TIP3   OH234578   1.780   5.031   2.812 -0.0413  0.7379  0.0821
 4388TIP3    H134579   1.748   5.062   2.727  3.1843  0.9929 -1.0960
 4388TIP3    H234580   1.768   4.936   2.808  2.2732  0.4639 -1.6978
 4389TIP3   OH234581   1.968   0.938   0.513  0.1147  0.2501 -0.0239
 4389TIP3    H134582   1.941   0.890   0.592 -1.8002  1.7175  0.2447
 4389TIP3    H234583   2.062   0.925   0.509  0.1209 -0.5744  2.0335
 4390TIP3   OH234584   2.617   5.952  11.745 -1.0981  0.5730  0.0551
 4390TIP3    H134585   2.704   5.926  11.774 -1.5241  0.6664  1.4214
 4390TIP3    H234586   2.628   5.968  11.651  0.2642  0.2044  0.1345
 4391TIP3   OH234587   4.897   5.014   0.001 -0.2917 -0.6723 -0.1749
 4391TIP3    H134588   4.878   5.063   0.080  0.2374 -1.3229  0.3637
 4391TIP3    H234589   4.814   5.012  -0.047 -0.8342 -0.9948  0.7612
 4392TIP3   OH234590   2.748   0.297   5.767 -0.1989  0.3005  0.1839
 4392TIP3    H134591   2.785   0.226   5.819  0.5516 -0.2914 -1.1548
 4392TIP3    H234592   2.717   0.360   5.832  0.1074 -0.7431  1.3612
 4393TIP3   OH234593   6.062   3.210  15.888  0.3048 -0.3078 -0.4444
 4393TIP3    H134594   6.106   3.134  15.926 -2.5743 -1.0557  1.4974
 4393TIP3    H234595   6.052   3.188  15.796  3.2440 -0.4587 -0.7677
 4394TIP3   OH234596   5.480   2.642   1.037  0.2457 -0.2428  0.0943
 4394TIP3    H134597   5.550   2.580   1.021  0.8783  0.1188  1.4201
 4394TIP3    H234598   5.451   2.623   1.126  0.1235  1.0409  0.3328
 4395TIP3   OH234599   1.492   1.032  16.871  0.0701  0.2357 -0.3362
 4395TIP3    H134600   1.509   0.961  16.933  1.3788 -0.7478 -1.8086
 4395TIP3    H234601   1.564   1.094  16.885 -0.1518  0.4720 -0.2266
 4396TIP3   OH234602   6.432   1.397  11.618  0.3088  0.1489 -0.1191
 4396TIP3    H134603   6.401   1.341  11.688 -2.4065  0.2694 -1.1754
 4396TIP3    H234604   6.383   1.479  11.629  1.8501  1.1617 -0.5407
 4397TIP3   OH234605   1.639   2.171  13.274 -0.7893  0.2641 -0.3216
 4397TIP3    H134606   1.636   2.245  13.333 -1.3916 -1.2390  1.5904
 4397TIP3    H234607   1.551   2.133  13.278 -0.1795 -1.1934 -0.4040
 4398TIP3   OH234608   2.626   3.024  16.475 -0.3889 -0.3605  0.1651
 4398TIP3    H134609   2.720   3.014  16.460 -0.0097  1.3559  1.2294
 4398TIP3    H234610   2.594   2.934  16.486  1.2354 -0.9356  0.4011
 4399TIP3   OH234611   2.890   6.442  12.108 -0.1982 -0.5385 -0.1511
 4399TIP3    H134612   2.837   6.374  12.067 -1.1101  0.6622 -1.0334
 4399TIP3    H234613   2.828   6.513  12.125  0.8436  0.3083  0.1855
 4400TIP3   OH234614   4.614   4.989  13.302 -0.4212  0.4118 -0.0493
 4400TIP3    H134615   4.554   4.932  13.254 -1.3628  0.1451  1.3963
 4400TIP3    H234616   4.559   5.031  13.368  0.7658  1.0529  0.5505
 4401TIP3   OH234617   3.999   6.071   2.004  0.0467  0.1535  0.0639
 4401TIP3    H134618   4.043   6.090   2.087 -0.8960  0.7626  0.4319
 4401TIP3    H234619   3.943   5.997   2.023  1.4494 -1.1158 -0.6011
 4402TIP3   OH234620   3.402   0.158   6.128 -0.1580  0.1216  0.1481
 4402TIP3    H134621   3.380   0.078   6.175  0.9480  0.0033  0.4738
 4402TIP3    H234622   3.387   0.136   6.036 -0.9073 -0.1062  0.3179
 4403TIP3   OH234623   2.602   2.899   1.799 -0.5446  0.2302 -0.0282
 4403TIP3    H134624   2.603   2.957   1.875  0.0632  0.0789  0.0796
 4403TIP3    H234625   2.516   2.858   1.802  0.0680 -0.9876  1.4922
 4404TIP3   OH234626   0.887   0.963  11.878  0.0528  0.3172 -0.6734
 4404TIP3    H134627   0.959   0.908  11.847  0.1519  0.1784 -0.2001
 4404TIP3    H234628   0.811   0.906  11.877 -0.3383  0.8303 -2.4663
 4405TIP3   OH234629   2.298   1.009  11.161 -0.1655  0.2273 -0.4144
 4405TIP3    H134630   2.370   0.948  11.173  0.0314  0.5979  0.2875
 4405TIP3    H234631   2.338   1.087  11.123 -0.4375 -0.1196 -1.4348
 4406TIP3   OH234632   4.546   2.340   5.810 -0.1473  0.0516 -0.5491
 4406TIP3    H134633   4.479   2.352   5.742  0.5596  0.4351 -1.1856
 4406TIP3    H234634   4.542   2.420   5.862 -0.0556  0.1576 -0.7040
 4407TIP3   OH234635   0.002   1.122  13.957  0.0224  0.1176 -0.2450
 4407TIP3    H134636  -0.067   1.143  13.894 -0.0044  0.9519  0.0618
 4407TIP3    H234637   0.055   1.202  13.962 -1.4936  0.9681  2.7893
 4408TIP3   OH234638   3.279   3.770   7.046 -0.1333  0.3032 -1.0249
 4408TIP3    H134639   3.239   3.851   7.014 -0.0859  0.3469 -0.9728
 4408TIP3    H234640   3.372   3.779   7.027 -0.1184  0.2891 -0.9602
 4409TIP3   OH234641   6.429   6.397   3.948 -0.4604 -0.0775  0.0870
 4409TIP3    H134642   6.436   6.442   3.864 -2.4193 -0.8770 -0.5259
 4409TIP3    H234643   6.483   6.318   3.937  2.2284  1.5815  0.8538
 4410TIP3   OH234644   5.273   3.343   2.899 -0.3232  0.2496  0.2651
 4410TIP3    H134645   5.183   3.312   2.884  0.0430 -0.9479  0.5208
 4410TIP3    H234646   5.274   3.430   2.861 -1.4374  0.0394 -0.2777
 4411TIP3   OH234647   5.589   1.688   2.716  0.7675  0.1631  0.1838
 4411TIP3    H134648   5.581   1.784   2.722  1.0852  0.1872  0.2790
 4411TIP3    H234649   5.506   1.654   2.749  0.1602  0.4332 -1.0254
 4412TIP3   OH234650   0.021   4.032   3.492 -0.0532 -0.2890  0.2703
 4412TIP3    H134651  -0.024   4.084   3.559 -0.3338  0.0925 -0.1971
 4412TIP3    H234652   0.111   4.064   3.493 -0.0462 -0.3188  0.5020
 4413TIP3   OH234653   3.699   4.964   4.518 -0.1266  0.3881 -0.0338
 4413TIP3    H134654   3.734   5.015   4.591 -2.3563 -0.0425  1.3997
 4413TIP3    H234655   3.608   4.947   4.543 -0.2852 -1.6897 -1.8936
 4414TIP3   OH234656   0.727   5.089   1.657  0.2313 -0.3017  0.0028
 4414TIP3    H134657   0.780   5.168   1.646  0.2743 -0.7313 -3.1120
 4414TIP3    H234658   0.786   5.017   1.638 -0.7861 -0.8955 -0.9810
 4415TIP3   OH234659   3.181   3.869   4.252 -0.0450 -0.0926 -0.3329
 4415TIP3    H134660   3.225   3.843   4.171 -1.4263 -0.4282 -0.9890
 4415TIP3    H234661   3.114   3.802   4.266  0.2839 -0.1223  1.1748
 4416TIP3   OH234662   5.590   4.208   4.634  0.6904 -0.0167  0.5388
 4416TIP3    H134663   5.571   4.124   4.676 -2.0729  0.1681 -0.2523
 4416TIP3    H234664   5.630   4.261   4.703 -1.2340 -0.6391  2.1683
 4417TIP3   OH234665   5.930   0.989  16.111  1.0605  0.6375  0.6874
 4417TIP3    H134666   5.923   0.953  16.199  0.4228 -0.9728 -0.0009
 4417TIP3    H234667   5.839   1.000  16.082  1.2659 -0.2469 -0.3199
 4418TIP3   OH234668   5.161   4.838  16.467  0.4264 -0.0665 -0.3757
 4418TIP3    H134669   5.086   4.837  16.526 -0.2162  0.5794 -1.1680
 4418TIP3    H234670   5.221   4.773  16.503 -0.1229  0.0450  0.7667
 4419TIP3   OH234671   5.227   4.603  14.895 -0.0376 -0.2549 -0.0449
 4419TIP3    H134672   5.241   4.637  14.983  0.7245 -1.1120  0.1714
 4419TIP3    H234673   5.296   4.643  14.842 -0.5060  0.2742 -0.2683
 4420TIP3   OH234674   6.391   2.386   1.595 -0.9135  0.2952  0.1300
 4420TIP3    H134675   6.359   2.298   1.613  0.4697  0.0581  1.4903
 4420TIP3    H234676   6.385   2.432   1.679 -2.9925  1.9678 -0.8595
 4421TIP3   OH234677   0.406   4.837  13.753 -0.7636  0.6108 -0.1926
 4421TIP3    H134678   0.319   4.799  13.744 -0.3894 -0.1034 -0.8353
 4421TIP3    H234679   0.424   4.877  13.667 -1.1993  2.3372  0.5033
 4422TIP3   OH234680   0.045   5.840  14.650  0.1070 -0.5388 -0.5001
 4422TIP3    H134681  -0.036   5.819  14.697 -0.9594  0.0184 -2.0630
 4422TIP3    H234682   0.112   5.788  14.695 -1.2867 -1.8414  0.1354
 4423TIP3   OH234683   4.267   5.309   2.495  0.5896 -0.1325  0.7611
 4423TIP3    H134684   4.204   5.248   2.456  0.2829  0.9610 -0.5177
 4423TIP3    H234685   4.349   5.260   2.498  0.1402 -0.9095  0.5721
 4424TIP3   OH234686   2.113   4.165   6.673  0.0607 -0.2285  0.2077
 4424TIP3    H134687   2.183   4.100   6.683  1.1641  0.9641  0.2784
 4424TIP3    H234688   2.126   4.227   6.744 -0.0371  0.9372 -0.7672
 4425TIP3   OH234689   1.977   5.220   1.852  0.3043  0.5676 -0.0601
 4425TIP3    H134690   1.920   5.159   1.900  2.5458 -0.0423  1.9268
 4425TIP3    H234691   2.016   5.167   1.783  0.8773  0.1857  0.5514
 4426TIP3   OH234692   2.651   0.448   1.960  0.0839  0.5200  0.2832
 4426TIP3    H134693   2.699   0.531   1.950  0.1412  0.2269 -2.0939
 4426TIP3    H234694   2.716   0.386   1.993  0.8558  0.5974 -1.0960
 4427TIP3   OH234695   1.921   3.749  12.465 -0.0286 -0.4175 -0.6805
 4427TIP3    H134696   1.907   3.667  12.511 -3.2108  0.2040 -0.3982
 4427TIP3    H234697   1.944   3.812  12.533  1.7207 -0.8847 -0.8116
 4428TIP3   OH234698   5.955   1.588  14.410 -0.0138  0.0853 -0.2241
 4428TIP3    H134699   5.893   1.606  14.480  0.9824  1.5640  0.2978
 4428TIP3    H234700   5.975   1.495  14.418 -1.1334 -0.1013  0.4327
 4429TIP3   OH234701   3.677   4.357   2.947  0.2890 -0.2256  0.9048
 4429TIP3    H134702   3.690   4.394   3.034  2.5408  0.2838  0.3934
 4429TIP3    H234703   3.663   4.432   2.890  2.4075 -0.2781  0.2690
 4430TIP3   OH234704   1.318   6.610   4.134 -0.5218  0.2474 -0.4000
 4430TIP3    H134705   1.361   6.553   4.069  0.6657  0.3822  0.2596
 4430TIP3    H234706   1.341   6.699   4.107 -0.7952  0.3466 -0.3127
 4431TIP3   OH234707   2.694   3.204  12.204  0.0184  0.6381 -0.2449
 4431TIP3    H134708   2.604   3.171  12.206 -0.0086  0.6642 -0.8572
 4431TIP3    H234709   2.728   3.185  12.291 -0.8253  1.3321  0.2438
 4432TIP3   OH234710   1.797   5.786   4.764 -0.0245  0.8099 -0.1392
 4432TIP3    H134711   1.844   5.775   4.681 -0.4604  2.0173 -0.5616
 4432TIP3    H234712   1.710   5.750   4.748 -0.3056  1.5868 -0.4125
 4433TIP3   OH234713   4.564   3.240  15.514 -0.9928 -0.3728  0.1873
 4433TIP3    H134714   4.497   3.299  15.480  1.4763  2.2004 -0.4119
 4433TIP3    H234715   4.564   3.256  15.609  0.3897  1.4511 -0.0903
 4434TIP3   OH234716   0.343   3.404  16.221 -0.3736  0.4751  0.5230
 4434TIP3    H134717   0.288   3.448  16.156  0.4606 -1.2277 -1.3675
 4434TIP3    H234718   0.432   3.427  16.196  0.1790 -3.4468 -1.4363
 4435TIP3   OH234719   5.508   3.187   5.137 -0.3863 -0.1952 -0.9620
 4435TIP3    H134720   5.482   3.146   5.054 -1.3414  1.1696 -1.3515
 4435TIP3    H234721   5.530   3.277   5.114 -1.6633  0.4977  0.4034
 4436TIP3   OH234722   3.139   2.611  15.188  0.3106 -0.2983 -0.3882
 4436TIP3    H134723   3.234   2.613  15.174  0.5216 -0.9781  0.8480
 4436TIP3    H234724   3.117   2.700  15.213  0.6290 -0.1348 -0.6852
 4437TIP3   OH234725   2.298   1.971  15.575  0.2311 -0.1078  0.3435
 4437TIP3    H134726   2.327   2.028  15.504  0.6029 -1.3199 -0.4944
 4437TIP3    H234727   2.257   1.896  15.530 -1.1545 -0.0213  1.4359
 4438TIP3   OH234728   3.377   0.039  12.695  0.5238  0.3280 -0.3427
 4438TIP3    H134729   3.337   0.027  12.781 -2.2071 -1.9527 -1.8305
 4438TIP3    H234730   3.446  -0.027  12.691  1.4688  1.2477  0.5299
 4439TIP3   OH234731   4.289   1.029   0.609 -0.3188  0.0902  0.8036
 4439TIP3    H134732   4.350   1.017   0.536 -1.5876 -2.0315  0.0670
 4439TIP3    H234733   4.222   1.088   0.576  0.5787  1.3348  1.1719
 4440TIP3   OH234734   5.869   2.106   3.747  0.2026  0.0432  0.1945
 4440TIP3    H134735   5.881   2.199   3.767 -1.0446  0.4233 -0.7451
 4440TIP3    H234736   5.797   2.079   3.804 -0.2156 -0.0505 -0.3796
 4441TIP3   OH234737   1.379   1.219  10.758  1.1120  0.7178 -0.0734
 4441TIP3    H134738   1.284   1.233  10.759  0.7028 -1.9761  0.4610
 4441TIP3    H234739   1.414   1.300  10.721 -1.3824  1.7915 -0.1889
 4442TIP3   OH234740   4.509   2.942   5.601 -0.1384 -0.3925 -0.3427
 4442TIP3    H134741   4.560   2.920   5.523  0.3534 -0.0689 -0.1136
 4442TIP3    H234742   4.434   2.991   5.568  0.3114  0.1471 -0.5723
 4443TIP3   OH234743   1.661   4.821   3.925 -0.0716 -0.7424 -0.8140
 4443TIP3    H134744   1.687   4.897   3.872 -0.0856 -0.9062 -1.0559
 4443TIP3    H234745   1.566   4.822   3.924 -0.0811  0.1040  0.4279
 4444TIP3   OH234746   2.446   6.619   1.096 -0.2204  0.2169 -0.1064
 4444TIP3    H134747   2.462   6.609   1.002 -0.8376  2.1713 -0.4529
 4444TIP3    H234748   2.351   6.609   1.105 -0.0286 -1.2652  0.5201
 4445TIP3   OH234749   3.167   2.725  13.057  0.5267 -0.4486  0.0445
 4445TIP3    H134750   3.212   2.660  13.003  0.1483 -0.1655 -0.6129
 4445TIP3    H234751   3.238   2.768  13.105  0.8115 -1.0912  0.2096
 4446TIP3   OH234752   3.606   3.597   5.636 -0.1216  0.6016  0.0783
 4446TIP3    H134753   3.520   3.600   5.677 -0.2041 -0.0270 -0.0541
 4446TIP3    H234754   3.590   3.628   5.546 -0.4505 -0.7970 -0.3581
 4447TIP3   OH234755   6.576   0.593   1.809 -0.3735  0.0824 -0.0292
 4447TIP3    H134756   6.606   0.673   1.765  0.9689  0.4808  1.5454
 4447TIP3    H234757   6.506   0.623   1.867 -0.2354  0.0465  0.1595
 4448TIP3   OH234758   6.452   3.061  11.626 -0.3635 -0.3949 -0.0134
 4448TIP3    H134759   6.438   3.066  11.532  0.5867 -0.1624 -0.1454
 4448TIP3    H234760   6.492   2.975  11.640 -2.3320 -1.2673  0.4232
 4449TIP3   OH234761   1.802   0.945  11.937 -0.0682 -0.1834 -0.7018
 4449TIP3    H134762   1.837   0.856  11.945 -1.6882 -0.7516  0.2987
 4449TIP3    H234763   1.789   0.974  12.027  1.3846  1.4672 -0.9999
 4450TIP3   OH234764   4.376   0.068  11.449 -0.2955  0.0553  0.0087
 4450TIP3    H134765   4.323   0.084  11.371 -0.7342 -0.1691  0.2573
 4450TIP3    H234766   4.466   0.078  11.419 -0.4319 -0.8362 -0.7120
 4451TIP3   OH234767   4.679   1.988   3.710  0.2327  0.5258 -0.0987
 4451TIP3    H134768   4.661   2.027   3.795 -1.3258  0.5924 -0.4520
 4451TIP3    H234769   4.721   2.057   3.660  1.2379  0.4606  0.6316
 4452TIP3   OH234770   5.809   4.616  16.492 -0.2870 -0.5422 -0.4312
 4452TIP3    H134771   5.829   4.580  16.406 -1.9195  0.7289 -1.3745
 4452TIP3    H234772   5.766   4.699  16.474  0.9941  0.6201  1.6549
 4453TIP3   OH234773   2.228   1.683  16.227  0.1527 -0.3371  0.2355
 4453TIP3    H134774   2.223   1.661  16.320  0.1069  0.3826  0.4105
 4453TIP3    H234775   2.279   1.765  16.225  0.8842 -0.8022 -0.4404
 4454TIP3   OH234776   6.055   0.351   2.423  0.1735 -0.1588  0.5350
 4454TIP3    H134777   6.029   0.265   2.455 -0.2115  0.1728  1.1154
 4454TIP3    H234778   6.101   0.392   2.496 -0.6179  0.5581  0.6415
 4455TIP3   OH234779   6.776   5.576  13.771  0.0575 -0.5610  0.1036
 4455TIP3    H134780   6.820   5.645  13.820 -0.0476 -0.8401  0.5967
 4455TIP3    H234781   6.685   5.606  13.763  0.5251  0.4601 -1.7405
 4456TIP3   OH234782   2.478   4.430   3.485  0.2262  0.0689 -0.1032
 4456TIP3    H134783   2.461   4.384   3.403 -1.8987 -0.2894  0.5018
 4456TIP3    H234784   2.476   4.523   3.462  0.7701 -0.0521 -0.6491
 4457TIP3   OH234785   3.457   2.538   3.254  0.1412 -0.0426  0.6756
 4457TIP3    H134786   3.377   2.502   3.214  0.5023  1.1337 -1.1856
 4457TIP3    H234787   3.443   2.633   3.253  1.3898  0.1470  0.7329
 4458TIP3   OH234788   4.694   0.155   1.178  0.0767 -0.1628 -0.5668
 4458TIP3    H134789   4.620   0.111   1.220  1.1989  0.2394  1.8892
 4458TIP3    H234790   4.750   0.083   1.148  0.0630 -0.4384  0.0615
 4459TIP3   OH234791   5.493   3.644   5.811  0.5292  0.5387  0.2913
 4459TIP3    H134792   5.458   3.667   5.897  1.1329  0.3774  0.5842
 4459TIP3    H234793   5.551   3.718   5.789 -0.0614  0.8489 -0.2278
 4460TIP3   OH234794   2.291   5.368  11.065  0.4733 -0.1740  0.0150
 4460TIP3    H134795   2.308   5.294  11.123 -0.9073  1.6767  2.8819
 4460TIP3    H234796   2.200   5.357  11.039  0.2235  0.5591  0.5597
 4461TIP3   OH234797   2.412   2.559  11.811 -0.3674 -0.2695  0.0378
 4461TIP3    H134798   2.434   2.539  11.902  0.3833  1.7653  0.3277
 4461TIP3    H234799   2.390   2.474  11.773 -0.6211 -1.1653  2.0886
 4462TIP3   OH234800   1.592   0.013   2.079 -0.3429 -0.4278 -0.0388
 4462TIP3    H134801   1.563   0.094   2.122 -1.3523 -0.1166 -1.2756
 4462TIP3    H234802   1.638   0.042   2.001 -0.4842 -1.0431 -0.3552
 4463TIP3   OH234803   0.855   5.264  14.434  0.1829  0.1939  0.1523
 4463TIP3    H134804   0.909   5.317  14.492 -0.2734  0.7779  0.0473
 4463TIP3    H234805   0.910   5.188  14.413  0.8713  0.6647  0.2294
 4464TIP3   OH234806   5.599   1.826   3.848  0.2627 -0.5416  0.0741
 4464TIP3    H134807   5.603   1.908   3.898  0.8148 -0.2257 -0.4920
 4464TIP3    H234808   5.513   1.828   3.807 -0.8383 -1.5190  2.2226
 4465TIP3   OH234809   0.572   3.659  11.637 -0.7565 -0.1662  0.0297
 4465TIP3    H134810   0.611   3.712  11.568  0.0754 -0.7982 -0.0018
 4465TIP3    H234811   0.542   3.722  11.703  1.7081  0.2752  0.7795
 4466TIP3   OH234812   2.640   0.477   1.531  0.1660 -0.2188 -0.1500
 4466TIP3    H134813   2.650   0.561   1.575 -1.6723 -0.8587  1.5309
 4466TIP3    H234814   2.707   0.421   1.571 -0.8262 -0.5051  1.1385
 4467TIP3   OH234815   6.416   2.128   2.830  0.1772 -0.0420 -0.0983
 4467TIP3    H134816   6.444   2.097   2.744 -0.4305  1.1599 -0.7406
 4467TIP3    H234817   6.480   2.092   2.891  0.9089 -0.4739 -1.1156
 4468TIP3   OH234818   2.750   5.789   0.422 -0.1325  0.1863  0.0507
 4468TIP3    H134819   2.709   5.759   0.503 -1.3373  0.1602 -0.5614
 4468TIP3    H234820   2.700   5.747   0.353  2.9146 -2.4171 -0.6774
 4469TIP3   OH234821   0.560   5.373   5.514  0.0811  0.2218  0.4695
 4469TIP3    H134822   0.483   5.382   5.569 -1.4397 -0.7229 -1.4372
 4469TIP3    H234823   0.527   5.379   5.424  2.3754  0.9262 -0.3930
 4470TIP3   OH234824   2.683   5.428  16.887 -0.3940  0.2806 -0.0757
 4470TIP3    H134825   2.590   5.420  16.908 -0.3016  1.2334  0.7172
 4470TIP3    H234826   2.700   5.522  16.888  0.4989  0.1285 -0.5707
 4471TIP3   OH234827   6.475   2.607  15.220  0.2427  0.4053 -0.3206
 4471TIP3    H134828   6.547   2.663  15.192  1.0368 -0.1497  0.5900
 4471TIP3    H234829   6.510   2.556  15.293 -0.5727 -1.0021 -0.8790
 4472TIP3   OH234830   5.421   5.482  14.905 -0.0153 -0.2571 -0.2034
 4472TIP3    H134831   5.369   5.529  14.840  0.3900  0.0298 -0.3251
 4472TIP3    H234832   5.445   5.400  14.862 -2.2525 -1.3835  0.6618
 4473TIP3   OH234833   3.533   1.726   0.992 -0.0888  1.0264  0.2782
 4473TIP3    H134834   3.502   1.721   0.901 -1.1902 -0.3889  0.7086
 4473TIP3    H234835   3.546   1.634   1.017  2.8857  1.4932  0.6773
 4474TIP3   OH234836   2.592   0.721   3.839 -0.1456 -0.1942  0.4520
 4474TIP3    H134837   2.511   0.674   3.857  0.2380 -0.9767  0.1725
 4474TIP3    H234838   2.572   0.776   3.764  0.5730 -3.1072 -2.0111
 4475TIP3   OH234839   0.339   0.506  16.810  0.0097  0.2344 -0.1243
 4475TIP3    H134840   0.354   0.490  16.717  2.5889 -1.0883  0.4450
 4475TIP3    H234841   0.351   0.420  16.851  1.8183  1.2866  1.7054
 4476TIP3   OH234842   2.437   6.375   4.171 -0.2314  0.2204 -0.1484
 4476TIP3    H134843   2.471   6.298   4.216  0.3115  1.1773  1.1109
 4476TIP3    H234844   2.366   6.407   4.227  0.9703  1.8842  0.4562
 4477TIP3   OH234845   0.336   0.203  11.517 -0.0154 -0.2325  0.0877
 4477TIP3    H134846   0.408   0.190  11.455 -0.9192  1.0125 -1.2627
 4477TIP3    H234847   0.341   0.295  11.541 -0.9107 -0.2220  0.2710
 4478TIP3   OH234848   0.379   5.808  11.982 -0.2326  0.6196  0.3131
 4478TIP3    H134849   0.449   5.750  11.952 -0.3517  1.0767 -0.8694
 4478TIP3    H234850   0.309   5.749  12.010  0.5902  0.1652  1.4223
 4479TIP3   OH234851   1.736   2.794   2.232 -0.5868  0.3799  0.2647
 4479TIP3    H134852   1.688   2.757   2.305  0.0219 -0.0944  0.4254
 4479TIP3    H234853   1.758   2.883   2.260  1.0395 -0.3302  1.3158
 4480TIP3   OH234854   4.793   0.169   3.965 -0.2532  0.3158  0.0768
 4480TIP3    H134855   4.815   0.134   4.051  0.1809  2.0743  0.6965
 4480TIP3    H234856   4.834   0.108   3.903  2.7672  1.1586  1.1638
 4481TIP3   OH234857   4.865   3.631   0.452 -0.2532 -0.2894  0.8833
 4481TIP3    H134858   4.789   3.674   0.413  0.2051  0.4279  0.7743
 4481TIP3    H234859   4.930   3.701   0.462  0.9660 -1.1770 -0.4550
 4482TIP3   OH234860   3.996   5.800   6.462 -0.6396  0.9640  0.3797
 4482TIP3    H134861   4.042   5.738   6.519  0.2893  1.1549 -0.1466
 4482TIP3    H234862   3.931   5.748   6.416  0.4447  0.2827 -0.4016
 4483TIP3   OH234863   4.302   3.598   5.398 -0.0656 -0.2110  0.1013
 4483TIP3    H134864   4.252   3.517   5.387 -0.8131  0.2066  0.3628
 4483TIP3    H234865   4.291   3.622   5.490 -0.4366  0.5591 -0.1336
 4484TIP3   OH234866   2.108   2.555   1.530 -0.2942 -0.4116  0.1156
 4484TIP3    H134867   2.079   2.518   1.447 -1.1438 -0.9514  0.6396
 4484TIP3    H234868   2.200   2.578   1.516 -0.9259  1.1687 -1.5208
 4485TIP3   OH234869   0.938   6.485   0.233 -0.3482 -0.4363 -0.6926
 4485TIP3    H134870   0.974   6.498   0.320  0.5900 -1.6437 -0.8905
 4485TIP3    H234871   0.953   6.393   0.214 -2.2233 -0.6139 -1.3876
 4486TIP3   OH234872   2.232   5.605  10.804  0.0527  0.0702  0.1557
 4486TIP3    H134873   2.202   5.517  10.783 -0.0811  0.0706  0.3410
 4486TIP3    H234874   2.156   5.647  10.845 -0.3453  0.7396 -1.2178
 4487TIP3   OH234875   5.744   0.315  16.483  0.0729 -0.0543  0.0281
 4487TIP3    H134876   5.676   0.264  16.527 -1.0924  0.4290 -1.1748
 4487TIP3    H234877   5.723   0.406  16.505  1.0229  0.0341  0.5984
 4488TIP3   OH234878   4.427   4.957  12.089 -0.5999  0.4257  0.1762
 4488TIP3    H134879   4.503   4.898  12.090 -0.6241  0.3795 -0.3732
 4488TIP3    H234880   4.459   5.037  12.049 -0.8979  0.3196 -0.2875
 4489TIP3   OH234881   6.427   6.008  12.704  0.4378 -0.0234 -0.0322
 4489TIP3    H134882   6.508   6.059  12.700 -0.7447  1.8852 -0.3378
 4489TIP3    H234883   6.422   5.966  12.618 -0.9885  3.2520 -1.6627
 4490TIP3   OH234884   1.700   0.405   3.093  0.1299  0.3227 -0.0724
 4490TIP3    H134885   1.713   0.415   3.188  0.5192  1.4625 -0.2350
 4490TIP3    H234886   1.627   0.464   3.073 -1.4247 -1.5943 -0.1286
 4491TIP3   OH234887   4.633   3.563  15.306 -1.0123 -0.2029  0.8749
 4491TIP3    H134888   4.713   3.580  15.256 -0.5641 -1.4811  1.1497
 4491TIP3    H234889   4.584   3.645  15.301  0.3061  0.5862  0.6908
 4492TIP3   OH234890   3.037   3.844  15.522  0.3336  0.4466 -0.0608
 4492TIP3    H134891   3.034   3.852  15.617 -0.7942  0.8476 -0.1224
 4492TIP3    H234892   3.013   3.931  15.490  2.3306  0.7798 -0.7231
 4493TIP3   OH234893   5.870   2.143   4.736  0.1762  0.6547 -0.0276
 4493TIP3    H134894   5.813   2.217   4.756  0.9005  1.1729  0.1119
 4493TIP3    H234895   5.955   2.182   4.718  0.2487 -0.0347 -1.2351
 4494TIP3   OH234896   6.096   3.859   1.811  0.2710 -1.0478  0.3091
 4494TIP3    H134897   6.163   3.792   1.794  0.3820 -1.2792  1.6090
 4494TIP3    H234898   6.142   3.942   1.796  0.5628 -1.2274  0.1934
 4495TIP3   OH234899   0.619   5.069   0.610  0.1747 -0.4108 -0.8088
 4495TIP3    H134900   0.695   5.118   0.641  0.1750  0.0890 -1.6180
 4495TIP3    H234901   0.547   5.101   0.664  0.3514 -0.2035 -0.6921
 4496TIP3   OH234902   1.382   5.760  16.700 -0.0108  0.1133 -0.0013
 4496TIP3    H134903   1.376   5.710  16.782 -0.1891 -1.1302 -0.7541
 4496TIP3    H234904   1.404   5.849  16.728 -0.3886 -0.2175  1.4201
 4497TIP3   OH234905   5.640   6.072   4.762  0.7141 -0.0720  0.5597
 4497TIP3    H134906   5.592   5.999   4.722  2.4039 -1.7152  1.4582
 4497TIP3    H234907   5.693   6.108   4.691  0.2644 -0.0413  0.2390
 4498TIP3   OH234908   5.398   4.475  13.747 -0.2451 -0.3227  0.1049
 4498TIP3    H134909   5.320   4.523  13.774  0.8549  1.4466  0.1635
 4498TIP3    H234910   5.460   4.486  13.819  0.9929  0.4405 -1.0554
 4499TIP3   OH234911   6.092   5.480   3.966 -0.2637  0.0867 -0.2031
 4499TIP3    H134912   6.149   5.493   3.890  0.5635 -1.1707  0.2028
 4499TIP3    H234913   6.107   5.558   4.020 -1.1465  1.1825 -1.4947
 4500TIP3   OH234914   3.712   4.059   2.020  0.5573  0.3787  0.1228
 4500TIP3    H134915   3.710   4.089   2.111  0.3949  0.0655  0.2216
 4500TIP3    H234916   3.781   3.992   2.018  1.3101  1.1547 -0.2220
 4501TIP3   OH234917   3.440   5.236  12.251 -0.2214  0.1870 -0.2901
 4501TIP3    H134918   3.516   5.294  12.247 -0.1971  0.0401 -2.6066
 4501TIP3    H234919   3.476   5.148  12.249 -0.4911  0.1095 -3.3733
 4502TIP3   OH234920   5.457   2.651   5.275 -0.2659  0.6327  0.1338
 4502TIP3    H134921   5.404   2.626   5.350 -1.1600  1.4644 -0.2095
 4502TIP3    H234922   5.516   2.577   5.262 -1.8946 -0.6901  0.0241
 4503TIP3   OH234923   1.929   2.160   2.020  0.6393 -0.3250  0.0159
 4503TIP3    H134924   1.992   2.110   1.968  1.5279  2.5387 -1.7534
 4503TIP3    H234925   1.981   2.215   2.077 -0.1386  3.1354 -2.4861
 4504TIP3   OH234926   4.889   2.570  11.676 -0.4899  0.1245 -0.6488
 4504TIP3    H134927   4.932   2.578  11.761 -0.9448  0.7988 -0.4697
 4504TIP3    H234928   4.878   2.476  11.662 -0.7398  0.0258  0.2079
 4505TIP3   OH234929   6.614   1.068   4.527  0.7806 -0.3524  0.2582
 4505TIP3    H134930   6.601   1.007   4.600 -0.7966 -0.8672 -0.4356
 4505TIP3    H234931   6.556   1.142   4.548  0.4265 -0.4399 -0.3929
 4506TIP3   OH234932   4.059   2.007   3.988  0.0436  0.3217  0.2521
 4506TIP3    H134933   4.130   2.064   3.960  0.2820 -0.7809 -1.4407
 4506TIP3    H234934   4.076   1.990   4.081  1.7550  0.4008 -0.0457
 4507TIP3   OH234935   4.174   2.955   5.945  0.6361  0.2230 -0.3381
 4507TIP3    H134936   4.100   2.993   5.898 -0.2808  0.2454  1.1015
 4507TIP3    H234937   4.224   3.030   5.977  0.8142  0.2070 -0.5759
 4508TIP3   OH234938   2.787   4.107  15.902 -0.2665 -0.0418  0.3381
 4508TIP3    H134939   2.763   4.063  15.820 -0.0608  0.5370 -0.0441
 4508TIP3    H234940   2.733   4.186  15.903  0.5124  0.5016  0.2238
 4509TIP3   OH234941   3.582   1.037   0.380  0.9586  0.1521 -0.2004
 4509TIP3    H134942   3.643   1.090   0.431  2.2793 -0.7887 -0.8014
 4509TIP3    H234943   3.587   1.073   0.292  1.5349 -0.6924 -0.5130
 4510TIP3   OH234944   1.861   0.018   2.459 -0.5192 -0.0096 -0.0029
 4510TIP3    H134945   1.855   0.006   2.364 -0.8760  0.9555 -0.1123
 4510TIP3    H234946   1.770   0.014   2.489 -0.7024  2.5238 -0.0844
 4511TIP3   OH234947   4.805   2.377  13.505  0.1379 -0.0485  0.0939
 4511TIP3    H134948   4.824   2.405  13.595  1.0265  2.1698 -0.7409
 4511TIP3    H234949   4.742   2.306  13.515  0.1890  0.1806  2.4687
 4512TIP3   OH234950   3.808   1.815  13.853 -0.8746  0.1473  0.4235
 4512TIP3    H134951   3.733   1.869  13.829  1.4704  1.9818 -3.2473
 4512TIP3    H234952   3.817   1.753  13.781  1.3354  0.2022  0.6140
 4513TIP3   OH234953   3.469   1.171   2.696 -0.9164 -0.0535 -0.5866
 4513TIP3    H134954   3.501   1.081   2.693 -1.5162 -0.2400 -1.8123
 4513TIP3    H234955   3.378   1.162   2.725 -0.7886  0.2167 -0.0998
 4514TIP3   OH234956   1.863   4.585   5.116 -0.6918 -0.0258  0.1770
 4514TIP3    H134957   1.954   4.571   5.091 -0.4426  0.4361  0.7862
 4514TIP3    H234958   1.864   4.584   5.212 -1.2053  0.6963  0.1995
 4515TIP3   OH234959   3.864   5.439  16.557 -0.3425 -0.2646  0.1974
 4515TIP3    H134960   3.776   5.463  16.585 -0.1404 -0.5870  1.1320
 4515TIP3    H234961   3.850   5.383  16.480 -0.9022  0.6770 -0.3938
 4516TIP3   OH234962   3.602   3.560   1.405  0.2924 -0.3284  0.7972
 4516TIP3    H134963   3.614   3.653   1.385  1.5919 -0.7133 -0.2901
 4516TIP3    H234964   3.628   3.514   1.325 -0.0691 -1.6429  1.4157
 4517TIP3   OH234965   3.107   3.432  15.567 -0.4170 -0.3842  0.2340
 4517TIP3    H134966   3.130   3.503  15.628 -1.1561 -0.6916  0.8671
 4517TIP3    H234967   3.017   3.451  15.541 -0.1030 -0.2413 -0.7996
 4518TIP3   OH234968   3.586   2.027   2.111  0.0453 -0.1495  0.5344
 4518TIP3    H134969   3.571   2.118   2.136 -1.0149 -0.2597  0.3463
 4518TIP3    H234970   3.600   2.030   2.017 -1.0444 -0.2824  0.3559
 4519TIP3   OH234971   1.971   3.586   0.655  0.0153 -0.1969  0.6295
 4519TIP3    H134972   1.926   3.502   0.647  1.1337 -0.7829  0.2673
 4519TIP3    H234973   2.064   3.563   0.657  0.3114  0.9914  1.1650
 4520TIP3   OH234974   2.933   0.485   4.757 -0.0338 -0.4315 -0.1392
 4520TIP3    H134975   2.900   0.414   4.701 -0.5158  0.8190 -1.4476
 4520TIP3    H234976   3.012   0.515   4.713  0.9619 -1.0818  1.1677
 4521TIP3   OH234977   1.102   4.515  13.770  0.1633 -0.0903  0.0342
 4521TIP3    H134978   1.069   4.603  13.786 -0.0854 -0.3384  0.9093
 4521TIP3    H234979   1.170   4.527  13.703 -0.1310  0.7096 -0.1319
 4522TIP3   OH234980   1.072   2.468  10.428  0.3762 -0.2067 -0.2253
 4522TIP3    H134981   1.152   2.490  10.379 -1.0653  0.4511 -2.3492
 4522TIP3    H234982   1.027   2.552  10.438 -0.9488 -0.8420 -0.7027
 4523TIP3   OH234983   3.962   6.539  15.176 -0.1020  0.3388  0.4411
 4523TIP3    H134984   4.006   6.463  15.138 -0.2976 -0.7822  2.3667
 4523TIP3    H234985   3.875   6.506  15.200  0.1331  0.9109  2.1270
 4524TIP3   OH234986   3.474   0.875   4.588  0.0027 -0.0847  0.2268
 4524TIP3    H134987   3.530   0.829   4.651 -0.9998 -0.5937  0.7613
 4524TIP3    H234988   3.501   0.967   4.594  0.7267 -0.3139  0.5273
 4525TIP3   OH234989   6.194   5.451  14.324 -0.2570  0.0339  0.1763
 4525TIP3    H134990   6.173   5.403  14.244  0.7621 -2.8800  1.5797
 4525TIP3    H234991   6.110   5.472  14.363 -0.7571 -3.3337  1.0483
 4526TIP3   OH234992   5.795   5.233  12.664 -0.2260 -0.0183  0.0515
 4526TIP3    H134993   5.810   5.142  12.688  0.5987  0.0219 -0.2911
 4526TIP3    H234994   5.699   5.242  12.659 -0.5278  0.3495  4.7035
 4527TIP3   OH234995   0.593   1.268  11.730 -0.1415 -0.1174 -0.0945
 4527TIP3    H134996   0.514   1.313  11.759  0.2938  1.4317 -1.2431
 4527TIP3    H234997   0.639   1.245  11.811 -1.5441 -0.6470  0.5627
 4528TIP3   OH234998   6.003   5.319  11.201  0.5549 -0.5778  0.3012
 4528TIP3    H134999   5.931   5.269  11.241  0.1505 -0.7405 -0.6228
 4528TIP3    H235000   6.026   5.269  11.123  0.7015  0.2483 -0.1850
 4529TIP3   OH235001   1.896   3.677   3.123  0.1279 -0.5110  0.6999
 4529TIP3    H135002   1.800   3.673   3.117  0.0847  0.9088  0.1558
 4529TIP3    H235003   1.926   3.627   3.047 -0.1794 -1.3817  1.1512
 4530TIP3   OH235004   5.132   0.550   2.305 -0.0291  0.5350  0.1883
 4530TIP3    H135005   5.186   0.558   2.384  0.6238 -2.2916  0.0800
 4530TIP3    H235006   5.156   0.625   2.252  3.5934 -0.4660  0.3092
 4531TIP3   OH235007   4.732   5.626  11.624  0.4256 -0.2816  0.9715
 4531TIP3    H135008   4.648   5.580  11.622  0.4231 -0.2797  1.0210
 4531TIP3    H235009   4.713   5.709  11.667  0.6614 -0.7118  1.9195
 4532TIP3   OH235010   1.145   1.209  13.187 -0.4109 -0.3130  0.3507
 4532TIP3    H135011   1.130   1.115  13.175 -1.2351 -0.2174  0.6297
 4532TIP3    H235012   1.075   1.251  13.137 -1.4889  0.1293  2.2152
 4533TIP3   OH235013   3.440   1.380   0.266  0.1788  0.5179 -0.3495
 4533TIP3    H135014   3.419   1.442   0.335  0.7938  0.0261  0.2883
 4533TIP3    H235015   3.359   1.372   0.215 -0.7262 -0.1801  1.1472
 4534TIP3   OH235016   0.910   4.985   1.234  0.4506  0.1987 -0.4699
 4534TIP3    H135017   0.974   5.027   1.176  1.1729 -0.8109 -0.4252
 4534TIP3    H235018   0.862   4.925   1.177 -0.5405  1.0216 -0.5220
 4535TIP3   OH235019   4.010   4.927   4.342  0.8537  0.2418  0.4550
 4535TIP3    H135020   3.937   4.913   4.281  1.5577 -0.7631 -0.1618
 4535TIP3    H235021   3.995   5.016   4.376 -0.1349  0.4103 -0.3685
 4536TIP3   OH235022   1.865   2.681  13.521  0.1774  0.0965 -0.2125
 4536TIP3    H135023   1.831   2.592  13.531  2.7384 -0.9644 -0.5899
 4536TIP3    H235024   1.948   2.680  13.567  0.1356  2.3801 -0.0466
 4537TIP3   OH235025   3.439   6.223  13.366 -0.0616 -0.8576 -0.2508
 4537TIP3    H135026   3.509   6.285  13.384  0.0865 -0.5834 -1.6780
 4537TIP3    H235027   3.425   6.178  13.449  0.6875  0.2089  0.4719
 4538TIP3   OH235028   6.570   6.064   4.275  0.4765  0.3309 -0.3350
 4538TIP3    H135029   6.615   5.983   4.300 -1.6097 -0.4908  0.8683
 4538TIP3    H235030   6.591   6.076   4.183  2.0518 -0.7560 -0.1331
 4539TIP3   OH235031   3.212   1.579  13.601  0.3844 -0.0635 -0.4321
 4539TIP3    H135032   3.212   1.669  13.634  1.6527 -0.0796 -0.3687
 4539TIP3    H235033   3.305   1.554  13.599  0.0279 -1.4291 -0.2852
 4540TIP3   OH235034   6.749   0.342   0.423  0.2672  0.1742  0.2536
 4540TIP3    H135035   6.668   0.364   0.378  0.3284  0.0030  0.0607
 4540TIP3    H235036   6.788   0.426   0.445  0.7336  0.2632 -0.8859
 4541TIP3   OH235037   1.967   0.953   3.280 -0.8213  0.1429  0.2367
 4541TIP3    H135038   1.977   1.031   3.226 -0.6196  0.6726  1.0277
 4541TIP3    H235039   1.970   0.880   3.218  0.2121  0.6983 -0.3742
 4542TIP3   OH235040   1.148   2.043   0.763 -0.6183  0.0298  0.3337
 4542TIP3    H135041   1.201   2.116   0.731 -3.0509  0.9204 -1.8914
 4542TIP3    H235042   1.199   1.965   0.740  0.2755  0.9046 -0.7319
 4543TIP3   OH235043   0.555   0.672  13.245  0.1331  1.0894  0.2962
 4543TIP3    H135044   0.530   0.763  13.255 -0.2946  0.7589  2.6593
 4543TIP3    H235045   0.634   0.663  13.299  1.8971  0.7205 -2.2564
 4544TIP3   OH235046   2.909   3.188  14.597  0.0525 -0.1938  0.0751
 4544TIP3    H135047   2.900   3.270  14.548  0.1267  0.6214  1.3839
 4544TIP3    H235048   2.922   3.121  14.530 -3.2522  0.3636 -1.2128
 4545TIP3   OH235049   6.375   4.816   4.078  0.2790  0.3092  0.6605
 4545TIP3    H135050   6.471   4.820   4.084  0.4133 -1.8654  0.5655
 4545TIP3    H235051   6.354   4.728   4.109 -1.7971  1.1997  1.8231
 4546TIP3   OH235052   2.172   3.375  14.613 -0.1397 -0.2458  0.2616
 4546TIP3    H135053   2.167   3.448  14.675 -2.6157 -1.8559  2.0515
 4546TIP3    H235054   2.115   3.401  14.541 -0.2566  0.0286  0.4508
 4547TIP3   OH235055   1.073   1.592  13.152  0.4658  0.1464 -0.3782
 4547TIP3    H135056   1.139   1.537  13.194  0.5324 -1.0860 -2.0174
 4547TIP3    H235057   1.110   1.612  13.066 -1.0920 -0.2513 -1.1735
 4548TIP3   OH235058   3.545   2.326   5.286  0.3045  0.3386  0.3991
 4548TIP3    H135059   3.567   2.271   5.211  0.2981  1.1338 -0.1866
 4548TIP3    H235060   3.546   2.415   5.252  0.8539  0.7497  1.4745
 4549TIP3   OH235061   5.203   1.701  13.129  0.2859 -0.4777 -0.8336
 4549TIP3    H135062   5.263   1.739  13.064  0.2621 -1.7305 -1.5887
 4549TIP3    H235063   5.119   1.696  13.084  0.0487 -0.5009 -0.3932
 4550TIP3   OH235064   3.077   1.785   1.528  0.3139 -0.1959  0.0707
 4550TIP3    H135065   3.020   1.801   1.603  0.2864 -1.4724  0.3439
 4550TIP3    H235066   3.078   1.867   1.480 -0.8188  0.1925  0.6972
 4551TIP3   OH235067   2.544   4.990  11.050 -0.3664  0.8481 -0.1235
 4551TIP3    H135068   2.581   5.031  10.972  2.1219 -0.2742  0.4370
 4551TIP3    H235069   2.565   4.898  11.041 -1.2886  0.4979  1.2209
 4552TIP3   OH235070   5.121   0.923   6.424  0.6273  0.0974  0.1591
 4552TIP3    H135071   5.039   0.881   6.451  0.0691  0.5048 -0.8675
 4552TIP3    H235072   5.147   0.977   6.498  0.0671 -0.1783  0.5573
 4553TIP3   OH235073   2.732   6.518  13.586  0.5984 -0.3084 -0.2597
 4553TIP3    H135074   2.649   6.524  13.539 -0.3952 -0.8004  1.3993
 4553TIP3    H235075   2.763   6.430  13.568  1.6786  0.4400 -2.3245
 4554TIP3   OH235076   0.436   2.668   4.746  0.0348 -0.4646  0.2244
 4554TIP3    H135077   0.496   2.632   4.681 -0.8784 -0.9413 -0.3550
 4554TIP3    H235078   0.474   2.642   4.830  0.9552 -0.2590 -0.1151
 4555TIP3   OH235079   0.788   3.294   3.694 -0.4357 -0.6883 -0.2231
 4555TIP3    H135080   0.781   3.384   3.724 -2.6299 -1.1819  0.8472
 4555TIP3    H235081   0.882   3.276   3.693 -0.1086  0.6127  2.6164
 4556TIP3   OH235082   1.203   0.810   5.895  0.2002  0.2997  0.2411
 4556TIP3    H135083   1.144   0.776   5.828  1.6758 -1.2089 -0.3483
 4556TIP3    H235084   1.237   0.891   5.858  1.6368 -0.9461 -1.2454
 4557TIP3   OH235085   3.795   2.746  14.140  0.0497  0.0806  0.0498
 4557TIP3    H135086   3.772   2.745  14.047  0.2816  0.1392 -0.0098
 4557TIP3    H235087   3.731   2.688  14.181  0.4491 -0.6141 -0.2755
 4558TIP3   OH235088   4.109   1.991  12.516  0.4934  0.0329  0.2486
 4558TIP3    H135089   4.023   2.033  12.513  1.1197  1.2733 -0.5792
 4558TIP3    H235090   4.160   2.035  12.449  2.3708  0.6148  2.0026
 4559TIP3   OH235091   6.535   1.006  13.585  0.6899 -0.4883 -0.4057
 4559TIP3    H135092   6.572   1.031  13.670  0.8721 -0.7599 -0.4031
 4559TIP3    H235093   6.444   1.033  13.590  0.8385 -0.0004 -0.3312
 4560TIP3   OH235094   2.110   3.039  12.506  0.2051 -0.0291  0.3728
 4560TIP3    H135095   2.136   2.952  12.476  1.0687  0.1257  0.6626
 4560TIP3    H235096   2.147   3.099  12.442 -2.2377  0.0246 -1.0535
 4561TIP3   OH235097   5.037   6.617  11.626  0.0056  0.4379 -0.0421
 4561TIP3    H135098   4.945   6.592  11.631 -0.0235  0.8065  1.7458
 4561TIP3    H235099   5.036   6.713  11.622  0.2961  0.4141 -0.8393
 4562TIP3   OH235100   0.871   5.285  11.276  0.0776 -0.0498  0.0152
 4562TIP3    H135101   0.831   5.304  11.191 -0.0256 -1.5805 -0.3026
 4562TIP3    H235102   0.853   5.192  11.290 -1.1795  0.5294  2.4050
 4563TIP3   OH235103   3.899   1.385  13.022 -0.4153 -0.2214 -0.1022
 4563TIP3    H135104   3.865   1.371  12.934 -0.6197  1.1853 -0.2592
 4563TIP3    H235105   3.879   1.476  13.041  2.2951  0.3401  0.2287
 4564TIP3   OH235106   5.841   4.218   0.700  0.4231 -0.0751 -0.1465
 4564TIP3    H135107   5.920   4.252   0.657  0.6857 -0.5135 -0.0091
 4564TIP3    H235108   5.832   4.271   0.779 -0.3845  1.1221 -1.0255
 4565TIP3   OH235109   2.927   4.547  11.987 -0.1590 -0.9530  0.6266
 4565TIP3    H135110   2.865   4.551  11.914 -0.3971 -0.7856  0.8390
 4565TIP3    H235111   2.948   4.639  12.005  0.3019 -1.0169  0.4251
 4566TIP3   OH235112   1.066   2.614  17.123 -0.1428 -0.1063  0.0493
 4566TIP3    H135113   0.993   2.552  17.130 -1.3565  1.4190  1.1791
 4566TIP3    H235114   1.071   2.634  17.029 -0.7125 -0.7381 -0.1243
 4567TIP3   OH235115   2.375   6.503   5.869  0.4009  0.1741 -0.1895
 4567TIP3    H135116   2.463   6.467   5.880  0.8589  1.3256  0.0352
 4567TIP3    H235117   2.327   6.473   5.946  0.8033  0.1347  0.0470
 4568TIP3   OH235118   0.870   2.926   0.631 -0.0220 -0.1570  0.1839
 4568TIP3    H135119   0.887   2.843   0.586 -2.0795 -1.4982  1.7996
 4568TIP3    H235120   0.812   2.974   0.572  0.9709  0.0573 -0.6371
 4569TIP3   OH235121   0.436   3.201   1.828 -0.0112 -0.3868 -0.2803
 4569TIP3    H135122   0.359   3.210   1.772  1.3588  2.2394 -1.8409
 4569TIP3    H235123   0.403   3.167   1.911 -2.5070 -1.4289 -1.6634
 4570TIP3   OH235124   4.108   2.545   4.315 -0.4973 -0.1960  0.1416
 4570TIP3    H135125   4.058   2.602   4.373 -1.4951  0.4351 -1.2998
 4570TIP3    H235126   4.143   2.604   4.248 -0.7324 -1.1202 -0.8113
 4571TIP3   OH235127   5.144   5.251  11.330 -0.1509 -0.0164  0.5064
 4571TIP3    H135128   5.216   5.279  11.273 -0.9571  0.1172 -0.4614
 4571TIP3    H235129   5.115   5.168  11.294  0.5928 -0.8905  1.8898
 4572TIP3   OH235130   5.817   0.497  14.568 -0.1199 -0.0684  0.0829
 4572TIP3    H135131   5.789   0.509  14.477  1.1982  2.3766 -0.0387
 4572TIP3    H235132   5.851   0.408  14.571 -2.9897 -1.2734 -1.0485
 4573TIP3   OH235133   3.672   5.447  13.173 -0.2462 -0.1782 -0.0463
 4573TIP3    H135134   3.707   5.369  13.216  1.2202  0.3431 -0.2536
 4573TIP3    H235135   3.675   5.515  13.241  2.0154  0.6296 -0.8990
 4574TIP3   OH235136   5.658   2.970  16.112  0.1823  0.6579 -0.0460
 4574TIP3    H135137   5.602   3.030  16.162  0.1273  0.8154 -0.2964
 4574TIP3    H235138   5.681   2.901  16.175 -1.7485 -0.3613 -0.4270
 4575TIP3   OH235139   3.434   1.726  11.823 -0.7000  0.1967 -0.2669
 4575TIP3    H135140   3.448   1.728  11.729  0.3307  1.0369 -0.0947
 4575TIP3    H235141   3.521   1.733  11.861 -1.3376  2.6957  0.7806
 4576TIP3   OH235142   1.025   0.787  10.500  0.3860 -0.3258 -0.0178
 4576TIP3    H135143   0.937   0.750  10.491  0.7594 -1.6143  1.4189
 4576TIP3    H235144   1.020   0.841  10.579  0.3647  1.2459 -1.0541
 4577TIP3   OH235145   1.022   6.272  13.385  0.4142  0.2032 -0.2230
 4577TIP3    H135146   1.062   6.341  13.333 -1.8997  1.1423 -0.8440
 4577TIP3    H235147   1.018   6.308  13.474  0.5584  0.2754 -0.2465
 4578TIP3   OH235148   1.561   1.294   0.205  0.3772  0.2293  0.1522
 4578TIP3    H135149   1.632   1.331   0.153  0.8594 -1.9519 -0.8282
 4578TIP3    H235150   1.596   1.211   0.237 -0.6539  0.5787  2.2406
 4579TIP3   OH235151   4.591   0.971  16.633  0.1705 -0.0717 -0.1171
 4579TIP3    H135152   4.629   0.921  16.705  0.2665 -0.0599 -0.1608
 4579TIP3    H235153   4.545   1.044  16.675  0.0037 -0.2121 -0.0541
 4580TIP3   OH235154   5.115   0.886  10.901  0.0058  0.2685  0.3896
 4580TIP3    H135155   5.157   0.962  10.941 -0.4892  0.8300 -0.1273
 4580TIP3    H235156   5.181   0.817  10.904  0.6772  0.8983  0.3206
 4581TIP3   OH235157   5.186   3.552  16.544 -0.4544  0.5223  0.3213
 4581TIP3    H135158   5.247   3.614  16.503  1.1819 -1.4890 -0.3264
 4581TIP3    H235159   5.144   3.508  16.470 -0.9178  0.1680  0.7908
 4582TIP3   OH235160   5.217   4.120  14.290  0.3855 -0.2697  0.7522
 4582TIP3    H135161   5.299   4.072  14.284  1.0605  0.7361  1.7639
 4582TIP3    H235162   5.207   4.139  14.383 -2.8189 -3.4824  1.1814
 4583TIP3   OH235163   1.987   2.095   3.954  0.2708  0.0139 -0.1342
 4583TIP3    H135164   2.054   2.027   3.947  0.2141 -0.1414  0.9009
 4583TIP3    H235165   2.034   2.176   3.934  0.4555 -0.2529 -0.8132
 4584TIP3   OH235166   3.484   2.893   6.250  0.2927  0.2443 -0.1620
 4584TIP3    H135167   3.495   2.861   6.339 -0.8485  0.3179  0.0015
 4584TIP3    H235168   3.568   2.936   6.230 -0.0008  1.5967  1.4317
 4585TIP3   OH235169   6.720   3.894  14.647 -0.1971 -0.1280  0.4478
 4585TIP3    H135170   6.633   3.871  14.680 -0.8123  0.8199 -0.4752
 4585TIP3    H235171   6.780   3.835  14.693 -1.2902 -0.5438  1.3547
 4586TIP3   OH235172   4.681   3.064   1.758 -0.3540 -0.0245  0.2383
 4586TIP3    H135173   4.597   3.059   1.713  0.1813  0.8361 -0.9076
 4586TIP3    H235174   4.679   3.148   1.804  0.1743  0.3723 -0.4436
 4587TIP3   OH235175   0.562   0.509  13.969 -0.1621 -0.3011 -0.4482
 4587TIP3    H135176   0.564   0.547  14.056  0.0091 -1.4419  0.0486
 4587TIP3    H235177   0.649   0.527  13.933 -0.1431 -0.0732 -0.2895
 4588TIP3   OH235178   4.316   0.045  14.350  0.0966  0.2987 -0.0165
 4588TIP3    H135179   4.377   0.111  14.383  0.5483 -0.6187  1.0250
 4588TIP3    H235180   4.238   0.054  14.405 -0.7789  1.5571 -1.4300
 4589TIP3   OH235181   4.296   2.904  17.202 -0.0412 -0.0176 -0.0813
 4589TIP3    H135182   4.226   2.840  17.217  0.0692  0.1423  1.1306
 4589TIP3    H235183   4.326   2.886  17.113  0.8545 -2.5113  0.6944
 4590TIP3   OH235184   1.110   3.639   6.072 -0.1495  0.8788 -0.2801
 4590TIP3    H135185   1.049   3.574   6.107 -0.1156  0.5824 -0.7654
 4590TIP3    H235186   1.176   3.651   6.141 -0.0257  0.2250 -0.2843
 4591TIP3   OH235187   5.134   2.755   5.859 -0.0359 -0.3635  0.0937
 4591TIP3    H135188   5.220   2.797   5.861 -0.1596 -0.0926 -0.1262
 4591TIP3    H235189   5.074   2.825   5.835 -0.1587 -0.8063 -0.9178
 4592TIP3   OH235190   5.987   5.388  12.789 -0.0450  0.1840  0.1293
 4592TIP3    H135191   5.975   5.371  12.882  0.3629  1.0690  0.3470
 4592TIP3    H235192   5.913   5.343  12.747 -0.2426 -0.1998  0.8729
 4593TIP3   OH235193   2.649   3.144  13.896 -0.0519 -0.0498 -0.2634
 4593TIP3    H135194   2.735   3.171  13.865 -0.0868  0.1706 -0.1719
 4593TIP3    H235195   2.666   3.066  13.949  0.2256  0.6141  0.6492
 4594TIP3   OH235196   6.186   4.052  10.848  0.2572 -0.5371 -0.2567
 4594TIP3    H135197   6.271   4.009  10.851  0.5810  0.0844 -0.3075
 4594TIP3    H235198   6.173   4.073  10.755  0.0790 -0.5731 -0.2419
 4595TIP3   OH235199   2.254   5.926   5.520 -0.3280  1.0330  0.4922
 4595TIP3    H135200   2.349   5.913   5.521 -0.7410 -2.3582  0.7247
 4595TIP3    H235201   2.233   5.951   5.610  0.0678 -0.5602  1.0373
 4596TIP3   OH235202   5.093   3.851  14.515  0.2532  0.7840  0.8147
 4596TIP3    H135203   5.047   3.890  14.441  1.5774 -1.5038 -1.2590
 4596TIP3    H235204   5.175   3.819  14.479  1.3462  0.4440  3.4710
 4597TIP3   OH235205   2.820   3.681  15.329 -0.3056 -0.0189 -0.2274
 4597TIP3    H135206   2.750   3.743  15.348 -1.1766 -0.8418 -0.6780
 4597TIP3    H235207   2.896   3.715  15.376 -0.5254  1.8713 -1.1995
 4598TIP3   OH235208   0.074   1.642  16.245 -0.1205  0.3675 -0.4498
 4598TIP3    H135209  -0.009   1.689  16.242  0.5434  1.4937 -1.9782
 4598TIP3    H235210   0.104   1.652  16.336 -1.7954 -0.3332  0.1915
 4599TIP3   OH235211   6.241   2.216  13.358  0.2154  0.2989 -0.0107
 4599TIP3    H135212   6.149   2.243  13.368 -0.6381 -1.9363 -1.3783
 4599TIP3    H235213   6.273   2.205  13.447 -1.9394 -2.3320  0.5131
 4600TIP3   OH235214   3.966   4.736   2.331 -0.2777  0.5458 -0.2843
 4600TIP3    H135215   3.988   4.743   2.238  0.0439 -1.1984 -0.3635
 4600TIP3    H235216   3.918   4.654   2.338  1.4060 -0.3372  1.3770
 4601TIP3   OH235217   2.801   4.859  14.947 -0.2973 -0.0898  0.7915
 4601TIP3    H135218   2.863   4.787  14.959  0.3205  0.3367  0.1853
 4601TIP3    H235219   2.736   4.847  15.017 -0.5091 -1.5493  0.3542
 4602TIP3   OH235220   4.860   2.880   5.039 -0.1329  0.5100  0.4529
 4602TIP3    H135221   4.921   2.816   5.075 -0.2294 -1.3871 -2.5963
 4602TIP3    H235222   4.774   2.843   5.053 -0.2565  0.5184 -0.2301
 4603TIP3   OH235223   3.047   1.720   1.879  0.7329 -0.5714  0.3743
 4603TIP3    H135224   2.984   1.665   1.925 -0.6573  1.4059  0.9291
 4603TIP3    H235225   2.994   1.773   1.820  1.6182  2.2401  1.9743
 4604TIP3   OH235226   5.904   2.549   0.868  0.2618 -0.2314 -0.2574
 4604TIP3    H135227   5.989   2.573   0.831  1.0512 -2.1399  0.2446
 4604TIP3    H235228   5.853   2.520   0.793  0.5044 -0.3166 -0.3917
 4605TIP3   OH235229   5.014   5.376  13.680  0.0491  0.3477  0.1454
 4605TIP3    H135230   4.926   5.403  13.708  0.3862 -0.5814  2.1801
 4605TIP3    H235231   5.057   5.457  13.653 -1.6182  0.7379 -1.3886
 4606TIP3   OH235232   0.878   2.759   5.497 -0.8376 -0.2412  0.1285
 4606TIP3    H135233   0.806   2.822   5.506 -0.7494 -0.3026  1.3698
 4606TIP3    H235234   0.949   2.795   5.551 -0.8607 -1.4841  1.0335
 4607TIP3   OH235235   2.248   2.167  16.520 -0.4409 -0.9914 -0.4773
 4607TIP3    H135236   2.326   2.217  16.497 -1.1902  1.0859  1.4144
 4607TIP3    H235237   2.280   2.097  16.577 -0.0731  0.4168  1.0645
 4608TIP3   OH235238   4.294   4.817   3.916  0.5804 -0.1351  0.6819
 4608TIP3    H135239   4.274   4.736   3.870 -0.7845  0.4827  0.1568
 4608TIP3    H235240   4.387   4.832   3.900  0.4975 -0.8216 -0.4706
 4609TIP3   OH235241   2.526   1.731   0.923  0.4651  0.9868 -0.0517
 4609TIP3    H135242   2.471   1.667   0.968  1.0795  0.6969  0.2944
 4609TIP3    H235243   2.493   1.815   0.953 -0.1643  0.8319 -0.2901
 4610TIP3   OH235244   4.692   6.400  14.317 -0.0802 -0.3479 -0.0338
 4610TIP3    H135245   4.757   6.469  14.305 -0.8607  0.3478 -0.3027
 4610TIP3    H235246   4.652   6.419  14.401  1.4243 -1.9281  1.0705
 4611TIP3   OH235247   4.073   1.131  14.672 -0.4672  0.2204  0.5810
 4611TIP3    H135248   4.074   1.204  14.609 -1.1078 -0.7162 -0.5226
 4611TIP3    H235249   4.150   1.146  14.726 -0.2960  1.4323  0.0238
 4612TIP3   OH235250   1.303   3.119  12.418  0.5050  0.2511  0.0877
 4612TIP3    H135251   1.245   3.091  12.489 -2.4884  0.0073 -2.3131
 4612TIP3    H235252   1.272   3.069  12.342  1.1208  3.2598 -2.2080
 4613TIP3   OH235253   3.823   1.843   2.817  0.0245  0.3849 -0.4895
 4613TIP3    H135254   3.858   1.775   2.875  0.4851 -0.2591 -1.5106
 4613TIP3    H235255   3.896   1.904   2.804  0.1942  0.0573 -1.0922
 4614TIP3   OH235256   4.487   1.700  15.589  0.3494  0.1304  0.0972
 4614TIP3    H135257   4.406   1.680  15.636  0.1952 -1.1267 -0.6670
 4614TIP3    H235258   4.511   1.787  15.619 -2.0815  1.1456 -0.7506
 4615TIP3   OH235259   6.498   3.990  13.542  0.0028 -0.0358 -0.0722
 4615TIP3    H135260   6.582   4.013  13.502 -0.7634 -0.0395 -1.7352
 4615TIP3    H235261   6.479   3.901  13.511 -0.9283  0.2201 -0.2748
 4616TIP3   OH235262   2.683   1.573  15.983 -0.5432  0.1948 -0.1469
 4616TIP3    H135263   2.770   1.601  16.011  0.0475 -2.2363  0.6067
 4616TIP3    H235264   2.628   1.587  16.060 -0.1149 -1.2243  0.4401
 4617TIP3   OH235265   6.633   0.835  13.813  0.5194  0.4482  0.4186
 4617TIP3    H135266   6.700   0.793  13.867 -0.2722 -1.7215 -0.2205
 4617TIP3    H235267   6.554   0.834  13.867  0.9434  2.9223  1.1385
 4618TIP3   OH235268   4.165   1.293   2.381  0.1287  0.4059 -0.4023
 4618TIP3    H135269   4.144   1.209   2.423  0.0624  0.2785 -0.6850
 4618TIP3    H235270   4.141   1.280   2.289  0.1621  0.7207 -0.4563
 4619TIP3   OH235271   0.150   2.543  15.759 -0.1803 -0.4591  0.0479
 4619TIP3    H135272   0.129   2.610  15.824  1.6181 -1.1904  1.4158
 4619TIP3    H235273   0.065   2.505  15.735 -0.9672  0.6337  1.0504
 4620TIP3   OH235274   5.461   6.396  14.299 -0.2295  0.7823 -0.1464
 4620TIP3    H135275   5.489   6.463  14.236 -0.4618 -0.2634 -1.3919
 4620TIP3    H235276   5.458   6.316  14.247 -0.5008 -0.0817  1.2051
 4621TIP3   OH235277   3.793   0.937   3.629 -0.1011 -0.0906  0.0508
 4621TIP3    H135278   3.814   1.028   3.651 -1.5959 -0.0843  1.5101
 4621TIP3    H235279   3.874   0.889   3.646  1.0137  1.1069 -1.7047
 4622TIP3   OH235280   3.835   4.924  16.078 -0.0324  0.6957  0.2244
 4622TIP3    H135281   3.879   4.841  16.056 -0.2208  0.4440  0.7951
 4622TIP3    H235282   3.870   4.947  16.164  0.0641  1.2448  0.0401
 4623TIP3   OH235283   3.161   4.842  11.863  0.1488  0.2262  0.4618
 4623TIP3    H135284   3.211   4.762  11.846 -0.2415 -0.0382  0.5672
 4623TIP3    H235285   3.166   4.890  11.780 -2.0767 -1.2437 -0.5625
 4624TIP3   OH235286   0.015   0.477  13.518 -0.1371 -0.6705  0.1122
 4624TIP3    H135287  -0.030   0.538  13.460  0.8708 -0.4198 -0.4103
 4624TIP3    H235288   0.059   0.532  13.583 -0.5557 -0.9119  0.6027
 4625TIP3   OH235289   6.667   3.099   2.376  0.5350 -0.0443  0.0107
 4625TIP3    H135290   6.699   3.189   2.364 -2.4391  0.8465 -1.9233
 4625TIP3    H235291   6.696   3.053   2.297 -0.1523 -0.0460 -0.2534
 4626TIP3   OH235292   3.705   6.434   5.289  0.0119 -0.1603  0.3101
 4626TIP3    H135293   3.702   6.419   5.383 -1.2961  0.2843  0.3465
 4626TIP3    H235294   3.615   6.421   5.260  0.7097 -1.9025 -1.1350
 4627TIP3   OH235295   3.382   1.542  15.656  0.0020 -0.1697  0.2672
 4627TIP3    H135296   3.307   1.553  15.715 -0.1487 -3.0952  0.6986
 4627TIP3    H235297   3.437   1.619  15.672 -2.2136  1.3104  0.9531
 4628TIP3   OH235298   3.586   1.346  14.589 -0.0365  0.1654  0.0586
 4628TIP3    H135299   3.609   1.316  14.502  0.4445 -0.8861  0.5463
 4628TIP3    H235300   3.511   1.405  14.575 -0.7757 -0.9913 -0.9193
 4629TIP3   OH235301   6.233   5.408   4.580  0.0476 -0.1956  0.4388
 4629TIP3    H135302   6.201   5.408   4.490 -1.4624  1.3798  0.9569
 4629TIP3    H235303   6.254   5.316   4.597 -0.2348 -0.6106 -1.2946
 4630TIP3   OH235304   6.656   1.375  14.043 -0.7192  0.3828  0.2422
 4630TIP3    H135305   6.561   1.373  14.032 -0.7996  2.6257  0.3269
 4630TIP3    H235306   6.677   1.290  14.081 -2.8209  0.2174  1.1258
 4631TIP3   OH235307   4.125   3.874  16.637 -0.6261  0.1408  0.5531
 4631TIP3    H135308   4.199   3.924  16.604 -1.5638 -0.2453 -2.2621
 4631TIP3    H235309   4.119   3.897  16.729 -0.6953  4.7928 -0.5121
 4632TIP3   OH235310   0.810   0.455   4.462 -0.1436 -0.0004  0.4541
 4632TIP3    H135311   0.750   0.529   4.469 -1.8019 -1.4087  1.6572
 4632TIP3    H235312   0.883   0.478   4.519 -1.1192  0.2879  1.6146
 4633TIP3   OH235313   1.330   0.194  16.657  0.5831 -0.1119 -0.0639
 4633TIP3    H135314   1.346   0.281  16.620  0.7909  0.9022  2.3271
 4633TIP3    H235315   1.417   0.154  16.664  0.4156 -0.8074 -1.8371
 4634TIP3   OH235316   0.491   1.831  15.347 -0.3830  0.2794 -0.0697
 4634TIP3    H135317   0.563   1.849  15.407  0.0054 -0.2606 -0.3647
 4634TIP3    H235318   0.439   1.911  15.347 -1.0342 -0.1451  1.8770
 4635TIP3   OH235319   0.506   5.682   5.788 -0.4489  0.5166 -0.5572
 4635TIP3    H135320   0.451   5.698   5.865 -2.3809 -1.6054 -1.4601
 4635TIP3    H235321   0.495   5.761   5.734 -0.8515  1.0424  0.2770
 4636TIP3   OH235322   1.340   0.660   5.025  0.1338  0.1223  0.1058
 4636TIP3    H135323   1.246   0.673   5.022  0.0102 -0.6941  0.1962
 4636TIP3    H235324   1.378   0.744   4.998 -0.6338 -0.1573 -1.9009
 4637TIP3   OH235325   4.885   5.360  12.392 -0.5859  0.6221 -0.6546
 4637TIP3    H135326   4.969   5.406  12.397 -0.4366  0.3590 -0.7437
 4637TIP3    H235327   4.903   5.282  12.340 -0.7947  0.3654 -0.3492
 4638TIP3   OH235328   2.652   4.793  12.940 -0.3613 -0.0833 -0.0587
 4638TIP3    H135329   2.576   4.755  12.897 -0.8069 -1.4328  1.8641
 4638TIP3    H235330   2.722   4.729  12.928  0.0149  0.3644 -0.3178
 4639TIP3   OH235331   2.240   1.989  11.783  0.0157 -0.1376  0.4701
 4639TIP3    H135332   2.232   1.950  11.696  0.4666 -2.5128  1.4451
 4639TIP3    H235333   2.333   2.004  11.795  0.0882 -0.9122  0.9667
 4640TIP3   OH235334   3.542   2.261  11.453  0.1911 -0.3208  0.7235
 4640TIP3    H135335   3.499   2.323  11.394  1.2554  0.1336  0.4159
 4640TIP3    H235336   3.476   2.243  11.520 -0.3467  0.6551  0.4746
 4641TIP3   OH235337   2.973   4.494  11.508 -0.2547  0.6227 -0.0282
 4641TIP3    H135338   3.039   4.563  11.510  0.3747  0.0435 -0.4106
 4641TIP3    H235339   2.906   4.526  11.448  0.6385  0.3756 -1.1719
 4642TIP3   OH235340   3.185   0.514   4.624 -0.1232 -0.4153 -0.2247
 4642TIP3    H135341   3.276   0.500   4.598 -0.4980 -1.1558 -1.1423
 4642TIP3    H235342   3.148   0.571   4.556  0.5541  2.6933  1.9006
 4643TIP3   OH235343   6.012   2.248  15.662 -0.2523  0.6365  0.4676
 4643TIP3    H135344   6.038   2.323  15.608 -1.7752  1.6479  1.0973
 4643TIP3    H235345   6.078   2.245  15.732  0.6431  0.4810 -0.3784
 4644TIP3   OH235346   3.341   2.433   5.062 -0.1402  0.1231  0.1679
 4644TIP3    H135347   3.427   2.444   5.020  0.0067  1.5916  0.8158
 4644TIP3    H235348   3.278   2.460   4.996 -0.0583 -0.2862 -0.0749
 4645TIP3   OH235349   5.937   4.616   1.560 -0.1135  0.0432  0.3027
 4645TIP3    H135350   5.945   4.669   1.481 -1.1046  0.3426  0.3858
 4645TIP3    H235351   5.901   4.533   1.529  2.0417 -0.8340  0.0856
 4646TIP3   OH235352   4.896   2.325   3.731 -0.4819 -0.2934  0.0187
 4646TIP3    H135353   4.941   2.407   3.708 -2.6751  1.1837  0.7132
 4646TIP3    H235354   4.900   2.272   3.652  2.0692 -0.0327 -0.0423
 4647TIP3   OH235355   6.163   2.952  16.836 -0.2458 -0.0698  0.3159
 4647TIP3    H135356   6.163   2.944  16.932 -0.4231  1.5731  0.4647
 4647TIP3    H235357   6.194   2.867  16.805  0.3825 -0.4235  1.8541
 4648TIP3   OH235358   3.578   2.907   0.088 -0.3965 -0.0997  0.2631
 4648TIP3    H135359   3.573   2.973   0.157  0.9460 -0.6100  0.8780
 4648TIP3    H235360   3.499   2.920   0.036 -1.1881  0.6149  1.6111
 4649TIP3   OH235361   0.652   5.736   2.975  0.6095  0.3617  0.2403
 4649TIP3    H135362   0.582   5.777   2.924  1.9321  0.6703 -1.4002
 4649TIP3    H235363   0.639   5.642   2.963 -0.5493  0.3698  1.3837
 4650TIP3   OH235364   6.458   0.495  14.888  0.7599 -0.2164 -0.2393
 4650TIP3    H135365   6.424   0.517  14.975 -0.9350 -1.3397 -0.5968
 4650TIP3    H235366   6.476   0.401  14.894 -1.7305 -0.8243 -1.8639
 4651TIP3   OH235367   0.203   1.613   1.494 -0.2020  0.2641 -0.6568
 4651TIP3    H135368   0.203   1.528   1.449 -1.4932  0.1659 -0.4701
 4651TIP3    H235369   0.187   1.677   1.425 -2.6522  0.0786 -0.3136
 4652TIP3   OH235370   0.893   2.329  13.914 -0.3243 -0.4468 -0.4720
 4652TIP3    H135371   0.966   2.307  13.857 -0.1097 -1.7792  0.2935
 4652TIP3    H235372   0.828   2.368  13.856 -0.0238 -1.5763 -1.5740
 4653TIP3   OH235373   0.696   0.670  15.694 -0.0816 -0.5146 -0.1999
 4653TIP3    H135374   0.636   0.635  15.628 -0.6108  1.2730 -0.6949
 4653TIP3    H235375   0.715   0.595  15.751  0.2075 -2.0325 -2.2284
 4654TIP3   OH235376   2.263   0.144   4.580 -0.2678 -0.3405 -0.3072
 4654TIP3    H135377   2.299   0.214   4.525 -1.8670  1.7199  1.1608
 4654TIP3    H235378   2.169   0.146   4.563 -0.7543  0.1045  2.1944
 4655TIP3   OH235379   4.988   2.689   1.142 -0.0817 -0.0794 -0.5569
 4655TIP3    H135380   5.049   2.669   1.071  0.2941 -0.2570 -0.1889
 4655TIP3    H235381   5.034   2.754   1.195 -0.5254  0.3453 -0.6961
 4656TIP3   OH235382   0.702   0.125  15.288 -0.1461 -0.2056  0.0258
 4656TIP3    H135383   0.754   0.199  15.319  0.3891 -0.4955 -0.1594
 4656TIP3    H235384   0.692   0.141  15.194 -0.0440 -0.3534 -0.0115
 4657TIP3   OH235385   2.859   3.304  11.732 -0.0966 -0.6293 -0.1873
 4657TIP3    H135386   2.778   3.273  11.692  0.4155 -2.7688  0.3533
 4657TIP3    H235387   2.864   3.257  11.815  0.7897  0.8682  0.6437
 4658TIP3   OH235388   2.766   6.543  16.364  0.1293  0.4228 -0.9123
 4658TIP3    H135389   2.731   6.624  16.403  2.1568  1.1989 -0.6354
 4658TIP3    H235390   2.814   6.573  16.286 -0.1884 -0.6634 -1.5368
 4659TIP3   OH235391   1.001   1.720   1.338  0.3061  0.5101  0.2959
 4659TIP3    H135392   1.028   1.716   1.430  1.4708  1.4533  0.0072
 4659TIP3    H235393   0.920   1.669   1.334  0.7470 -0.2995  1.6667
 4660TIP3   OH235394   1.769   2.830  13.157  0.1643 -0.3017  0.2844
 4660TIP3    H135395   1.674   2.821  13.165  0.4677 -1.8639  2.6767
 4660TIP3    H235396   1.788   2.802  13.068 -1.8019  1.8804 -0.8830
 4661TIP3   OH235397   5.205   4.995   1.729 -0.0916 -0.3666  0.4485
 4661TIP3    H135398   5.170   4.906   1.726 -2.9300  0.7243  0.4996
 4661TIP3    H235399   5.287   4.986   1.778 -1.3479 -2.6340  2.2792
 4662TIP3   OH235400   6.670   1.627   0.020  0.4099 -0.4283 -0.1190
 4662TIP3    H135401   6.587   1.669  -0.003 -0.4863 -1.3943  1.3323
 4662TIP3    H235402   6.658   1.536  -0.004  0.7661 -0.7310  0.8378
 4663TIP3   OH235403   2.513   3.245  15.201  0.2220  1.0075 -0.4148
 4663TIP3    H135404   2.530   3.227  15.293  0.0671  1.9978 -0.1930
 4663TIP3    H235405   2.456   3.173  15.172  0.7022  0.4098  0.1203
 4664TIP3   OH235406   5.700   6.702   3.584  0.4358 -0.6157 -0.4498
 4664TIP3    H135407   5.746   6.674   3.504 -2.1254 -0.5893 -2.0002
 4664TIP3    H235408   5.679   6.620   3.629  1.3154 -0.6651 -0.1204
 4665TIP3   OH235409   1.972   5.204  16.337 -0.4708 -0.0875 -0.7037
 4665TIP3    H135410   1.929   5.243  16.413 -1.6503 -0.2045 -1.3067
 4665TIP3    H235411   1.910   5.139  16.305  0.5977 -1.0070 -0.9593
 4666TIP3   OH235412   4.636   3.160   4.930  0.5455 -0.8785 -0.5325
 4666TIP3    H135413   4.676   3.086   4.885  1.9763  0.2755 -1.1830
 4666TIP3    H235414   4.657   3.236   4.876  0.0330  0.1711  0.7036
 4667TIP3   OH235415   5.699   2.192   1.409  0.3902 -0.1164  0.0716
 4667TIP3    H135416   5.731   2.102   1.395  1.3986  0.2978 -0.3242
 4667TIP3    H235417   5.766   2.232   1.464 -0.4228  0.1863  0.8577
 4668TIP3   OH235418   1.321   1.260  12.045  0.4506 -0.6212 -0.0939
 4668TIP3    H135419   1.234   1.227  12.021  0.8926 -1.8390 -0.0503
 4668TIP3    H235420   1.303   1.344  12.087 -0.8247 -1.4866  1.1462
 4669TIP3   OH235421   5.085   0.753   1.035  0.4940  0.0818 -0.1289
 4669TIP3    H135422   5.018   0.689   1.010 -1.0497  1.3314  0.6691
 4669TIP3    H235423   5.150   0.750   0.965 -2.3526  1.5789 -2.9600
 4670TIP3   OH235424   6.028   4.078   5.857  0.0986  0.3110  0.1563
 4670TIP3    H135425   6.027   4.000   5.802 -0.0750  0.8446 -0.5971
 4670TIP3    H235426   6.053   4.046   5.944  2.9635 -0.1818 -0.7948
 4671TIP3   OH235427   5.349   0.124  14.289  0.4493  1.0273 -0.0208
 4671TIP3    H135428   5.329   0.050  14.232  1.2546  1.7129 -1.2319
 4671TIP3    H235429   5.319   0.201  14.239  0.3086  1.5778  0.8912
 4672TIP3   OH235430   0.535   4.612  16.382 -0.3481  0.2621 -0.9421
 4672TIP3    H135431   0.445   4.584  16.402 -0.6786  0.3397 -2.2638
 4672TIP3    H235432   0.535   4.706  16.401 -0.4899  0.2318 -0.7838
 4673TIP3   OH235433   4.504   3.889   4.412 -0.1384 -0.0091  0.8108
 4673TIP3    H135434   4.490   3.852   4.324  0.2406 -2.5931  1.7791
 4673TIP3    H235435   4.578   3.949   4.401  0.7668 -1.3082 -0.4009
 4674TIP3   OH235436   4.746   5.484  17.150 -0.4941 -0.1411 -0.1523
 4674TIP3    H135437   4.831   5.465  17.189 -0.1715 -0.8176 -1.1698
 4674TIP3    H235438   4.766   5.510  17.060 -1.2973  0.5279 -0.1398
 4675TIP3   OH235439   0.374   4.855   5.537 -0.3108  0.0443  0.3109
 4675TIP3    H135440   0.344   4.812   5.617 -1.6385 -0.3614 -0.3833
 4675TIP3    H235441   0.389   4.783   5.475 -1.9799  0.5110 -0.6733
 4676TIP3   OH235442   0.052   5.454  12.820  0.2662  0.5337  0.1635
 4676TIP3    H135443   0.066   5.359  12.814 -0.5770  0.2520  1.9800
 4676TIP3    H235444   0.022   5.480  12.733  0.7666 -0.8313 -0.4253
 4677TIP3   OH235445   6.161   4.242   5.056  0.2440  0.2214  0.3074
 4677TIP3    H135446   6.085   4.261   5.112  0.0361 -0.2741  0.1976
 4677TIP3    H235447   6.123   4.206   4.976  0.5482  0.8141 -0.1052
 4678TIP3   OH235448   3.406   2.973   4.594 -0.0549 -0.0806 -0.0224
 4678TIP3    H135449   3.468   2.984   4.665 -0.5736  0.5276  0.3366
 4678TIP3    H235450   3.321   2.995   4.632 -0.1087  2.1440 -1.3157
 4679TIP3   OH235451   5.578   5.531   2.809  0.0174 -0.4889  0.6079
 4679TIP3    H135452   5.498   5.479   2.816 -1.5401  1.8573  0.6829
 4679TIP3    H235453   5.573   5.571   2.722 -0.1093  1.5591  1.5353
 4680TIP3   OH235454   4.986   3.062   3.740 -0.1260  0.0372 -0.1379
 4680TIP3    H135455   4.926   2.994   3.710 -2.9092  3.0629 -1.7734
 4680TIP3    H235456   4.956   3.082   3.829  0.2766 -0.4210  0.1012
 4681TIP3   OH235457   0.503   3.763   3.117  0.7103  0.4547  0.0323
 4681TIP3    H135458   0.479   3.841   3.067 -3.1759  0.1813  1.2305
 4681TIP3    H235459   0.485   3.690   3.058 -0.8178  0.2704  0.7061
 4682TIP3   OH235460   0.635   6.217  16.190 -0.1682 -0.7607  0.2337
 4682TIP3    H135461   0.635   6.244  16.281  0.1172 -1.4639  0.4407
 4682TIP3    H235462   0.684   6.135  16.188  0.7678 -0.2096 -0.7142
 4683TIP3   OH235463   4.565   6.177  16.905 -0.1859  0.4171  0.8053
 4683TIP3    H135464   4.587   6.227  16.984  1.8494  1.2328 -0.2218
 4683TIP3    H235465   4.649   6.165  16.861 -1.3802  0.5348 -1.5686
 4684TIP3   OH235466   5.650   3.864   5.761 -0.4207  0.2469 -0.2390
 4684TIP3    H135467   5.685   3.946   5.725 -1.3821  0.2601 -1.1691
 4684TIP3    H235468   5.610   3.890   5.844  1.4662  0.2814  0.6919
 4685TIP3   OH235469   2.666   1.182  16.198 -0.1073 -0.2016  0.1946
 4685TIP3    H135470   2.586   1.136  16.170  0.2199 -1.8072  1.8479
 4685TIP3    H235471   2.638   1.272  16.210 -0.8668  0.0155 -2.6774
 4686TIP3   OH235472   3.958   2.779   3.439 -0.4215 -0.5656  0.5396
 4686TIP3    H135473   3.908   2.852   3.404  3.2351  0.9767 -1.8139
 4686TIP3    H235474   4.013   2.817   3.507  0.6614 -1.3055  0.1081
 4687TIP3   OH235475   4.738   5.627   4.303  0.6105 -0.6563 -0.2825
 4687TIP3    H135476   4.644   5.611   4.304  0.1234  1.8587 -1.3586
 4687TIP3    H235477   4.770   5.595   4.387 -1.3213 -0.8550  0.3823
 4688TIP3   OH235478   2.125   3.368  15.057  0.0184  0.4418  0.1503
 4688TIP3    H135479   2.103   3.286  15.013 -2.7890  0.3923  1.5014
 4688TIP3    H235480   2.070   3.434  15.015  0.5927  1.2130  0.5841
 4689TIP3   OH235481   4.087   6.677  16.895  0.1107 -0.5598  0.0376
 4689TIP3    H135482   4.166   6.636  16.930 -0.0952  0.8539  2.2713
 4689TIP3    H235483   4.059   6.737  16.964 -1.3834  0.9612 -1.8367
 4690TIP3   OH235484   2.993   2.298   0.325 -0.9160 -0.1425 -0.4909
 4690TIP3    H135485   3.052   2.370   0.348 -1.6059  0.3571 -0.2794
 4690TIP3    H235486   3.051   2.230   0.289 -0.1922  0.2683 -0.1081
 4691TIP3   OH235487   5.855   5.184   3.691  0.2585 -0.1314 -0.4397
 4691TIP3    H135488   5.773   5.161   3.647 -0.6825  2.9310 -0.3433
 4691TIP3    H235489   5.839   5.164   3.783 -0.8430  1.5801 -0.2355
 4692TIP3   OH235490   2.279   3.275   2.485 -0.3059 -0.4069 -0.8338
 4692TIP3    H135491   2.302   3.185   2.465 -2.2529 -0.9531 -0.6489
 4692TIP3    H235492   2.272   3.318   2.399  0.6266 -0.4122 -0.9193
 4693TIP3   OH235493   6.580   6.325  12.615  0.4573  0.2188 -0.4328
 4693TIP3    H135494   6.562   6.302  12.524  2.2011 -4.6391  0.3440
 4693TIP3    H235495   6.495   6.320  12.658 -0.0837  0.7800 -1.3998
 4694TIP3   OH235496   2.520   0.997  13.971  0.0832  0.3717  0.0083
 4694TIP3    H135497   2.516   1.072  14.031 -0.4228 -0.6342  1.2486
 4694TIP3    H235498   2.592   0.944  14.003  1.7163  1.2633 -2.0341
 4695TIP3   OH235499   0.999   0.827   3.825  0.3459  0.1305  0.5245
 4695TIP3    H135500   1.000   0.911   3.871  0.4396 -0.6723  2.0190
 4695TIP3    H235501   0.906   0.805   3.819  0.1172  1.6029 -2.2809
 4696TIP3   OH235502   4.435   0.723  15.688  0.0719 -0.6073 -0.1912
 4696TIP3    H135503   4.391   0.728  15.773 -0.1520  0.4403 -0.3611
 4696TIP3    H235504   4.365   0.732  15.624  0.6716  2.9498 -0.4645
 4697TIP3   OH235505   5.853   2.132  13.888  0.6226 -0.1109  0.0993
 4697TIP3    H135506   5.871   2.050  13.934 -2.7362 -1.4361 -0.8101
 4697TIP3    H235507   5.807   2.186  13.952 -1.2741 -0.7634 -0.6661
 4698TIP3   OH235508   0.098   4.042  16.655  0.0271  0.0467  0.2496
 4698TIP3    H135509   0.092   3.982  16.729 -0.3851  0.5133  0.6064
 4698TIP3    H235510   0.173   4.098  16.676  0.0436  0.0364  0.2149
 4699TIP3   OH235511   0.599   0.341  14.296  0.5464  0.4697 -0.2585
 4699TIP3    H135512   0.634   0.344  14.385 -1.2388 -0.6039  0.5170
 4699TIP3    H235513   0.517   0.390  14.301  0.8019  1.0338 -1.4898
 4700TIP3   OH235514   5.579   6.261   5.628 -0.4518  0.8370 -0.2234
 4700TIP3    H135515   5.612   6.310   5.704 -1.6260  1.4429 -0.0913
 4700TIP3    H235516   5.515   6.320   5.588 -0.3751  0.2180 -1.2563
 4701TIP3   OH235517   1.825   3.863  13.359 -0.2106  0.2018  0.2091
 4701TIP3    H135518   1.883   3.787  13.363  1.0892  1.1458 -0.2467
 4701TIP3    H235519   1.794   3.874  13.449 -1.1231 -1.3921  0.1031
 4702TIP3   OH235520   3.018   1.070  12.868 -0.2968  0.1034  0.3801
 4702TIP3    H135521   3.082   1.015  12.915 -0.9358  0.7818  2.0643
 4702TIP3    H235522   2.972   1.118  12.936 -1.5105  0.8497 -0.9264
 4703TIP3   OH235523   1.380   4.355  15.715 -0.5898 -0.1493  0.2512
 4703TIP3    H135524   1.396   4.317  15.628  0.8464  1.4292 -0.2059
 4703TIP3    H235525   1.299   4.406  15.704 -0.8205 -0.5619  0.0340
 4704TIP3   OH235526   0.931   5.239   1.003 -0.4881  0.0646  0.2670
 4704TIP3    H135527   1.017   5.202   1.021  0.4212  1.6941 -0.6090
 4704TIP3    H235528   0.921   5.311   1.065 -1.6259 -0.6958  0.9907
 4705TIP3   OH235529   4.457   2.231  16.906 -0.4123  0.2329  0.2251
 4705TIP3    H135530   4.395   2.262  16.840  1.0572 -0.1687 -1.3980
 4705TIP3    H235531   4.514   2.305  16.922  0.8788 -0.4747 -0.9735
 4706TIP3   OH235532   2.466   2.716  11.618  0.1137  0.4467 -0.0510
 4706TIP3    H135533   2.383   2.716  11.569 -0.2082 -1.2375  0.4636
 4706TIP3    H235534   2.446   2.669  11.699  0.6132  3.3096  1.7948
 4707TIP3   OH235535   0.606   5.023  11.512  0.0183  0.5202 -0.1609
 4707TIP3    H135536   0.550   5.101  11.512 -1.4873 -0.5169  1.2997
 4707TIP3    H235537   0.546   4.951  11.493  1.3413 -0.3355 -1.2005
 4708TIP3   OH235538   6.399   1.400  14.050 -0.3474  0.0435 -0.1867
 4708TIP3    H135539   6.386   1.427  14.141 -0.0611 -0.5181  0.0243
 4708TIP3    H235540   6.314   1.414  14.008 -0.8596 -0.9688  0.5029
 4709TIP3   OH235541   3.326   0.823   1.709  0.0150  0.3752 -0.0718
 4709TIP3    H135542   3.272   0.747   1.687  0.5948 -0.0760  0.0347
 4709TIP3    H235543   3.329   0.874   1.628 -1.5234  1.0029  0.2635
 4710TIP3   OH235544   2.969   4.367   4.086  0.4150 -0.2100 -0.7561
 4710TIP3    H135545   2.942   4.455   4.111 -1.4760 -1.5167  2.0062
 4710TIP3    H235546   3.052   4.379   4.040  0.3173  2.9704 -0.1675
 4711TIP3   OH235547   3.307   1.677  12.309 -0.3472  0.0627 -0.1815
 4711TIP3    H135548   3.376   1.647  12.250 -1.0699 -0.4630 -0.7670
 4711TIP3    H235549   3.258   1.741  12.259 -0.8149 -0.2036 -0.0665
 4712TIP3   OH235550   4.182   0.081  12.411 -0.3804  0.3622  0.3034
 4712TIP3    H135551   4.188   0.110  12.320 -0.2107 -0.2628  0.1089
 4712TIP3    H235552   4.132   0.150  12.455 -1.8951 -0.1095 -0.6158
 4713TIP3   OH235553   2.349   1.590   5.582 -0.0804  0.0882  0.0262
 4713TIP3    H135554   2.359   1.630   5.495 -0.5501 -0.9995 -0.5329
 4713TIP3    H235555   2.318   1.662   5.638  0.4770  0.8619 -0.6372
 4714TIP3   OH235556   2.737   1.655   6.105  0.3503  0.1415  0.1831
 4714TIP3    H135557   2.743   1.644   6.200 -1.5117  1.1348  0.4450
 4714TIP3    H235558   2.778   1.741   6.089  0.9705 -0.1768  0.0309
 4715TIP3   OH235559   6.099   4.262  12.889 -0.5443 -0.2278  0.3027
 4715TIP3    H135560   6.039   4.264  12.815 -0.7550  1.1865  0.4892
 4715TIP3    H235561   6.131   4.172  12.892 -2.8066 -1.0497  0.3337
 4716TIP3   OH235562   5.450   5.522   0.149 -0.4899 -0.2355  0.2924
 4716TIP3    H135563   5.492   5.571   0.079 -1.3020 -0.3392 -0.2824
 4716TIP3    H235564   5.413   5.589   0.207 -0.4583 -0.1593  0.2237
 4717TIP3   OH235565   1.540   1.466   5.631 -0.6612 -0.1589 -0.4559
 4717TIP3    H135566   1.542   1.439   5.723  0.9715  2.4535  0.3565
 4717TIP3    H235567   1.611   1.418   5.590 -0.3860 -0.1720  0.0307
 4718TIP3   OH235568   0.960   0.389  14.815 -0.0166 -0.5398  0.7914
 4718TIP3    H135569   1.024   0.454  14.845  0.0164 -0.0973 -0.2264
 4718TIP3    H235570   0.910   0.367  14.894 -0.7528  1.5313  0.9248
 4719TIP3   OH235571   4.400   2.687   0.138 -0.5807 -0.0544 -0.1682
 4719TIP3    H135572   4.449   2.722   0.063 -2.3392  0.0546 -1.2905
 4719TIP3    H235573   4.312   2.671   0.104 -0.7394 -2.3633  1.2374
 4720TIP3   OH235574   0.226   3.098  11.567 -0.5373 -0.3530  0.0784
 4720TIP3    H135575   0.310   3.131  11.537 -1.3576 -0.1650 -2.0670
 4720TIP3    H235576   0.243   3.007  11.593  0.7564  0.3218  1.7208
 4721TIP3   OH235577   1.505   3.649   2.099 -0.0343  0.1455  0.3840
 4721TIP3    H135578   1.418   3.615   2.120 -0.4984  1.0305 -0.0597
 4721TIP3    H235579   1.502   3.741   2.128  0.6625  0.2496  0.1330
 4722TIP3   OH235580   3.824   5.478  10.296  0.0652 -0.2625  0.4048
 4722TIP3    H135581   3.909   5.519  10.281 -0.1822  0.4548  0.8926
 4722TIP3    H235582   3.795   5.514  10.381 -0.3090 -1.2028  0.6799
 4723TIP3   OH235583   2.241   4.397  16.056 -0.1810  0.3004  0.0400
 4723TIP3    H135584   2.167   4.343  16.081  0.2113 -0.3222 -0.1474
 4723TIP3    H235585   2.286   4.415  16.139  0.3218 -0.5912 -0.0369
 4724TIP3   OH235586   0.925   3.091   0.980  0.3140  0.0575  0.3232
 4724TIP3    H135587   0.974   3.095   0.898 -0.0941  1.8177  0.1437
 4724TIP3    H235588   0.928   3.180   1.014 -1.6645 -0.0856  0.9505
 4725TIP3   OH235589   2.643   3.267  13.045  0.1736 -0.0456  0.4379
 4725TIP3    H135590   2.699   3.228  13.112 -0.0460  2.0480  1.8774
 4725TIP3    H235591   2.694   3.340  13.011  0.2019 -0.9805 -1.5757
 4726TIP3   OH235592   4.744   2.023  14.268  0.3289 -0.1834  0.0834
 4726TIP3    H135593   4.799   1.945  14.265  1.9300  0.9660 -1.4816
 4726TIP3    H235594   4.711   2.033  14.179 -1.0881  0.0930  0.6199
 4727TIP3   OH235595   2.633   1.933  12.988  0.0144 -0.0969  0.0702
 4727TIP3    H135596   2.652   2.026  13.003  1.4317 -0.2156 -0.8928
 4727TIP3    H235597   2.619   1.926  12.894 -2.2336 -0.5060  0.4037
 4728TIP3   OH235598   0.514   3.545  12.450 -0.5812 -0.4158  0.0110
 4728TIP3    H135599   0.564   3.615  12.492  1.2198 -1.6304 -0.0061
 4728TIP3    H235600   0.505   3.478  12.518 -1.1115 -0.7248 -0.3655
 4729TIP3   OH235601   4.707   0.879   3.169  0.4418 -0.0187  0.0477
 4729TIP3    H135602   4.713   0.861   3.263 -3.1735  2.8857  0.9753
 4729TIP3    H235603   4.655   0.806   3.134 -0.8172  0.4468  0.9019
 4730TIP3   OH235604   2.655   0.773  14.065 -0.0020  0.3813  0.1535
 4730TIP3    H135605   2.586   0.723  14.020  1.6387 -0.1825 -1.7977
 4730TIP3    H235606   2.683   0.715  14.136 -0.7509  0.1330  0.2514
 4731TIP3   OH235607   4.304   2.643  11.971  0.0829  0.6411  0.2356
 4731TIP3    H135608   4.334   2.683  12.053  2.0450  0.6939 -0.4761
 4731TIP3    H235609   4.365   2.675  11.905 -0.9469 -0.1037 -1.0981
 4732TIP3   OH235610   5.908   1.191   2.811 -0.1294 -0.1774 -0.1908
 4732TIP3    H135611   5.842   1.252   2.781  0.4880  0.5687 -0.0519
 4732TIP3    H235612   5.892   1.182   2.905 -2.3276 -2.8385 -0.7438
 4733TIP3   OH235613   3.092   5.979   2.799  0.5920 -0.0932 -0.3607
 4733TIP3    H135614   3.063   5.912   2.737  1.9359 -1.2833  0.2703
 4733TIP3    H235615   3.095   5.933   2.883 -0.2197  1.2395  0.4094
 4734TIP3   OH235616   0.101   5.327   3.397  0.3782  0.0867  0.3848
 4734TIP3    H135617   0.084   5.379   3.318  3.3223  0.1032 -0.3032
 4734TIP3    H235618   0.152   5.386   3.453 -0.2739 -0.4904  1.5863
 4735TIP3   OH235619   4.546   2.995   0.851 -0.9486  0.3024  0.1051
 4735TIP3    H135620   4.569   3.088   0.849 -0.0722  0.0937  0.3937
 4735TIP3    H235621   4.488   2.984   0.776 -1.0767  1.0896  0.0819
 4736TIP3   OH235622   5.115   3.551   0.198  0.4111 -0.1074 -0.3480
 4736TIP3    H135623   5.134   3.644   0.203  1.9083 -0.4373  0.4522
 4736TIP3    H235624   5.137   3.527   0.108 -2.7126  0.8518 -1.4261
 4737TIP3   OH235625   1.664   5.923  12.390  0.4656 -0.0826  0.2735
 4737TIP3    H135626   1.628   5.948  12.475 -1.7191 -0.4734 -0.5027
 4737TIP3    H235627   1.743   5.872  12.411 -0.7887 -1.2938  2.1068
 4738TIP3   OH235628   5.157   6.623   3.578  0.2278 -0.3070  0.1126
 4738TIP3    H135629   5.140   6.646   3.670  1.4045  1.5004 -0.0983
 4738TIP3    H235630   5.228   6.558   3.582 -0.1678 -0.7234  0.5007
 4739TIP3   OH235631   3.775   0.020   5.943  0.5160 -0.5874 -0.3090
 4739TIP3    H135632   3.767  -0.055   6.001  1.8424 -1.5903 -1.3703
 4739TIP3    H235633   3.843   0.074   5.983  0.2125 -0.4121 -0.0289
 4740TIP3   OH235634   5.803   1.212  14.234  0.0463  0.3588  0.6549
 4740TIP3    H135635   5.721   1.223  14.283 -0.4576 -2.3527  0.4683
 4740TIP3    H235636   5.814   1.117  14.226  1.0681  0.6970 -2.8857
 4741TIP3   OH235637   1.023   0.145   1.077 -0.1481  0.0441  0.3101
 4741TIP3    H135638   0.989   0.234   1.073  0.0043  0.1586  1.3739
 4741TIP3    H235639   1.069   0.141   1.162 -0.0513 -1.0026  0.2113
 4742TIP3   OH235640   4.346   4.043  12.383 -0.0649 -0.5374  1.0326
 4742TIP3    H135641   4.319   4.042  12.291  2.0015 -0.0544  0.4089
 4742TIP3    H235642   4.315   4.127  12.416  1.8521  0.6149 -0.0498
 4743TIP3   OH235643   4.453   4.623  14.875  0.2460 -0.2444 -0.4313
 4743TIP3    H135644   4.422   4.537  14.847  0.4144 -0.3322 -0.3456
 4743TIP3    H235645   4.548   4.617  14.871  0.2304  0.8051 -3.0414
 4744TIP3   OH235646   5.671   3.753  15.650 -0.1113  0.5570  0.0773
 4744TIP3    H135647   5.577   3.763  15.636 -0.2778  2.1839  1.9994
 4744TIP3    H235648   5.711   3.800  15.577 -0.6903 -2.8796 -2.5618
 4745TIP3   OH235649   3.825   6.251  14.305  0.1845 -0.0810  0.0797
 4745TIP3    H135650   3.899   6.308  14.284 -0.2957 -0.3460 -2.5626
 4745TIP3    H235651   3.859   6.190  14.370  2.4140 -0.4093 -1.3247
 4746TIP3   OH235652   5.912   2.332   1.557  0.6402 -0.3856  0.3813
 4746TIP3    H135653   5.937   2.416   1.597 -1.1531  0.3771 -0.0368
 4746TIP3    H235654   5.941   2.266   1.619  0.4205  0.6428  1.5927
 4747TIP3   OH235655   0.331   0.756  15.492 -0.2425  0.1180 -0.2824
 4747TIP3    H135656   0.246   0.775  15.453 -0.7966 -2.5826 -0.4813
 4747TIP3    H235657   0.310   0.729  15.581  0.6671  2.1028  0.5586
 4748TIP3   OH235658   2.681   0.132   1.198 -0.7446  0.3838  0.3073
 4748TIP3    H135659   2.741   0.157   1.268  0.6239  0.5317 -0.8809
 4748TIP3    H235660   2.594   0.137   1.237  0.0966 -1.0064  2.4111
 4749TIP3   OH235661   1.472   5.642  11.576  0.1071  0.2498  0.2694
 4749TIP3    H135662   1.430   5.693  11.645  0.5698 -1.3609  1.7775
 4749TIP3    H235663   1.486   5.556  11.615  2.5876  0.0371 -1.0235
 4750TIP3   OH235664   0.772   2.455  15.219 -0.5733 -0.7509 -0.0456
 4750TIP3    H135665   0.702   2.475  15.156 -1.3393 -0.7017  0.8138
 4750TIP3    H235666   0.743   2.495  15.301  0.8020 -0.1299  0.1535
 4751TIP3   OH235667   5.829   4.258  17.147  0.0257 -0.2652  0.7744
 4751TIP3    H135668   5.867   4.205  17.217 -0.4827 -0.3050  1.0161
 4751TIP3    H235669   5.800   4.338  17.190 -1.6015 -0.8865  0.8656
 4752TIP3   OH235670   1.513   1.426   1.286 -0.2628 -0.0687 -0.0838
 4752TIP3    H135671   1.578   1.486   1.324 -0.2243 -1.9780  3.0310
 4752TIP3    H235672   1.549   1.339   1.302 -1.3216 -1.0373 -2.6894
 4753TIP3   OH235673   5.097   5.037   2.844 -0.4080  0.1053  0.2846
 4753TIP3    H135674   5.029   4.971   2.833 -1.1179  0.8503  0.0929
 4753TIP3    H235675   5.111   5.043   2.938  0.8568 -1.4951  0.2208
 4754TIP3   OH235676   0.172   6.761  15.218 -0.0858 -0.8226  0.6135
 4754TIP3    H135677   0.205   6.737  15.132  0.4361  1.4810  0.1252
 4754TIP3    H235678   0.233   6.721  15.280  0.3620 -1.3056 -0.1370
 4755TIP3   OH235679   2.997   0.077   5.138 -0.0311  0.3558  0.2036
 4755TIP3    H135680   3.065   0.054   5.075  0.9239  3.1537  0.1396
 4755TIP3    H235681   2.975   0.167   5.118 -2.8741 -0.0990  1.0811
 4756TIP3   OH235682   1.253   5.585  10.607 -0.2867  0.4528  0.2283
 4756TIP3    H135683   1.324   5.555  10.551 -1.8549  0.9985 -2.1364
 4756TIP3    H235684   1.293   5.597  10.693  2.5598  1.0975 -1.1229
 4757TIP3   OH235685   4.758   5.230   2.519  0.2287 -0.4470  0.2193
 4757TIP3    H135686   4.827   5.201   2.578  1.7676  0.6828 -0.9937
 4757TIP3    H235687   4.700   5.284   2.574  1.3550  0.1663  0.8203
 4758TIP3   OH235688   0.045   3.474  15.922  0.3729 -0.0235 -0.1295
 4758TIP3    H135689   0.104   3.493  15.995  0.8967 -1.0505 -0.2725
 4758TIP3    H235690  -0.029   3.430  15.962  0.3724 -0.0318 -0.1392
 4759TIP3   OH235691   1.371   0.886   3.331 -0.8137  0.4819 -0.6025
 4759TIP3    H135692   1.439   0.953   3.334 -1.2030  0.7832  2.6020
 4759TIP3    H235693   1.290   0.935   3.316 -1.0199  0.6845  1.1283
 4760TIP3   OH235694   3.868   1.647  16.389 -0.1629  0.6259  0.4291
 4760TIP3    H135695   3.822   1.729  16.373 -1.3832 -0.1914 -0.3042
 4760TIP3    H235696   3.800   1.586  16.416  0.5764 -0.4354 -0.0603
 4761TIP3   OH235697   1.353   5.302   2.388 -0.0743 -0.2514 -0.0530
 4761TIP3    H135698   1.312   5.260   2.312  0.2101 -1.3069  0.3843
 4761TIP3    H235699   1.285   5.299   2.456  0.1957 -0.6352  0.1984
 4762TIP3   OH235700   0.809   1.717  15.261 -0.2102 -0.2529  0.1602
 4762TIP3    H135701   0.883   1.656  15.252  0.3342  0.4928 -0.4106
 4762TIP3    H235702   0.818   1.754  15.349 -0.7425 -1.2423  0.6476
 4763TIP3   OH235703   5.744   5.515  15.307  0.0135 -0.0524 -0.2030
 4763TIP3    H135704   5.804   5.522  15.382 -0.0913  1.8553 -0.2785
 4763TIP3    H235705   5.678   5.451  15.336 -1.7358  2.8117  2.6022
 4764TIP3   OH235706   5.877   4.600  11.935  0.3458  0.2068  0.0894
 4764TIP3    H135707   5.903   4.546  12.010 -1.2461  0.6172  0.9607
 4764TIP3    H235708   5.818   4.665  11.972 -1.1551 -0.1251 -1.6830
 4765TIP3   OH235709   6.418   6.490   4.622  0.1308  0.7039 -0.0811
 4765TIP3    H135710   6.439   6.425   4.555 -1.8986  1.7301 -1.7518
 4765TIP3    H235711   6.415   6.573   4.575  1.4099  1.8431  1.7989
 4766TIP3   OH235712   0.153   5.761  12.654  0.2654  0.1222 -0.1747
 4766TIP3    H135713   0.189   5.672  12.652  0.4370  0.2274 -2.4494
 4766TIP3    H235714   0.137   5.783  12.563 -0.3480  2.2210  0.4068
 4767TIP3   OH235715   4.220   0.273   4.536  0.2742  0.3802 -0.3013
 4767TIP3    H135716   4.217   0.361   4.575 -0.4637  0.5689 -0.7875
 4767TIP3    H235717   4.244   0.216   4.609  1.6754  1.0931 -0.1697
 4768TIP3   OH235718   5.720   4.916   3.194 -0.0925 -0.4436 -0.3106
 4768TIP3    H135719   5.626   4.919   3.177  0.2013 -1.7445 -2.4389
 4768TIP3    H235720   5.738   4.824   3.214  0.8034 -0.2983 -0.4210
 4769TIP3   OH235721   0.362   2.584   1.868  0.4470 -0.3281  0.1826
 4769TIP3    H135722   0.382   2.677   1.856 -1.6007  0.1375  0.2816
 4769TIP3    H235723   0.426   2.554   1.933  0.2324  1.3307  1.1875
 4770TIP3   OH235724   1.090   0.871  12.482 -0.0621 -0.4665 -0.1602
 4770TIP3    H135725   1.170   0.915  12.511  0.3781 -1.1490 -0.3190
 4770TIP3    H235726   1.040   0.939  12.438 -0.2684  0.3378  1.2921
 4771TIP3   OH235727   0.317   1.892   5.123 -0.3893 -0.1237 -0.3662
 4771TIP3    H135728   0.291   1.801   5.139  1.6383 -0.4959  1.0903
 4771TIP3    H235729   0.340   1.895   5.030 -1.8490 -0.7262 -0.7553
 4772TIP3   OH235730   4.143   3.056   0.168  0.1595 -0.0433  0.5344
 4772TIP3    H135731   4.163   2.965   0.190 -0.3340 -0.3981 -0.4597
 4772TIP3    H235732   4.185   3.070   0.083 -0.3974  0.4336  0.3352
 4773TIP3   OH235733   1.356   0.544   6.176  0.3694  0.3847 -0.9153
 4773TIP3    H135734   1.312   0.487   6.239 -0.7330  0.0940 -1.9347
 4773TIP3    H235735   1.389   0.617   6.229  0.4200 -0.4021  0.1617
 4774TIP3   OH235736   4.709   2.909  12.277 -0.0825 -0.1398  0.0220
 4774TIP3    H135737   4.794   2.951  12.292  0.7341 -1.0083 -1.9392
 4774TIP3    H235738   4.683   2.938  12.190 -0.2823 -2.3570 -0.7000
 4775TIP3   OH235739   5.371   1.217  14.702 -0.1264  0.3051  0.4329
 4775TIP3    H135740   5.371   1.122  14.711 -0.2962  0.2692  0.0200
 4775TIP3    H235741   5.450   1.245  14.750 -0.3213 -0.0025  0.9391
 4776TIP3   OH235742   4.930   4.778   5.389 -0.3300 -0.1036  0.2922
 4776TIP3    H135743   4.871   4.722   5.439  0.5559  0.2882  1.7860
 4776TIP3    H235744   5.018   4.753   5.417  0.2730 -1.0119 -2.2582
 4777TIP3   OH235745   2.738   3.005   3.536 -0.4250 -0.3025 -0.1549
 4777TIP3    H135746   2.786   3.083   3.566  1.5886 -1.2261 -0.8889
 4777TIP3    H235747   2.735   2.948   3.612 -1.5858  0.3035  0.2792
 4778TIP3   OH235748   1.544   6.386   4.827  0.7359  0.0334 -0.1929
 4778TIP3    H135749   1.454   6.376   4.859  1.2938  0.8940  1.7512
 4778TIP3    H235750   1.557   6.480   4.822  0.8345 -0.0926 -2.5936
 4779TIP3   OH235751   0.477   3.992   0.801  0.0363 -0.0862 -0.4242
 4779TIP3    H135752   0.428   4.007   0.721  0.5949 -0.2604 -0.8013
 4779TIP3    H235753   0.505   4.079   0.829  0.4685 -0.0973 -0.8194
 4780TIP3   OH235754   1.544   1.406   5.892  0.1471  0.0254 -0.0156
 4780TIP3    H135755   1.632   1.416   5.927 -0.1979  0.3050  0.7816
 4780TIP3    H235756   1.487   1.451   5.954 -0.3470  1.6093 -1.5843
 4781TIP3   OH235757   5.764   0.843   1.274 -0.2064 -0.4118  0.2949
 4781TIP3    H135758   5.688   0.860   1.330 -0.9591  1.0785 -1.1296
 4781TIP3    H235759   5.817   0.922   1.282  0.0076 -0.4648 -0.5663
 4782TIP3   OH235760   4.556   2.478  17.001 -0.2633 -0.0996  0.5324
 4782TIP3    H135761   4.586   2.554  16.951  0.4950 -1.0630 -0.5294
 4782TIP3    H235762   4.619   2.470  17.072 -1.2154  1.1455  1.5228
 4783TIP3   OH235763   5.096   5.274   4.359  0.4513 -0.2143  0.2683
 4783TIP3    H135764   5.067   5.214   4.428 -2.2596  0.7510  0.0177
 4783TIP3    H235765   5.083   5.361   4.397 -2.7022  0.3904 -2.0044
 4784TIP3   OH235766   4.435   5.866   3.957  0.6822 -0.1633 -0.1868
 4784TIP3    H135767   4.455   5.839   4.047 -1.3563  0.9114  0.6308
 4784TIP3    H235768   4.500   5.933   3.937  1.5429 -0.8580  0.2468
 4785TIP3   OH235769   6.287   6.543   0.648 -0.1367 -0.8251 -0.3696
 4785TIP3    H135770   6.264   6.510   0.562  0.5570 -2.1461 -0.0529
 4785TIP3    H235771   6.203   6.554   0.693 -0.5369  0.3866 -1.3751
 4786TIP3   OH235772   2.092   5.679   1.072  0.2734  0.2362  0.6394
 4786TIP3    H135773   2.099   5.587   1.098  1.3216  0.8447  2.6046
 4786TIP3    H235774   2.183   5.709   1.065 -0.0538  1.0353 -0.3587
 4787TIP3   OH235775   2.475   4.360   3.937 -0.2559  0.4012 -0.1397
 4787TIP3    H135776   2.554   4.346   3.990 -1.3012 -2.5883  0.6877
 4787TIP3    H235777   2.507   4.364   3.847  0.7892 -1.6624  0.1092
 4788TIP3   OH235778   4.791   3.949   5.285  0.5111 -0.1008 -0.1707
 4788TIP3    H135779   4.865   3.888   5.285 -0.1942 -0.9796 -1.2773
 4788TIP3    H235780   4.781   3.973   5.377  0.9959 -1.4252  0.2497
 4789TIP3   OH235781   1.522   0.181   3.329  0.2222  0.1895 -0.2580
 4789TIP3    H135782   1.450   0.228   3.287  0.0833  0.4864  0.3032
 4789TIP3    H235783   1.567   0.136   3.258 -0.4950  0.0354 -0.6092
 4790TIP3   OH235784   1.975   0.592  13.847  0.0883  0.4192 -0.0852
 4790TIP3    H135785   1.964   0.632  13.933 -1.3538  1.2416 -0.6491
 4790TIP3    H235786   1.982   0.498  13.865  0.3377  0.6395  0.9716
 4791TIP3   OH235787   2.933   6.271   5.626  0.0516  0.0196  0.0410
 4791TIP3    H135788   2.839   6.290   5.619  0.1763  0.5076 -0.2891
 4791TIP3    H235789   2.946   6.248   5.718 -0.7135 -1.7950 -0.2777
 4792TIP3   OH235790   3.964   4.911  13.580 -0.0743  0.8607  0.2809
 4792TIP3    H135791   3.873   4.912  13.551  0.6137 -0.7659 -2.0072
 4792TIP3    H235792   3.960   4.942  13.671 -3.0789 -0.6107  0.7101
 4793TIP3   OH235793   2.463   0.056   2.050  0.1117 -0.3413 -0.3096
 4793TIP3    H135794   2.559   0.059   2.058  0.3674  0.6177 -3.2601
 4793TIP3    H235795   2.443  -0.037   2.042  0.8727 -0.5039 -0.4166
 4794TIP3   OH235796   3.268   6.422   5.863  0.0264 -0.2111  0.0418
 4794TIP3    H135797   3.196   6.463   5.817  0.4678 -0.0530 -0.5011
 4794TIP3    H235798   3.347   6.460   5.825  0.3883  0.1914  1.1670
 4795TIP3   OH235799   5.966   5.117  10.645  0.4173  0.1196  0.7597
 4795TIP3    H135800   5.881   5.086  10.613  0.4698  1.0482 -0.3115
 4795TIP3    H235801   5.980   5.200  10.598  0.7106  1.2920  2.8515
 4796TIP3   OH235802   4.209   2.160  14.593  0.4137  0.3282  0.1049
 4796TIP3    H135803   4.185   2.069  14.611 -1.4317  0.8768  0.5683
 4796TIP3    H235804   4.150   2.212  14.649  0.2215  1.8395 -1.4581
 4797TIP3   OH235805   6.427   1.457  11.318 -0.3727  0.1959  0.3237
 4797TIP3    H135806   6.507   1.405  11.327  0.5315  1.6674  1.1721
 4797TIP3    H235807   6.379   1.442  11.400 -1.2693 -1.1486 -0.4341
 4798TIP3   OH235808   4.534   3.812  15.281 -0.1688  0.9276  0.1186
 4798TIP3    H135809   4.523   3.837  15.189 -0.7168  2.8877  0.6764
 4798TIP3    H235810   4.445   3.797  15.312  0.1778 -2.0361 -0.2547
 4799TIP3   OH235811   6.063   2.280  16.857  0.2244  0.2178 -0.7930
 4799TIP3    H135812   6.003   2.218  16.898  1.1573  0.1566  0.5242
 4799TIP3    H235813   6.112   2.228  16.794 -1.2594  0.3181 -2.0355
 4800TIP3   OH235814   4.820   4.741  16.869 -0.2138 -0.2107  0.4692
 4800TIP3    H135815   4.748   4.778  16.818  1.9633 -1.6075 -3.8568
 4800TIP3    H235816   4.889   4.806  16.865  0.0688 -0.4363  1.4772
 4801TIP3   OH235817   3.390   0.986  14.406  0.2579 -0.3126 -0.0249
 4801TIP3    H135818   3.428   0.997  14.493 -1.2104  3.5671  0.2181
 4801TIP3    H235819   3.466   0.983  14.347  1.2472 -2.8240  1.3053
 4802TIP3   OH235820   5.538   0.137   5.269  0.6358  0.2355 -0.1155
 4802TIP3    H135821   5.525   0.053   5.226  0.7349  0.3309 -0.3306
 4802TIP3    H235822   5.452   0.160   5.304  0.7339 -0.2291  0.4383
 4803TIP3   OH235823   3.879   3.579   1.600 -0.0570 -0.5233 -0.2897
 4803TIP3    H135824   3.973   3.591   1.614 -0.4041  0.5194  1.3353
 4803TIP3    H235825   3.867   3.591   1.506  1.0874  2.0924 -0.1603
 4804TIP3   OH235826   2.597   4.826  16.201  0.7062 -0.4595  0.2924
 4804TIP3    H135827   2.656   4.801  16.272  0.2325 -1.6466  0.2895
 4804TIP3    H235828   2.599   4.752  16.140 -0.8801 -0.5883  0.3593
 4805TIP3   OH235829   4.619   4.652  13.261  0.0697 -0.0894  0.3926
 4805TIP3    H135830   4.573   4.577  13.299 -0.2226 -0.5360 -0.8229
 4805TIP3    H235831   4.550   4.711  13.232  0.2596 -0.4026 -0.7266
 4806TIP3   OH235832   5.678   5.853  12.054 -0.2628 -0.2180 -0.0281
 4806TIP3    H135833   5.742   5.784  12.040  2.7923  2.3387  0.8237
 4806TIP3    H235834   5.629   5.858  11.972 -0.7088 -3.4694 -0.0250
 4807TIP3   OH235835   3.061   2.137  16.047  0.2853  0.5522  0.2742
 4807TIP3    H135836   3.155   2.140  16.032  0.0316  1.3441 -1.2798
 4807TIP3    H235837   3.043   2.211  16.105  0.6603  0.2215  0.8122
 4808TIP3   OH235838   5.967   1.894  14.331  0.2287  0.2172  0.1139
 4808TIP3    H135839   6.003   1.830  14.392  0.5193  0.2388 -0.0320
 4808TIP3    H235840   6.007   1.977  14.356  0.6887  0.1481 -0.3817
 4809TIP3   OH235841   4.299   5.050   3.075 -0.0482  0.3700  0.3395
 4809TIP3    H135842   4.268   5.093   2.995 -0.9801  0.8677  0.9528
 4809TIP3    H235843   4.282   4.957   3.060  1.5361  0.2508 -0.7998
 4810TIP3   OH235844   6.648   4.999  16.777 -0.2616 -0.9482  0.1820
 4810TIP3    H135845   6.697   4.929  16.821 -0.2588 -1.3496 -0.4451
 4810TIP3    H235846   6.707   5.029  16.708  1.1187  2.0077  2.5322
 4811TIP3   OH235847   5.575   1.663  15.341 -0.6084 -0.2831 -0.4293
 4811TIP3    H135848   5.653   1.717  15.349 -0.0465 -1.2611  0.7459
 4811TIP3    H235849   5.601   1.577  15.372 -1.6870 -1.0741 -1.6611
 4812TIP3   OH235850   5.555   5.223  12.926 -0.1438  0.3202 -0.4062
 4812TIP3    H135851   5.555   5.318  12.932 -0.6301  0.3230 -0.3858
 4812TIP3    H235852   5.551   5.205  12.832 -1.7431  0.3315 -0.3509
 4813TIP3   OH235853   2.264   3.064  15.578  0.2624 -0.0110 -0.1321
 4813TIP3    H135854   2.345   3.087  15.531 -0.4804  2.1706 -0.4028
 4813TIP3    H235855   2.219   3.147  15.589 -2.2437 -1.2891 -0.4751
 4814TIP3   OH235856   1.354   4.082  16.573 -0.1492  0.3663 -0.0060
 4814TIP3    H135857   1.264   4.110  16.590 -0.4347 -0.6607  0.2507
 4814TIP3    H235858   1.363   4.088  16.478 -0.3620  0.8498  0.0056
 4815TIP3   OH235859   1.768   4.728  10.648  0.9914  0.7867 -0.1843
 4815TIP3    H135860   1.692   4.671  10.653  2.1900 -0.7696  0.4624
 4815TIP3    H235861   1.753   4.794  10.715  0.1258  0.6033 -0.1937
 4816TIP3   OH235862   4.834   1.101  11.874 -0.4342  0.0942  0.4232
 4816TIP3    H135863   4.895   1.149  11.818  0.3614 -0.4235  0.8419
 4816TIP3    H235864   4.749   1.115  11.833 -0.1609  1.5136  0.3001
 4817TIP3   OH235865   0.490   1.634   4.981  0.1188 -0.0072 -0.8534
 4817TIP3    H135866   0.490   1.725   5.010  0.2402 -0.4539  0.6119
 4817TIP3    H235867   0.549   1.590   5.043 -1.2064 -1.3742 -0.5518
 4818TIP3   OH235868   2.302   1.521   5.909  0.1137  0.4493 -0.0134
 4818TIP3    H135869   2.319   1.549   5.819  1.3023 -1.3231 -0.3732
 4818TIP3    H235870   2.387   1.526   5.952  0.7755 -4.0114 -0.5431
 4819TIP3   OH235871   5.722   0.289  10.464  0.6175  0.4710 -0.1375
 4819TIP3    H135872   5.661   0.297  10.391  1.0785  1.9278 -0.3777
 4819TIP3    H235873   5.665   0.280  10.541  0.1178  0.2536 -0.5299
 4820TIP3   OH235874   5.914   3.022  15.172  0.4507  0.6166 -0.4035
 4820TIP3    H135875   5.843   2.970  15.133  1.1631  0.1454 -1.0830
 4820TIP3    H235876   5.962   3.056  15.097  1.1375  0.6647  0.0598
 4821TIP3   OH235877   5.821   2.086   2.781 -0.2406 -0.2022 -0.2713
 4821TIP3    H135878   5.816   2.146   2.855  1.2893  1.6621 -1.6489
 4821TIP3    H235879   5.733   2.050   2.773 -0.2391 -1.0611  2.9384
 4822TIP3   OH235880   4.651   5.636  12.307 -0.3490 -0.1662  0.1330
 4822TIP3    H135881   4.577   5.694  12.322 -0.0934 -0.1583  1.4271
 4822TIP3    H235882   4.690   5.667  12.225 -1.9323 -0.3554 -0.6995
 4823TIP3   OH235883   0.959   3.364   0.960  0.3852 -0.2240  0.1044
 4823TIP3    H135884   0.981   3.397   0.873  1.1720  0.4105  0.5344
 4823TIP3    H235885   0.988   3.433   1.020 -1.4227 -0.0378  0.7917
 4824TIP3   OH235886   5.621   3.538  14.587  0.2861 -0.0165  0.1856
 4824TIP3    H135887   5.716   3.525  14.595  0.7292  1.6761 -1.8598
 4824TIP3    H235888   5.598   3.499  14.503 -1.1708 -1.9373  1.4226
 4825TIP3   OH235889   0.958   3.864   0.823  0.5746  0.4771  0.2882
 4825TIP3    H135890   1.044   3.876   0.863 -0.6305  2.1554  2.5349
 4825TIP3    H235891   0.940   3.947   0.779 -0.4764  0.6993  1.0968
 4826TIP3   OH235892   4.997   1.957  11.633  0.6834 -0.1760  0.8535
 4826TIP3    H135893   5.024   1.982  11.721 -0.9816  1.5576  0.8812
 4826TIP3    H235894   5.065   1.993  11.575  2.4605 -2.3842  1.4552
 4827TIP3   OH235895   2.074   6.604  16.978 -0.0598  0.0549  0.5775
 4827TIP3    H135896   2.029   6.520  16.988  0.1532 -0.2364 -0.8164
 4827TIP3    H235897   2.060   6.628  16.887 -0.0569  1.5123  0.9522
 4828TIP3   OH235898   3.954   3.425  13.776  0.1488  0.3320 -0.2101
 4828TIP3    H135899   4.010   3.348  13.785 -1.3730 -1.1491 -2.8164
 4828TIP3    H235900   3.866   3.392  13.791 -0.3551  1.9362  0.3908
 4829TIP3   OH235901   3.233   6.216  15.250  0.0395  0.6246 -0.0941
 4829TIP3    H135902   3.260   6.263  15.171  1.4996 -1.1176 -0.6667
 4829TIP3    H235903   3.147   6.180  15.228  0.4122  0.2012 -0.8826
 4830TIP3   OH235904   2.147   3.197  16.343 -0.4598  0.1258  0.1040
 4830TIP3    H135905   2.237   3.230  16.349 -0.6505  0.4438  1.4184
 4830TIP3    H235906   2.098   3.250  16.407 -1.2075 -1.2673  0.7106
 4831TIP3   OH235907   5.525   5.666  11.408  0.4961 -0.3368  0.6272
 4831TIP3    H135908   5.536   5.592  11.467  1.1090 -1.2495 -0.6086
 4831TIP3    H235909   5.578   5.644  11.331 -0.8852  0.4529 -0.5865
 4832TIP3   OH235910   2.322   6.561  16.661 -0.3699 -0.1626  0.7974
 4832TIP3    H135911   2.240   6.513  16.649 -1.3932  1.7662 -0.0907
 4832TIP3    H235912   2.390   6.493  16.661 -1.5909 -1.4845 -2.3305
 4833TIP3   OH235913   0.276   4.653  12.991 -0.4745  0.7726  0.5748
 4833TIP3    H135914   0.329   4.720  12.948 -0.6228  1.1356  0.9553
 4833TIP3    H235915   0.322   4.571  12.972  0.6153  1.1533  1.4732
 4834TIP3   OH235916   6.172   5.915  14.034  0.7650 -0.2526 -0.4414
 4834TIP3    H135917   6.179   5.859  13.957  1.6368 -0.4935 -0.1852
 4834TIP3    H235918   6.259   5.955  14.043  0.4167  0.4382 -0.0881
 4835TIP3   OH235919   6.728   0.124  17.039  0.1867 -0.3336 -0.6180
 4835TIP3    H135920   6.641   0.126  16.999  0.4278 -0.3359 -1.1551
 4835TIP3    H235921   6.783   0.082  16.972  0.4626 -0.9228 -0.0195
 4836TIP3   OH235922   5.337   6.129  16.837  0.8877 -0.2695  0.1991
 4836TIP3    H135923   5.368   6.049  16.796 -0.2279 -1.1147  0.9795
 4836TIP3    H235924   5.247   6.109  16.864  0.3038  1.5136 -0.3582
 4837TIP3   OH235925   3.293   1.483   2.766  0.2756 -0.1354  0.4236
 4837TIP3    H135926   3.350   1.461   2.693 -1.6477 -1.9878 -0.5553
 4837TIP3    H235927   3.311   1.416   2.832  1.1170  0.8187  1.1795
 4838TIP3   OH235928   3.985   0.995   2.316 -0.2365 -0.6342  0.2002
 4838TIP3    H135929   4.021   0.908   2.333  0.4616 -0.1259  1.3328
 4838TIP3    H235930   3.990   1.041   2.400 -1.5742  0.1612 -0.1289
 4839TIP3   OH235931   6.753   5.251   2.568 -0.2489 -0.2676 -0.3641
 4839TIP3    H135932   6.794   5.324   2.614  0.0898  1.1207 -2.7884
 4839TIP3    H235933   6.717   5.196   2.638  0.2637  1.7460  1.5481
 4840TIP3   OH235934   4.722   6.754   3.728  0.2749 -0.9961  0.0377
 4840TIP3    H135935   4.653   6.726   3.668 -0.1976 -0.5859  0.3785
 4840TIP3    H235936   4.733   6.681   3.789 -0.6554 -0.6110  0.6702
 4841TIP3   OH235937   6.178   1.683  13.756 -0.8123 -0.0379  0.3368
 4841TIP3    H135938   6.130   1.610  13.795 -0.3166  0.2637  1.5507
 4841TIP3    H235939   6.252   1.697  13.815 -0.8132  1.3433  0.0262
 4842TIP3   OH235940   5.198   3.809   5.016 -0.1947 -0.2640 -0.0435
 4842TIP3    H135941   5.279   3.762   5.035 -0.3559 -0.4010  0.3080
 4842TIP3    H235942   5.199   3.883   5.078 -1.1373 -1.1905  1.1063
 4843TIP3   OH235943   1.839   1.979  14.280  0.0868 -0.2793  0.4323
 4843TIP3    H135944   1.908   2.018  14.226  0.4673 -0.2048  0.9699
 4843TIP3    H235945   1.773   2.047  14.288  0.2616 -0.1151  0.4823
 4844TIP3   OH235946   0.882   2.764  11.385  0.0834  0.4724  0.4509
 4844TIP3    H135947   0.873   2.725  11.298 -1.7232 -0.4252  1.0145
 4844TIP3    H235948   0.805   2.820  11.393 -0.2283 -0.1513  1.8261
 4845TIP3   OH235949   4.028   4.807   1.571 -0.0990  0.1711 -0.2521
 4845TIP3    H135950   4.120   4.833   1.560 -0.6759  3.0897  1.3861
 4845TIP3    H235951   3.979   4.870   1.517 -1.1557 -1.4179 -1.1771
 4846TIP3   OH235952   3.420   6.224  14.883  0.5142  0.2611 -0.2849
 4846TIP3    H135953   3.371   6.226  14.966  2.1108  0.0311  0.6895
 4846TIP3    H235954   3.408   6.312  14.847 -0.9221  0.0948 -0.2675
 4847TIP3   OH235955   2.690   5.292  11.450 -0.3309  0.2961 -0.2550
 4847TIP3    H135956   2.600   5.288  11.483 -0.9412 -0.7413 -1.9862
 4847TIP3    H235957   2.685   5.349  11.373  0.8127  1.5802  0.6102
 4848TIP3   OH235958   4.711   0.587  15.848  0.2164  0.1592  0.3621
 4848TIP3    H135959   4.652   0.520  15.884 -2.2528  1.4174 -1.2014
 4848TIP3    H235960   4.749   0.545  15.770  1.6739 -0.7730  1.5571
 4849TIP3   OH235961   5.629   2.096  15.344  0.7652  0.2381  0.4125
 4849TIP3    H135962   5.588   2.136  15.420  0.3502  0.7293 -0.0615
 4849TIP3    H235963   5.722   2.092  15.366  0.7054  0.7609  0.7748
 4850TIP3   OH235964   4.230   6.734  12.900 -0.0735 -0.2040  0.2072
 4850TIP3    H135965   4.181   6.722  12.819 -3.2833  0.5547  1.9454
 4850TIP3    H235966   4.309   6.782  12.874 -0.3990 -1.0968 -2.5992
 4851TIP3   OH235967   5.265   5.754  12.013 -0.0149  0.0390 -0.2495
 4851TIP3    H135968   5.261   5.845  12.043  0.4734 -0.0870  0.2147
 4851TIP3    H235969   5.343   5.718  12.056 -1.1928 -1.1005  1.0053
 4852TIP3   OH235970   2.992   5.401   3.774 -0.2850 -0.5057  0.3621
 4852TIP3    H135971   2.942   5.435   3.700 -0.7898 -0.0889  0.8924
 4852TIP3    H235972   2.961   5.311   3.785  0.0628 -0.6937 -0.1666
 4853TIP3   OH235973   2.737   5.572   2.012 -0.0423 -0.1649 -0.5948
 4853TIP3    H135974   2.825   5.534   2.013 -0.1794 -0.6604 -2.9126
 4853TIP3    H235975   2.681   5.502   1.978 -1.4603 -0.0787  1.5091
 4854TIP3   OH235976   0.839   0.700  13.112 -0.4818 -0.0527  0.0210
 4854TIP3    H135977   0.771   0.659  13.058 -0.3741  0.8157 -0.7984
 4854TIP3    H235978   0.921   0.665  13.077 -0.4064  0.6025 -0.4712
 4855TIP3   OH235979   0.288   5.995  15.321 -0.1346 -0.0799 -0.7120
 4855TIP3    H135980   0.312   5.912  15.279  0.3880 -0.3232  0.0502
 4855TIP3    H235981   0.366   6.049  15.311  0.3649 -0.4750  0.7718
 4856TIP3   OH235982   2.381   1.887   5.483 -0.1536  0.0208  0.8578
 4856TIP3    H135983   2.300   1.852   5.445 -0.1571  0.5980  0.3075
 4856TIP3    H235984   2.393   1.972   5.439  1.1035 -0.3540  0.4483
 4857TIP3   OH235985   6.181   5.565  16.479  0.2975  0.4007 -0.2399
 4857TIP3    H135986   6.097   5.546  16.438  0.3829  2.5270 -1.5185
 4857TIP3    H235987   6.161   5.573  16.572 -1.1466  1.9124 -0.6450
 4858TIP3   OH235988   1.727   0.467   4.509  0.7881 -0.4679 -0.1846
 4858TIP3    H135989   1.638   0.458   4.544  0.1754  0.2294 -1.5243
 4858TIP3    H235990   1.754   0.376   4.491 -0.9126 -0.5490 -2.7442
 4859TIP3   OH235991   1.180   4.514   4.144 -0.5562  0.6763  0.4749
 4859TIP3    H135992   1.133   4.573   4.203  0.3391  0.5440  1.3365
 4859TIP3    H235993   1.157   4.545   4.056  0.6978  2.9905  0.9109
 4860TIP3   OH235994   3.401   0.055  11.495  0.0299  0.1779  0.0979
 4860TIP3    H135995   3.349   0.018  11.424  1.0119 -1.2915  0.1268
 4860TIP3    H235996   3.453   0.123  11.452  1.5568 -1.5508 -0.8739
 4861TIP3   OH235997   6.458   6.410   4.879  0.3073  0.2778  0.0714
 4861TIP3    H135998   6.553   6.407   4.870  0.1878 -0.1063 -1.1084
 4861TIP3    H235999   6.428   6.457   4.801 -0.5784 -0.9920 -0.3670
 4862TIP3   OH236000   3.210   4.211   2.398 -0.3778  0.0445  0.1747
 4862TIP3    H136001   3.118   4.190   2.380 -0.5080  0.9544 -0.2457
 4862TIP3    H236002   3.211   4.305   2.415  0.5746  0.1858 -0.5597
 4863TIP3   OH236003   2.667   1.524  13.021 -0.0375  0.0316  0.1805
 4863TIP3    H136004   2.752   1.484  13.038 -0.5122 -0.7646  0.7424
 4863TIP3    H236005   2.604   1.457  13.047 -0.8506  1.0447  0.8472
 4864TIP3   OH236006   6.189   1.995   5.756 -0.1943 -0.1005  0.2922
 4864TIP3    H136007   6.125   1.923   5.760  1.1549 -1.4618 -1.9423
 4864TIP3    H236008   6.152   2.056   5.692 -0.1836  0.0336  0.4152
 4865TIP3   OH236009   2.754   0.370  16.424 -0.0010  0.4208 -0.0733
 4865TIP3    H136010   2.700   0.409  16.356  0.9234  0.4651 -0.7892
 4865TIP3    H236011   2.810   0.308  16.378  0.1397 -0.0707  0.7424
 4866TIP3   OH236012   4.504   5.101  10.899 -0.0008  0.0565  0.0942
 4866TIP3    H136013   4.417   5.134  10.920  0.1609  0.4079  0.2273
 4866TIP3    H236014   4.506   5.097  10.803 -0.1708  0.0236  0.0915
 4867TIP3   OH236015   5.401   6.650   1.567 -0.0172  0.1161 -0.1743
 4867TIP3    H136016   5.477   6.626   1.514 -0.7731  1.0863 -1.7024
 4867TIP3    H236017   5.373   6.735   1.533 -1.0412  0.3470  1.2030
 4868TIP3   OH236018   0.695   4.739   2.339  0.4523  0.1989  0.0639
 4868TIP3    H136019   0.633   4.767   2.271 -0.4194  0.4993  0.9725
 4868TIP3    H236020   0.779   4.735   2.293  0.1861  2.0136 -0.6692
 4869TIP3   OH236021   4.154   1.427   5.655  0.2810 -0.7339 -0.4190
 4869TIP3    H136022   4.122   1.489   5.721  0.2149 -0.2857 -0.8670
 4869TIP3    H236023   4.075   1.399   5.609  0.2699 -1.4339  0.0218
 4870TIP3   OH236024   2.180   2.452   4.907  0.3018  0.6946  0.1691
 4870TIP3    H136025   2.253   2.514   4.905 -0.0292  1.1639  1.9412
 4870TIP3    H236026   2.102   2.506   4.920  0.1188 -0.1363  2.7582
 4871TIP3   OH236027   4.585   4.623   2.846 -0.3425 -0.2371  0.4080
 4871TIP3    H136028   4.610   4.531   2.859 -0.9561 -0.7626 -1.8437
 4871TIP3    H236029   4.531   4.621   2.767 -0.5518  2.0447  0.4824
 4872TIP3   OH236030   2.112   4.567  14.681 -0.1223 -0.2808  0.0094
 4872TIP3    H136031   2.041   4.623  14.712 -2.7382 -1.8488 -2.8935
 4872TIP3    H236032   2.081   4.478  14.699  1.6156 -0.9628 -0.3079
 4873TIP3   OH236033   3.043   5.957   2.181  0.0051  0.5670 -0.1505
 4873TIP3    H136034   3.006   5.889   2.124 -1.4905  1.7225 -0.5702
 4873TIP3    H236035   3.078   6.022   2.121 -1.1649  1.5667  0.2318
 4874TIP3   OH236036   1.515   6.679  12.023  0.2165  0.1370 -0.0086
 4874TIP3    H136037   1.572   6.633  12.085  0.1901  0.0435 -0.0536
 4874TIP3    H236038   1.450   6.614  11.997  0.7375 -0.0760 -0.8000
 4875TIP3   OH236039   3.889   2.403  10.568  0.3314  0.1969  0.1698
 4875TIP3    H136040   3.818   2.414  10.631  1.0586  0.1393  1.0183
 4875TIP3    H236041   3.936   2.486  10.570 -0.8764  0.9713 -1.8902
 4876TIP3   OH236042   5.998   6.714  15.450 -0.5125 -0.4165 -0.2484
 4876TIP3    H136043   5.996   6.638  15.509  0.8059 -0.1822  0.1207
 4876TIP3    H236044   5.913   6.711  15.405 -1.0284 -1.3297  0.7367
 4877TIP3   OH236045   4.541   6.638  16.858  0.1906 -0.0624  0.6279
 4877TIP3    H136046   4.487   6.559  16.849  0.8298 -0.4036 -0.3238
 4877TIP3    H236047   4.498   6.703  16.804  0.9069 -0.4363 -0.4077
 4878TIP3   OH236048   1.964   5.330  14.100  0.3200  0.3340 -0.0018
 4878TIP3    H136049   2.021   5.294  14.167 -0.4028  1.1622  1.0766
 4878TIP3    H236050   1.878   5.292  14.117  0.6848 -1.5847 -2.1467
 4879TIP3   OH236051   1.055   1.886  13.281 -0.5424  0.2862  0.3481
 4879TIP3    H136052   1.083   1.855  13.367  0.8012  0.8379  0.1110
 4879TIP3    H236053   1.093   1.824  13.220 -0.2509  0.7469  0.0588
 4880TIP3   OH236054   4.033   4.489   0.796  0.0093 -0.0966 -0.0322
 4880TIP3    H136055   4.098   4.528   0.739 -0.1903  0.2293 -0.0389
 4880TIP3    H236056   3.958   4.549   0.793 -0.5689 -0.8367 -0.5941
 4881TIP3   OH236057   3.563   4.332  14.706 -0.6171 -0.0172 -0.6293
 4881TIP3    H136058   3.518   4.350  14.788 -0.2161 -0.0477 -0.4039
 4881TIP3    H236059   3.589   4.418  14.673  0.7604 -0.1260  0.1454
 4882TIP3   OH236060   6.777   6.285  16.456 -0.0600 -0.1448  0.2476
 4882TIP3    H136061   6.853   6.330  16.493 -1.0253  2.3441 -0.7003
 4882TIP3    H236062   6.711   6.289  16.525  0.3046 -1.4239  0.6952
 4883TIP3   OH236063   5.879   1.057  11.646 -0.8854  0.6853 -0.2490
 4883TIP3    H136064   5.871   1.026  11.736 -0.9323  1.3783 -0.0106
 4883TIP3    H236065   5.847   0.984  11.592  0.0440 -0.1045  0.2426
 4884TIP3   OH236066   5.480   3.014  17.100  0.2153  0.1268  0.2109
 4884TIP3    H136067   5.418   2.942  17.101 -1.4433  1.5220 -0.3748
 4884TIP3    H236068   5.551   2.983  17.044  1.2094 -2.3708  2.7143
 4885TIP3   OH236069   6.320   3.411  15.670 -0.4629  0.1146  0.0089
 4885TIP3    H136070   6.238   3.438  15.629 -1.1052  0.3703  1.4294
 4885TIP3    H236071   6.318   3.315  15.667  0.5626  0.1353 -2.5853
 4886TIP3   OH236072   5.535   0.668  15.969  0.2658  0.1521  0.5695
 4886TIP3    H136073   5.535   0.682  16.064  2.7271 -0.7507  0.7350
 4886TIP3    H236074   5.554   0.575  15.959  0.8710  0.4228 -0.8140
 4887TIP3   OH236075   2.289   1.545   3.925  0.4160 -0.1918 -0.6954
 4887TIP3    H136076   2.215   1.549   3.986  0.5145 -0.3438 -0.5657
 4887TIP3    H236077   2.277   1.620   3.867 -0.0775 -0.4601 -0.9436
 4888TIP3   OH236078   1.291   4.245  15.273  0.7287  0.5561 -0.2361
 4888TIP3    H136079   1.246   4.231  15.357  1.1850  1.2438  0.1322
 4888TIP3    H236080   1.220   4.262  15.211  0.3798 -0.0792 -0.0142
 4889TIP3   OH236081   2.860   4.117   1.853  0.0989  0.3622 -0.0767
 4889TIP3    H136082   2.946   4.105   1.812  0.2094  0.0088  0.2478
 4889TIP3    H236083   2.807   4.046   1.818  0.7357 -1.1042  1.8068
 4890TIP3   OH236084   1.454   6.126  13.880 -0.4243 -0.0621 -0.3316
 4890TIP3    H136085   1.481   6.217  13.896 -2.8906  0.6870 -0.2044
 4890TIP3    H236086   1.506   6.075  13.942  0.0955  1.3973  0.4738
 4891TIP3   OH236087   4.176   5.808  12.389  0.1841 -0.5170 -0.5454
 4891TIP3    H136088   4.198   5.901  12.398  0.9111 -0.3820 -3.1122
 4891TIP3    H236089   4.106   5.807  12.323 -0.3285 -1.7443  0.0073
 4892TIP3   OH236090   1.903   6.638   5.253  0.1867 -0.0589 -0.1773
 4892TIP3    H136091   1.988   6.678   5.236  0.0916 -0.4444 -1.5516
 4892TIP3    H236092   1.896   6.566   5.190 -0.1289 -1.5565  1.5237
 4893TIP3   OH236093   6.727   1.125   1.430  0.0317 -0.7005  0.3758
 4893TIP3    H136094   6.748   1.044   1.385 -0.8140 -0.5995 -0.2009
 4893TIP3    H236095   6.687   1.098   1.513 -2.1891 -0.8686 -0.7339
 4894TIP3   OH236096   6.434   5.920   0.125 -1.1739 -0.1426  1.0132
 4894TIP3    H136097   6.460   5.982   0.057  0.8299  0.1796  2.0230
 4894TIP3    H236098   6.409   5.841   0.077 -1.4219  0.6371 -0.1649
 4895TIP3   OH236099   1.115   1.088   1.217  0.2335  0.2494 -0.5611
 4895TIP3    H136100   1.057   1.039   1.158 -0.9312 -0.7033  1.3133
 4895TIP3    H236101   1.160   1.021   1.268  3.1849  0.9809 -2.1064
 4896TIP3   OH236102   5.533   0.046  13.530 -0.2188  0.2818  0.4977
 4896TIP3    H136103   5.511   0.059  13.438 -1.0935 -0.7540  0.5511
 4896TIP3    H236104   5.618   0.002  13.528 -0.1775  0.3705  0.1954
 4897TIP3   OH236105   1.546   1.613  15.711 -0.8040  0.7891 -0.1496
 4897TIP3    H136106   1.582   1.696  15.679 -1.2813  1.5429  1.2589
 4897TIP3    H236107   1.491   1.582  15.639  1.3339  0.4241 -1.6984
 4898TIP3   OH236108   4.220   0.435  15.608  0.1311  0.1898  0.0303
 4898TIP3    H136109   4.301   0.404  15.649 -0.4388 -0.6116  0.5576
 4898TIP3    H236110   4.236   0.425  15.514  0.0736 -1.4403  0.1836
 4899TIP3   OH236111   3.643   5.703  14.688 -0.3272  0.2551 -0.3832
 4899TIP3    H136112   3.617   5.786  14.728  0.4955  0.3811 -0.1067
 4899TIP3    H236113   3.730   5.719  14.652  1.2310 -1.3808  2.5090
 4900TIP3   OH236114   6.301   1.707   5.536  0.2177 -0.2853 -0.3183
 4900TIP3    H136115   6.377   1.695   5.593 -0.8949 -0.3849  1.1815
 4900TIP3    H236116   6.270   1.796   5.554 -0.7177 -0.6591 -0.0375
 4901TIP3   OH236117   1.138   2.321   4.168  0.0268  0.1666  0.1392
 4901TIP3    H136118   1.057   2.362   4.136  1.3547  2.5254 -0.3082
 4901TIP3    H236119   1.141   2.343   4.261  0.2181  0.1714  0.1322
 4902TIP3   OH236120   6.585   2.586  12.461 -0.3639  0.3459 -0.2279
 4902TIP3    H136121   6.526   2.620  12.394 -0.4167  1.9126  0.5825
 4902TIP3    H236122   6.647   2.657  12.477  2.7352 -1.7651 -2.1380
 4903TIP3   OH236123   1.519   2.988  12.550  0.0667  0.0366  0.0778
 4903TIP3    H136124   1.583   2.997  12.479 -1.8876  0.0093 -1.7536
 4903TIP3    H236125   1.461   3.063  12.540 -1.2494 -0.8871  0.5693
 4904TIP3   OH236126   0.870   5.474   1.179 -0.3028  0.0469  0.0007
 4904TIP3    H136127   0.881   5.482   1.273 -0.0763  0.0570 -0.0269
 4904TIP3    H236128   0.825   5.555   1.153  0.3677  0.4145 -0.0190
 4905TIP3   OH236129   5.348   0.371  16.085  0.1379 -0.1384  0.3347
 4905TIP3    H136130   5.263   0.403  16.114  0.2826  0.1799  0.4160
 4905TIP3    H236131   5.339   0.276  16.082 -0.2059 -0.1065  0.3829
 4906TIP3   OH236132   0.666   3.282  11.295  0.2168 -0.2509  0.4653
 4906TIP3    H136133   0.606   3.214  11.326 -0.0346 -0.4944 -0.5596
 4906TIP3    H236134   0.611   3.359  11.281  0.3005 -0.2001  0.4149
 4907TIP3   OH236135   1.917   2.332  10.494  0.2352 -0.2457 -0.1789
 4907TIP3    H136136   1.934   2.248  10.537 -0.5458  0.0118  0.6457
 4907TIP3    H236137   1.955   2.397  10.552 -1.1309  0.1292  0.3048
 4908TIP3   OH236138   5.049   2.600   2.039 -0.5136 -0.4144 -0.8404
 4908TIP3    H136139   5.113   2.590   2.110 -0.4320  1.2973 -0.6537
 4908TIP3    H236140   4.969   2.560   2.074 -0.6388  0.9030  0.4752
 4909TIP3   OH236141   3.910   3.189   1.250 -0.7318  0.2918 -0.6081
 4909TIP3    H136142   3.953   3.105   1.263  0.5180  0.9276 -0.5910
 4909TIP3    H236143   3.866   3.206   1.334  1.1162  0.8418  0.2689
 4910TIP3   OH236144   4.508   5.358  16.805  0.4375 -0.1563 -0.1103
 4910TIP3    H136145   4.433   5.384  16.858  0.7764 -1.5438  1.0992
 4910TIP3    H236146   4.471   5.299  16.739  0.5385 -1.3493  0.8815
 4911TIP3   OH236147   5.800   0.179   5.088  0.4934  0.0331 -0.5336
 4911TIP3    H136148   5.881   0.169   5.037 -0.2364 -1.3160 -1.4576
 4911TIP3    H236149   5.794   0.099   5.139 -0.5508 -0.1337 -0.9001
 4912TIP3   OH236150   6.686   0.163   4.686 -0.2076  0.1757  0.0227
 4912TIP3    H136151   6.681   0.246   4.733 -0.4112 -0.1912  0.6523
 4912TIP3    H236152   6.733   0.104   4.745 -0.2004 -0.2038 -0.3567
 4913TIP3   OH236153   2.820   5.190   3.830  0.2133  0.2026 -0.0194
 4913TIP3    H136154   2.727   5.200   3.848  0.1262  0.0685 -0.3975
 4913TIP3    H236155   2.842   5.102   3.860  0.8835  1.2910  2.8774
 4914TIP3   OH236156   4.993   1.656  11.442  0.1104 -0.0020  0.0193
 4914TIP3    H136157   4.983   1.594  11.370 -1.2314  0.8770 -0.5696
 4914TIP3    H236158   4.968   1.741  11.405 -0.7559  0.4369  1.5405
 4915TIP3   OH236159   1.477   3.243  13.887  0.2706 -0.1007  0.3114
 4915TIP3    H136160   1.514   3.240  13.798 -0.1938 -2.4118  0.1559
 4915TIP3    H236161   1.552   3.261  13.943  0.4140  2.3625 -0.6012
 4916TIP3   OH236162   3.910   1.093  15.829 -0.1256 -0.3403  0.5396
 4916TIP3    H136163   3.889   1.029  15.761 -0.1593 -2.3087  2.3644
 4916TIP3    H236164   3.826   1.114  15.870 -0.1179  0.9093 -0.0600
 4917TIP3   OH236165   1.971   5.625   0.236 -0.0613 -0.3706 -0.2706
 4917TIP3    H136166   1.984   5.556   0.171 -0.3570  0.0092 -0.7337
 4917TIP3    H236167   1.896   5.595   0.288 -2.3209  1.1289 -2.5461
 4918TIP3   OH236168   4.671   1.057  14.118  0.3110  0.1431  0.1656
 4918TIP3    H136169   4.653   1.118  14.189 -2.3123  1.0556 -1.2077
 4918TIP3    H236170   4.722   1.107  14.055 -0.9111  0.6305 -0.4597
 4919TIP3   OH236171   0.759   2.668   0.216  0.5089 -0.0584  0.3939
 4919TIP3    H136172   0.691   2.724   0.254 -0.5877  0.1997 -1.8334
 4919TIP3    H236173   0.741   2.581   0.252 -0.0726  0.3094  0.9999
 4920TIP3   OH236174   6.234   4.080  13.193 -0.8048  0.1966 -0.3267
 4920TIP3    H136175   6.233   4.079  13.098  0.0675 -0.8158 -0.3351
 4920TIP3    H236176   6.323   4.105  13.217 -0.9569  0.2293  0.2286
 4921TIP3   OH236177   0.346   3.484  15.328  0.0507 -0.1290 -0.9927
 4921TIP3    H136178   0.266   3.458  15.282 -0.1380  0.9105 -1.2736
 4921TIP3    H236179   0.400   3.524  15.260  0.0926  0.7214 -0.4736
 4922TIP3   OH236180   2.000   4.269   6.234 -0.2623 -0.7854 -0.5070
 4922TIP3    H136181   1.933   4.230   6.178  0.6674  0.6087 -2.6371
 4922TIP3    H236182   1.960   4.350   6.266  0.2792 -0.1295 -1.4948
 4923TIP3   OH236183   1.394   0.478  15.549  0.0550  0.1352  0.1804
 4923TIP3    H136184   1.302   0.503  15.554 -0.3650 -1.5836  1.3264
 4923TIP3    H236185   1.427   0.488  15.638  0.7941  0.0247 -0.0731
 4924TIP3   OH236186   6.422   2.292  15.132  0.0018  0.2749 -0.4617
 4924TIP3    H136187   6.411   2.254  15.219  1.6178  3.0139  1.0325
 4924TIP3    H236188   6.335   2.325  15.110 -0.2587  0.2618  0.4871
 4925TIP3   OH236189   0.150   3.372  16.595 -0.5429  0.4654 -0.1458
 4925TIP3    H136190   0.191   3.441  16.543 -0.9749  0.4872 -0.4561
 4925TIP3    H236191   0.076   3.342  16.543  0.1802 -0.8823 -0.4393
 4926TIP3   OH236192   0.964   0.692  12.025 -0.0915  0.2397 -0.7811
 4926TIP3    H136193   1.019   0.739  12.089  1.5686 -1.4357 -0.9383
 4926TIP3    H236194   0.899   0.647  12.079 -0.4436  1.0983 -0.4813
 4927TIP3   OH236195   0.245   3.918   4.401 -0.5147 -0.2643  0.1154
 4927TIP3    H136196   0.261   3.892   4.491 -1.1587  0.1112  0.3417
 4927TIP3    H236197   0.277   3.845   4.349 -1.0858 -0.9329  0.6945
 4928TIP3   OH236198   3.527   3.036  10.685 -0.0163 -0.0211  0.3032
 4928TIP3    H136199   3.461   2.972  10.710  0.7162 -1.5265 -1.5159
 4928TIP3    H236200   3.611   2.992  10.702  0.4863  0.2534 -1.4164
 4929TIP3   OH236201   1.112   1.226   1.828 -0.0246  0.5174 -1.0147
 4929TIP3    H136202   1.103   1.313   1.790  2.6038  1.4864  0.5043
 4929TIP3    H236203   1.024   1.205   1.860 -0.5308  2.9569 -0.6905
 4930TIP3   OH236204   5.203   1.652  11.995  0.6345 -0.1280 -0.1474
 4930TIP3    H136205   5.184   1.734  11.948  1.6808 -1.0244 -2.2109
 4930TIP3    H236206   5.214   1.679  12.086 -0.9650  1.7484 -0.4618
 4931TIP3   OH236207   1.913   4.319  12.072  0.3226 -0.7287  0.2131
 4931TIP3    H136208   1.926   4.347  11.981  3.0149 -1.3195  0.3538
 4931TIP3    H236209   2.000   4.325  12.111 -0.5862 -1.5683  2.4494
 4932TIP3   OH236210   6.048   2.979   3.549 -1.0868  0.5710 -0.2264
 4932TIP3    H136211   6.050   3.057   3.604 -1.6242  0.8895 -0.6538
 4932TIP3    H236212   6.018   3.011   3.464 -0.2680  0.0842 -0.7037
 4933TIP3   OH236213   4.713   4.918   2.287  0.2577  0.0445  0.0525
 4933TIP3    H136214   4.633   4.904   2.238 -0.5135  2.0064  0.6809
 4933TIP3    H236215   4.776   4.857   2.250 -1.1694 -0.6269 -1.2932
 4934TIP3   OH236216   2.808   5.881   5.882  0.7519  0.3048 -0.5233
 4934TIP3    H136217   2.854   5.959   5.852 -1.3769  0.9818 -2.1361
 4934TIP3    H236218   2.718   5.891   5.849  0.6878 -3.3057 -1.7049
 4935TIP3   OH236219   4.511   2.066  11.389  0.2836 -0.1148  0.2997
 4935TIP3    H136220   4.569   2.040  11.317  0.3347 -0.5166  0.4885
 4935TIP3    H236221   4.558   2.038  11.468  1.1714  2.1051  0.5974
 4936TIP3   OH236222   1.637   2.479  13.299  0.3057  0.3180  0.1808
 4936TIP3    H136223   1.594   2.548  13.248 -0.7470 -1.3927 -1.3414
 4936TIP3    H236224   1.726   2.476  13.264  0.1837  0.5016 -0.1501
 4937TIP3   OH236225   3.618   3.277  16.864 -0.0204 -0.1824 -0.6230
 4937TIP3    H136226   3.589   3.358  16.821  0.5327 -0.4316 -1.4697
 4937TIP3    H236227   3.541   3.220  16.862 -0.9440  0.9362  1.5189
 4938TIP3   OH236228   6.524   5.696  13.755  0.3443  0.3377 -0.4334
 4938TIP3    H136229   6.495   5.631  13.819 -0.8931 -0.6957 -2.0038
 4938TIP3    H236230   6.529   5.778  13.804 -2.0674 -0.1175  0.6457
 4939TIP3   OH236231   1.421   5.373   4.091  0.4158 -0.3578 -0.1702
 4939TIP3    H136232   1.488   5.378   4.159  0.7130  1.4360 -0.5766
 4939TIP3    H236233   1.471   5.371   4.009 -0.0121  1.0614 -0.4757
 4940TIP3   OH236234   4.371   0.498   2.729  0.4706  0.3528  0.6405
 4940TIP3    H136235   4.433   0.476   2.799 -1.8524  0.7903  2.8947
 4940TIP3    H236236   4.294   0.446   2.747 -0.4388  1.0006 -1.2227
 4941TIP3   OH236237   5.944   1.961   2.210  0.3650  0.2328  0.0909
 4941TIP3    H136238   5.916   2.045   2.247 -0.7793  0.0640 -0.3619
 4941TIP3    H236239   5.922   1.897   2.277  1.1844  0.2868  0.4122
 4942TIP3   OH236240   6.060   2.103  16.617  0.3767  0.2131 -0.2812
 4942TIP3    H136241   5.992   2.135  16.559  1.0579 -0.2291 -1.3463
 4942TIP3    H236242   6.029   2.017  16.645 -0.7467  1.1523  1.3733
 4943TIP3   OH236243   1.785   0.389   4.162  0.2085  0.0810 -0.2786
 4943TIP3    H136244   1.862   0.398   4.105  0.6664 -2.4675 -0.1160
 4943TIP3    H236245   1.712   0.379   4.102  0.3136  0.2352 -0.4321
 4944TIP3   OH236246   5.087   0.187  15.751  0.4501 -0.4428  0.3049
 4944TIP3    H136247   5.071   0.147  15.665 -1.4747 -0.0143  0.4296
 4944TIP3    H236248   5.121   0.275  15.731  2.0984 -1.1334  0.0125
 4945TIP3   OH236249   4.493   6.668  16.217  0.0762  0.2562  0.0533
 4945TIP3    H136250   4.518   6.731  16.149  1.7757 -0.5081 -0.0542
 4945TIP3    H236251   4.539   6.699  16.295 -0.0662 -0.1682  0.3039
 4946TIP3   OH236252   4.894   4.021  16.410  0.6052  0.0561 -0.7857
 4946TIP3    H136253   4.948   3.943  16.422  0.6559 -0.0104 -1.4193
 4946TIP3    H236254   4.830   3.995  16.344  0.9568  0.7234 -1.3949
 4947TIP3   OH236255   4.407   4.140   3.678  0.8692 -0.3101 -0.5444
 4947TIP3    H136256   4.389   4.229   3.650 -2.1390 -0.7273 -0.0624
 4947TIP3    H236257   4.502   4.138   3.692  1.0658  2.5909 -1.1866
 4948TIP3   OH236258   0.625   4.314  14.268 -0.2067 -0.4714 -0.4026
 4948TIP3    H136259   0.653   4.404  14.255  1.0138 -0.7893 -0.0081
 4948TIP3    H236260   0.585   4.314  14.354  1.0742 -0.6042  0.2013
 4949TIP3   OH236261   3.479   4.844   3.985  0.0272 -0.6042 -0.6523
 4949TIP3    H136262   3.527   4.916   3.944 -1.4443  0.0806 -1.1869
 4949TIP3    H236263   3.468   4.871   4.077 -0.4622 -0.1645 -0.8357
 4950TIP3   OH236264   2.881   3.329   3.995  0.3330  0.1996 -0.4145
 4950TIP3    H136265   2.966   3.288   4.011  1.1980  1.4673 -1.5561
 4950TIP3    H236266   2.854   3.361   4.081  1.4874  0.6476 -0.2006
 4951TIP3   OH236267   5.462   5.648   4.646 -0.1706  0.7341  0.7891
 4951TIP3    H136268   5.384   5.593   4.634 -0.2105  1.0137 -0.3451
 4951TIP3    H236269   5.528   5.608   4.589 -0.1602  1.7611  0.0644
 4952TIP3   OH236270   6.126   3.307   2.045  0.0443  0.3155 -0.0089
 4952TIP3    H136271   6.140   3.219   2.012  0.5257 -0.2079  1.5640
 4952TIP3    H236272   6.082   3.295   2.130 -0.8474  1.6156 -0.2581
 4953TIP3   OH236273   5.657   3.045   4.774  0.1331  0.1567 -0.1687
 4953TIP3    H136274   5.714   3.102   4.826 -0.0435 -2.7935  3.4116
 4953TIP3    H236275   5.716   3.007   4.708  1.0772  1.4397 -0.0816
 4954TIP3   OH236276   5.236   2.683  16.673  0.4333  0.3160 -0.1532
 4954TIP3    H136277   5.200   2.606  16.629 -0.4015  0.6454 -0.0606
 4954TIP3    H236278   5.323   2.694  16.635  0.3237 -0.3145 -0.6012
 4955TIP3   OH236279   1.852   2.831  16.544  0.2923  0.1665 -0.3496
 4955TIP3    H136280   1.832   2.890  16.616 -1.8330  0.2097 -0.9470
 4955TIP3    H236281   1.839   2.743  16.580  1.0936  0.1303 -0.1455
 4956TIP3   OH236282   2.136   0.553  15.259  0.3692 -0.1507  0.0143
 4956TIP3    H136283   2.188   0.559  15.340  0.9584 -0.0680 -0.3622
 4956TIP3    H236284   2.105   0.463  15.257  0.2388 -0.1159  0.4019
 4957TIP3   OH236285   1.253   0.927  14.535  0.6479 -0.6620 -0.2414
 4957TIP3    H136286   1.334   0.977  14.547  1.2761 -1.7304 -0.0442
 4957TIP3    H236287   1.236   0.887  14.620 -1.9816  2.3405  0.7379
 4958TIP3   OH236288   3.669   4.124   0.384  0.3934  0.9551 -0.2596
 4958TIP3    H136289   3.652   4.209   0.424  0.0838  1.0148 -0.5189
 4958TIP3    H236290   3.710   4.144   0.300 -1.5233  0.9058 -1.2165
 4959TIP3   OH236291   0.342   2.589   5.173 -0.0083  0.1502  0.7297
 4959TIP3    H136292   0.390   2.506   5.172 -0.8170 -0.3184  0.6540
 4959TIP3    H236293   0.410   2.656   5.166  0.5391 -0.5505 -0.7900
 4960TIP3   OH236294   2.172   3.267   0.453 -0.0752 -0.1250 -0.5743
 4960TIP3    H136295   2.188   3.339   0.392  1.3414 -0.3393 -0.4661
 4960TIP3    H236296   2.077   3.267   0.466 -0.2203  0.8831 -1.5966
 4961TIP3   OH236297   1.124   3.904  11.919 -0.2626 -0.3885 -0.8361
 4961TIP3    H136298   1.132   3.939  11.830  0.0431 -0.0267 -0.6676
 4961TIP3    H236299   1.125   3.981  11.975 -0.9725 -0.5849 -0.5465
 4962TIP3   OH236300   5.185   1.525   3.394 -0.4433 -0.2490 -0.3844
 4962TIP3    H136301   5.130   1.534   3.473  0.0916 -0.7004  0.0435
 4962TIP3    H236302   5.149   1.589   3.333 -0.7976  0.1876  0.2700
 4963TIP3   OH236303   4.280   2.115  11.763 -0.6053  0.2124  0.3223
 4963TIP3    H136304   4.364   2.124  11.719 -1.2394 -0.2118 -0.9857
 4963TIP3    H236305   4.216   2.143  11.699 -1.4993  0.1778  1.1866
 4964TIP3   OH236306   1.083   1.863  13.556 -0.3143  0.2282 -0.7183
 4964TIP3    H136307   1.026   1.939  13.570  1.4067  1.0686  2.0142
 4964TIP3    H236308   1.060   1.802  13.626  1.4010  0.1175 -0.2429
 4965TIP3   OH236309   4.148   5.316  11.420 -0.2438  0.4246  0.1922
 4965TIP3    H136310   4.176   5.398  11.379  0.8460 -0.0762 -0.0648
 4965TIP3    H236311   4.183   5.247  11.363 -3.0764 -0.2217 -0.8724
 4966TIP3   OH236312   1.750   4.378  12.304  0.3730  0.2350  0.4196
 4966TIP3    H136313   1.812   4.351  12.236 -2.4627  0.1656 -2.2411
 4966TIP3    H236314   1.756   4.308  12.370  1.8538 -0.6544 -0.6127
 4967TIP3   OH236315   0.338   5.156  12.398 -0.2298 -0.1901  0.6553
 4967TIP3    H136316   0.336   5.245  12.362  0.3394 -0.6118 -0.4669
 4967TIP3    H236317   0.318   5.100  12.323  3.0450 -1.2317  0.4758
 4968TIP3   OH236318   3.049   1.779   3.729  0.7163  0.3888  0.2709
 4968TIP3    H136319   3.016   1.778   3.819  1.2960  1.3006  0.5015
 4968TIP3    H236320   3.000   1.710   3.685 -0.0884  0.4117  1.1078
 4969TIP3   OH236321   2.749   0.856   4.019  0.5476  0.3183  0.2272
 4969TIP3    H136322   2.683   0.925   4.010 -0.4912 -0.4857  1.4594
 4969TIP3    H236323   2.727   0.792   3.951  1.2768  1.0049 -0.6631
 4970TIP3   OH236324   5.895   4.590  15.981 -0.0735  0.0814 -0.2481
 4970TIP3    H136325   5.920   4.498  15.980  0.9004  0.3254  0.2687
 4970TIP3    H236326   5.829   4.599  15.912 -0.4182 -1.0659 -0.0609
 4971TIP3   OH236327   1.333   1.228   3.455 -0.4317 -0.2755  0.2619
 4971TIP3    H136328   1.410   1.257   3.407 -1.1560 -0.4816 -1.0425
 4971TIP3    H236329   1.357   1.141   3.489 -0.2857 -0.5814 -0.6099
 4972TIP3   OH236330   0.774   0.407  12.778  0.3021  0.2385  0.2359
 4972TIP3    H136331   0.821   0.481  12.741  0.0069 -0.4718 -1.6275
 4972TIP3    H236332   0.681   0.430  12.769  0.1967 -0.6292 -0.9431
 4973TIP3   OH236333   0.459   1.671  14.383  0.3107  0.0960  0.4325
 4973TIP3    H136334   0.432   1.687  14.474 -1.5479 -2.7912  0.4591
 4973TIP3    H236335   0.469   1.758  14.345 -2.4755  1.3280  2.3988
 4974TIP3   OH236336   3.132   1.866  10.700  0.3038 -0.0534  0.6888
 4974TIP3    H136337   3.201   1.874  10.766  0.6835  0.2702  0.2504
 4974TIP3    H236338   3.140   1.945  10.646  0.2227 -0.4825  0.0370
 4975TIP3   OH236339   6.769   3.851  13.174  0.2560 -0.0986 -0.5110
 4975TIP3    H136340   6.725   3.918  13.121  2.6980  1.7496 -0.3268
 4975TIP3    H236341   6.700   3.790  13.199 -1.5698  0.8845 -2.9487
 4976TIP3   OH236342   5.326   6.210   2.803 -0.0816 -0.1730  0.2779
 4976TIP3    H136343   5.407   6.161   2.803 -1.1030 -1.9510 -2.2685
 4976TIP3    H236344   5.267   6.159   2.859 -0.0597  0.1051  0.5616
 4977TIP3   OH236345   4.079   3.729  13.514 -0.4027 -0.0585  0.0773
 4977TIP3    H136346   4.059   3.804  13.569  1.5336  2.4011 -2.4440
 4977TIP3    H236347   4.170   3.707  13.534 -0.7367 -1.3331  0.2869
 4978TIP3   OH236348   0.777   5.152  11.704  0.4245 -0.0287 -0.2400
 4978TIP3    H136349   0.820   5.217  11.650 -1.1424  0.3039 -1.1258
 4978TIP3    H236350   0.741   5.089  11.642 -0.3531 -0.2967  0.4694
 4979TIP3   OH236351   3.787   4.629   3.459  0.1020  0.3015 -0.0336
 4979TIP3    H136352   3.853   4.632   3.390  0.3352 -0.3529  0.1626
 4979TIP3    H236353   3.811   4.555   3.514  1.0582  1.9764  1.8971
 4980TIP3   OH236354   6.231   4.767   6.398 -0.3619 -0.2548 -0.4278
 4980TIP3    H136355   6.165   4.808   6.454 -0.2895  0.8463 -1.1170
 4980TIP3    H236356   6.289   4.720   6.458 -0.9695 -0.0849  0.3008
 4981TIP3   OH236357   0.132   6.218   3.912 -0.8012  0.1031 -0.0191
 4981TIP3    H136358   0.167   6.187   3.829  0.6199 -0.1365  0.6444
 4981TIP3    H236359   0.113   6.138   3.961 -0.6116  0.2442  0.2892
 4982TIP3   OH236360   2.939   2.385  12.076 -0.5996 -0.2999  0.4379
 4982TIP3    H136361   2.956   2.320  12.009  2.1106  1.7476 -0.9630
 4982TIP3    H236362   2.881   2.449  12.034  1.1317  1.0064 -0.0155
 4983TIP3   OH236363   3.070   3.288   0.032 -0.3758  0.1798 -0.2591
 4983TIP3    H136364   3.119   3.265   0.111 -0.6663  0.1816 -0.0765
 4983TIP3    H236365   2.998   3.343   0.064 -0.6188  0.0031 -0.4986
 4984TIP3   OH236366   2.944   6.610  16.849  0.0052 -0.1768  0.1242
 4984TIP3    H136367   2.943   6.522  16.885 -1.2763 -0.2230  0.0058
 4984TIP3    H236368   2.851   6.632  16.837  0.3466  0.7943 -0.7898
 4985TIP3   OH236369   6.269   3.745   5.809 -0.2787  0.0339  0.4523
 4985TIP3    H136370   6.259   3.796   5.890 -2.0269  0.7987 -0.2253
 4985TIP3    H236371   6.210   3.670   5.820 -0.6664  0.2408 -0.1868
 4986TIP3   OH236372   4.444   6.766  11.934 -0.3007  0.0661 -0.1519
 4986TIP3    H136373   4.358   6.761  11.891 -0.2639  2.0599 -0.5075
 4986TIP3    H236374   4.469   6.675  11.947 -1.9073 -0.5580 -1.1952
 4987TIP3   OH236375   4.501   5.599   2.614  0.2374 -0.4396 -0.0287
 4987TIP3    H136376   4.494   5.507   2.641 -1.3037 -0.5741 -0.7935
 4987TIP3    H236377   4.514   5.647   2.696  1.8258 -1.4119  0.2908
 4988TIP3   OH236378   5.699   3.174  11.956 -0.2104  0.0693  0.0642
 4988TIP3    H136379   5.735   3.226  12.028 -0.1994  0.6219 -0.3322
 4988TIP3    H236380   5.771   3.119  11.926 -0.3357 -0.4831  0.7611
 4989TIP3   OH236381   2.994   0.701  13.028  0.2656 -0.1657 -0.2165
 4989TIP3    H136382   2.949   0.625  13.066 -0.7776  0.9423  0.7620
 4989TIP3    H236383   2.991   0.768  13.096  0.1768  1.1562 -1.5054
 4990TIP3   OH236384   3.698   0.356   3.998  0.1798  0.6135 -0.2757
 4990TIP3    H136385   3.734   0.430   4.048 -0.0365  1.5637 -1.4871
 4990TIP3    H236386   3.603   0.363   4.012  0.1718  0.4717 -0.2657
 4991TIP3   OH236387   2.935   0.316   5.994  0.1912 -0.1545  0.2151
 4991TIP3    H136388   2.906   0.403   6.023  1.4136  0.1122  0.7266
 4991TIP3    H236389   3.021   0.333   5.954  0.6732 -1.1889  0.7984
 4992TIP3   OH236390   6.148   6.651  12.166  0.0887  0.3586  0.0642
 4992TIP3    H136391   6.168   6.627  12.076 -0.0356 -1.8377  0.5803
 4992TIP3    H236392   6.190   6.735  12.179  2.3540 -0.5310 -1.2417
 4993TIP3   OH236393   6.485   6.060  15.238  0.0070  0.0001  0.2800
 4993TIP3    H136394   6.527   5.975  15.247 -1.4864 -0.7503  0.2407
 4993TIP3    H236395   6.558   6.122  15.235  1.1144 -1.2841  0.0870
 4994TIP3   OH236396   6.619   6.229   2.930  0.4096  0.2161  0.1370
 4994TIP3    H136397   6.691   6.226   2.867  0.3334 -1.3525  0.1117
 4994TIP3    H236398   6.638   6.306   2.983  2.7388 -0.7871  0.8516
 4995TIP3   OH236399   4.401   0.255   0.172  0.4090  0.6650  0.1093
 4995TIP3    H136400   4.434   0.337   0.207 -0.4419  0.5180  1.2751
 4995TIP3    H236401   4.414   0.191   0.242 -0.2307  0.1177 -0.2650
 4996TIP3   OH236402   6.738   5.600   0.301 -0.0514  0.3856  0.0414
 4996TIP3    H136403   6.752   5.695   0.308  0.1230  0.4049 -0.5304
 4996TIP3    H236404   6.677   5.590   0.228 -0.3437  0.0773  0.3266
 4997TIP3   OH236405   5.303   5.414  11.152 -0.1041 -0.1133  0.3323
 4997TIP3    H136406   5.304   5.450  11.063  1.1850 -0.1923  0.3112
 4997TIP3    H236407   5.392   5.426  11.184 -0.1145 -1.6662  0.9904
 4998TIP3   OH236408   1.158   5.816   1.277 -0.5762 -0.6780  0.6188
 4998TIP3    H136409   1.221   5.853   1.339  0.0752 -0.7484  0.0047
 4998TIP3    H236410   1.177   5.722   1.276 -0.0754 -0.5712 -0.2587
 4999TIP3   OH236411   1.961   2.047  12.280  0.3602  0.2342  0.2207
 4999TIP3    H136412   2.011   2.039  12.361 -0.9073 -1.1169  0.8882
 4999TIP3    H236413   1.871   2.060  12.309  0.0916  1.0906 -0.9721
 5000TIP3   OH236414   1.526   5.777  14.166 -0.2399  0.0889 -0.1088
 5000TIP3    H136415   1.584   5.701  14.159 -1.3404 -0.6541 -1.5002
 5000TIP3    H236416   1.457   5.750  14.227  0.1452  0.4894  0.5057
 5001TIP3   OH236417   0.678   5.168  16.213  0.0107 -0.2218  0.4668
 5001TIP3    H136418   0.755   5.180  16.156  0.5555 -1.2925  0.9510
 5001TIP3    H236419   0.713   5.178  16.302 -0.4595 -0.4510  0.6774
 5002TIP3   OH236420   0.265   0.275   2.795  0.4321 -0.2406 -0.3359
 5002TIP3    H136421   0.226   0.218   2.862  1.7112 -0.7962 -0.0591
 5002TIP3    H236422   0.194   0.289   2.732 -0.1810 -1.3887  0.0827
 5003TIP3   OH236423   6.577   1.052   0.857  0.3033  0.0742  0.6134
 5003TIP3    H136424   6.666   1.075   0.828  0.2270  0.0771  0.3776
 5003TIP3    H236425   6.590   0.988   0.926  0.4608 -0.8194 -0.2408
 5004TIP3   OH236426   1.940   3.025   0.347 -0.7892 -0.2551 -0.9224
 5004TIP3    H136427   1.881   2.952   0.326 -1.2388  0.0387 -0.7011
 5004TIP3    H236428   1.889   3.079   0.407 -2.0969  2.4669 -4.3014
 5005TIP3   OH236429   1.807   4.467   6.189  0.0974 -0.3034  0.0235
 5005TIP3    H136430   1.772   4.550   6.221 -0.5590 -0.8389  0.7079
 5005TIP3    H236431   1.869   4.492   6.120 -1.0282  0.6881 -0.6467
 5006TIP3   OH236432   6.489   0.134   3.874 -0.0570 -0.3054  0.0193
 5006TIP3    H136433   6.511   0.177   3.791 -0.2183  1.5115  0.8892
 5006TIP3    H236434   6.431   0.196   3.919 -3.0433 -2.8727 -0.1056
 5007TIP3   OH236435   4.954   4.191   4.085  0.5638  0.1343 -0.5375
 5007TIP3    H136436   4.952   4.097   4.106 -0.9865  0.5487  1.4147
 5007TIP3    H236437   5.044   4.217   4.101  0.5948 -0.6746  0.7503
 5008TIP3   OH236438   2.426   1.195   4.946 -0.6784 -0.0361 -0.0011
 5008TIP3    H136439   2.506   1.160   4.985  1.7815  3.2787 -1.7750
 5008TIP3    H236440   2.365   1.203   5.019  1.6200  0.0624  1.9621
 5009TIP3   OH236441   5.933   5.498  12.197  0.1474 -0.3507 -0.0437
 5009TIP3    H136442   6.012   5.529  12.240 -0.4391  0.3554  0.5176
 5009TIP3    H236443   5.955   5.408  12.170  1.1780 -0.1185 -0.0071
 5010TIP3   OH236444   0.411   1.212  14.584  0.3411  0.7000  0.0385
 5010TIP3    H136445   0.439   1.231  14.494 -0.8104  1.1574 -0.2315
 5010TIP3    H236446   0.492   1.202  14.633  1.1499 -3.9454 -1.9398
 5011TIP3   OH236447   6.735   4.080  11.150  0.0477 -0.0802 -0.5624
 5011TIP3    H136448   6.743   4.099  11.056  2.2613 -0.1773 -0.4347
 5011TIP3    H236449   6.728   4.166  11.192  0.7167  0.0527 -0.7082
 5012TIP3   OH236450   2.273   4.591   3.983 -0.6991 -0.0674 -0.2403
 5012TIP3    H136451   2.193   4.560   3.940 -0.0555 -1.2814 -0.5706
 5012TIP3    H236452   2.315   4.511   4.016  1.4518  0.3278 -1.9243
 5013TIP3   OH236453   6.533   4.131  15.039  0.2260 -0.1380 -0.0320
 5013TIP3    H136454   6.605   4.148  15.099 -0.8588  0.5807  1.0701
 5013TIP3    H236455   6.492   4.216  15.026 -0.1948 -0.4808 -0.9572
 5014TIP3   OH236456   5.467   4.151   2.015  0.4071 -0.5201  0.1983
 5014TIP3    H136457   5.486   4.180   1.925 -0.4899  2.6422  0.9700
 5014TIP3    H236458   5.552   4.152   2.059  0.4859  0.3331  0.0350
 5015TIP3   OH236459   4.268   4.335  13.831 -0.6984 -0.0221  0.2240
 5015TIP3    H136460   4.178   4.334  13.799 -0.1400 -0.4398 -1.4345
 5015TIP3    H236461   4.315   4.278  13.769  0.9414  1.2240  0.2912
 5016TIP3   OH236462   6.433   1.287   3.570  0.0703 -0.2534  0.0354
 5016TIP3    H136463   6.516   1.257   3.608  0.6036  1.9367  0.6578
 5016TIP3    H236464   6.435   1.256   3.480  1.8007  0.2081 -0.1010
 5017TIP3   OH236465   5.694   3.240   4.478  0.0051 -0.1490  0.1703
 5017TIP3    H136466   5.681   3.198   4.393  0.5333  1.9724 -1.0103
 5017TIP3    H236467   5.613   3.290   4.492 -0.6658 -1.5798  1.6054
 5018TIP3   OH236468   6.134   2.725   5.109  0.0949  0.4534  0.5400
 5018TIP3    H136469   6.045   2.750   5.134 -0.1883 -0.5109  0.5207
 5018TIP3    H236470   6.178   2.706   5.192  0.4565  1.4950  0.5877
 5019TIP3   OH236471   3.507   2.961   4.320  0.4523  0.2077 -0.6996
 5019TIP3    H136472   3.449   2.939   4.393  0.8326 -2.4485 -1.1477
 5019TIP3    H236473   3.469   3.039   4.282 -1.1930  0.1678  0.7912
 5020TIP3   OH236474   0.454   0.062   2.182 -0.2558 -0.1531 -0.0309
 5020TIP3    H136475   0.412   0.045   2.098  0.1477  0.0909 -0.2833
 5020TIP3    H236476   0.526  -0.000   2.187  0.4689  0.6398 -0.4110
 5021TIP3   OH236477   2.295   4.342   4.295 -0.2142  0.2456 -0.0838
 5021TIP3    H136478   2.330   4.397   4.364  1.2150  0.6585 -1.1053
 5021TIP3    H236479   2.219   4.389   4.262 -0.5078  0.3610  0.7468
 5022TIP3   OH236480   3.452   2.006  16.233 -0.4384  0.4039 -0.7039
 5022TIP3    H136481   3.544   2.024  16.216 -0.2171  0.8541  0.8602
 5022TIP3    H236482   3.452   1.921  16.277 -0.4450  1.8313  2.1876
 5023TIP3   OH236483   3.332   5.582  16.268 -0.1132  0.2949 -0.1494
 5023TIP3    H136484   3.381   5.609  16.190  1.0190 -2.0250 -0.2983
 5023TIP3    H236485   3.258   5.532  16.234 -1.5343  2.1475  0.1598
 5024TIP3   OH236486   1.543   0.876   1.585 -0.4962 -1.0741  0.4413
 5024TIP3    H136487   1.636   0.872   1.604 -0.5704 -0.4977  0.9422
 5024TIP3    H236488   1.509   0.790   1.607 -0.0371 -1.3661  0.0088
 5025TIP3   OH236489   4.354   0.276   5.119 -0.9921 -0.1361 -0.0343
 5025TIP3    H136490   4.267   0.269   5.078 -0.8602  1.4234 -0.6461
 5025TIP3    H236491   4.371   0.189   5.155 -1.6971 -1.1934 -2.1561
 5026TIP3   OH236492   0.151   5.370  16.301  0.3693  0.1518  0.3525
 5026TIP3    H136493   0.107   5.417  16.372 -0.4847  0.1668 -0.1758
 5026TIP3    H236494   0.175   5.439  16.239  0.5952  0.0768  0.3595
 5027TIP3   OH236495   1.051   4.088   1.750  0.3202 -0.0733 -0.1646
 5027TIP3    H136496   1.070   3.996   1.772 -1.6502 -0.8537 -1.5819
 5027TIP3    H236497   1.043   4.088   1.654 -1.0738  1.3069 -0.0527
 5028TIP3   OH236498   6.144   6.389   5.317  0.1659 -0.1413 -0.3506
 5028TIP3    H136499   6.232   6.351   5.326  0.2105 -0.3141 -1.4037
 5028TIP3    H236500   6.085   6.317   5.334  0.1961  0.2592  1.5992
 5029TIP3   OH236501   2.940   4.320  12.420  0.1024  0.4197 -0.5660
 5029TIP3    H136502   2.984   4.267  12.354 -0.7130 -1.0320  0.0340
 5029TIP3    H236503   2.853   4.282  12.427  0.2299  0.4368  1.4699
 5030TIP3   OH236504   5.272   4.130   0.317  0.0705 -0.6559 -0.4851
 5030TIP3    H136505   5.265   4.209   0.372  2.5187 -1.6090  1.2949
 5030TIP3    H236506   5.289   4.164   0.229  1.7996  0.8112  0.3830
 5031TIP3   OH236507   6.190   5.546  14.946 -0.0386  1.0504  0.5306
 5031TIP3    H136508   6.228   5.620  14.899  1.7039 -1.3404 -1.9511
 5031TIP3    H236509   6.116   5.519  14.892  2.2601 -2.0067 -1.2092
 5032TIP3   OH236510   5.691   5.432   3.667  0.0668 -0.2546  0.0267
 5032TIP3    H136511   5.631   5.363   3.637 -0.7052  1.4090 -2.4670
 5032TIP3    H236512   5.777   5.390   3.671 -0.4253 -1.4067 -1.3027
 5033TIP3   OH236513   0.165   3.330  16.879  0.0962 -0.4733 -0.1835
 5033TIP3    H136514   0.081   3.376  16.877 -1.5366 -2.9789  3.4333
 5033TIP3    H236515   0.178   3.298  16.790 -1.1880  2.6037 -1.5431
 5034TIP3   OH236516   2.898   2.293   5.996 -0.4395  0.4381  0.1056
 5034TIP3    H136517   2.943   2.294   6.080  0.5585 -0.4150 -0.3983
 5034TIP3    H236518   2.833   2.363   6.002 -0.2882  0.4666  1.5294
 5035TIP3   OH236519   4.980   0.129   1.736 -0.5374  0.6321  0.0395
 5035TIP3    H136520   4.928   0.134   1.817  1.3739 -0.9930  1.4260
 5035TIP3    H236521   4.963   0.042   1.702  0.7208  0.3283  0.1550
 5036TIP3   OH236522   3.653   5.944  11.708 -0.6670  0.1506  0.1931
 5036TIP3    H136523   3.677   5.853  11.726 -2.7078 -0.6538 -0.9047
 5036TIP3    H236524   3.601   5.970  11.785 -1.5529 -0.2154 -0.2677
 5037TIP3   OH236525   6.708   5.409   5.589 -0.2087 -0.4360 -0.1066
 5037TIP3    H136526   6.710   5.338   5.524 -0.3435  0.2079 -0.8200
 5037TIP3    H236527   6.626   5.395   5.637 -0.7712 -0.1432 -0.9582
 5038TIP3   OH236528   4.301   1.369  10.795 -0.4266  0.2799  0.4673
 5038TIP3    H136529   4.216   1.329  10.817  1.3069 -3.0245  1.4051
 5038TIP3    H236530   4.329   1.325  10.716  0.4765  1.3314  0.1800
 5039TIP3   OH236531   3.707   2.217   5.828 -0.7931  0.2857  0.3008
 5039TIP3    H136532   3.624   2.231   5.783 -0.9574 -0.4853  0.3497
 5039TIP3    H236533   3.700   2.267   5.909 -0.9634  0.7281  0.0126
 5040TIP3   OH236534   0.904   1.082  14.756 -0.3874 -0.7425  0.0660
 5040TIP3    H136535   0.880   1.113  14.843 -1.3119 -0.0410 -0.4315
 5040TIP3    H236536   0.922   0.989  14.768  1.4036 -0.2447  1.3765
 5041TIP3   OH236537   1.139   0.522   1.199 -0.8975  0.0194  0.2276
 5041TIP3    H136538   1.224   0.560   1.218 -0.5265 -0.8616  0.3688
 5041TIP3    H236539   1.155   0.464   1.124 -1.2748 -0.5078  0.5514
 5042TIP3   OH236540   5.673   4.520  11.366 -0.4592 -0.4007  0.3923
 5042TIP3    H136541   5.675   4.585  11.296 -0.9351 -0.6438  0.1533
 5042TIP3    H236542   5.766   4.504  11.385 -0.3064 -0.9651 -0.7755
 5043TIP3   OH236543   0.583   0.250  10.252  0.3901  0.3029  0.0428
 5043TIP3    H136544   0.668   0.261  10.211  0.1081 -0.0221 -0.6314
 5043TIP3    H236545   0.599   0.266  10.345  1.0737  0.8008 -0.1562
 5044TIP3   OH236546   3.441   2.673  10.948  0.3109  0.3523 -0.7450
 5044TIP3    H136547   3.432   2.744  10.885  1.2853 -1.4564 -2.9827
 5044TIP3    H236548   3.353   2.634  10.953 -0.4293  2.1746  1.1155
 5045TIP3   OH236549   4.505   3.570  10.665  0.8196 -0.7370 -0.2957
 5045TIP3    H136550   4.475   3.655  10.633  0.4566 -1.0674 -0.8505
 5045TIP3    H236551   4.425   3.520  10.679  0.9975 -0.6970  0.8604
 5046TIP3   OH236552   4.935   3.601  14.311  0.3414  0.0111 -0.9949
 5046TIP3    H136553   4.913   3.694  14.324  0.1605 -0.0960 -0.5315
 5046TIP3    H236554   4.885   3.575  14.233 -1.9447 -0.4803  0.5656
 5047TIP3   OH236555   2.295   4.659  15.717  0.3896  0.1607 -0.0694
 5047TIP3    H136556   2.345   4.617  15.787 -1.9963 -2.4628  0.1668
 5047TIP3    H236557   2.360   4.683  15.651  2.3546  0.3075  1.9033
 5048TIP3   OH236558   2.113   2.081   5.329  0.4344  0.1054  0.0604
 5048TIP3    H136559   2.145   2.024   5.259  0.1169  0.4039 -0.3312
 5048TIP3    H236560   2.192   2.108   5.377  0.6649  0.0108 -0.2689
 5049TIP3   OH236561   2.497   0.592  11.852 -0.2691  0.1203 -0.1642
 5049TIP3    H136562   2.476   0.686  11.855 -1.7597 -0.2105  0.1680
 5049TIP3    H236563   2.499   0.570  11.759  0.3933  0.5280 -0.2562
 5050TIP3   OH236564   1.509   1.732  11.829 -0.0316 -0.3600 -0.0775
 5050TIP3    H136565   1.541   1.642  11.838 -2.0798 -1.1447 -0.3459
 5050TIP3    H236566   1.521   1.771  11.916  1.2436 -0.7481 -0.0690
 5051TIP3   OH236567   0.143   0.392  15.263  0.5136 -0.3678 -0.2626
 5051TIP3    H136568   0.148   0.469  15.207 -0.6664 -1.8374 -2.4320
 5051TIP3    H236569   0.064   0.346  15.234  1.3976 -2.5939  0.7433
 5052TIP3   OH236570   6.336   5.432   4.838  0.6427  0.0540  0.0136
 5052TIP3    H136571   6.428   5.457   4.830  0.6523  0.3074  0.8053
 5052TIP3    H236572   6.298   5.452   4.753  0.5002  3.4531  0.7793
 5053TIP3   OH236573   0.158   2.051   1.616  0.0981  0.6011  0.4798
 5053TIP3    H136574   0.226   2.009   1.669  0.8473  3.0697  1.5349
 5053TIP3    H236575   0.205   2.092   1.543 -0.4106  1.1296  0.4415
 5054TIP3   OH236576   5.922   2.498  12.315 -0.1420 -0.4380 -0.8444
 5054TIP3    H136577   5.856   2.567  12.313  1.1122  0.7674 -0.9616
 5054TIP3    H236578   5.884   2.430  12.372 -0.7888  0.9324  0.3871
 5055TIP3   OH236579   0.533   0.987  13.041 -0.0208 -0.0198 -0.2183
 5055TIP3    H136580   0.604   0.971  12.979  1.6265 -0.7757  1.7905
 5055TIP3    H236581   0.454   0.991  12.987  1.0277 -3.1046 -2.0831
 5056TIP3   OH236582   1.654   2.837   5.256 -0.4342 -0.2080 -0.2120
 5056TIP3    H136583   1.609   2.756   5.279 -0.1146  0.2272  2.0161
 5056TIP3    H236584   1.747   2.817   5.264 -0.3715  0.6240  1.2349
 5057TIP3   OH236585   3.539   4.604   0.951 -0.4649 -0.3429 -0.0411
 5057TIP3    H136586   3.581   4.672   1.004 -0.3700 -0.1300 -0.3906
 5057TIP3    H236587   3.532   4.529   1.010 -0.3934 -0.0938  0.2862
 5058TIP3   OH236588   6.614   0.276   1.756 -0.7699 -0.3354 -0.1833
 5058TIP3    H136589   6.521   0.265   1.735 -0.7321  2.1853 -1.8650
 5058TIP3    H236590   6.615   0.304   1.847 -1.8860  2.5203 -1.0055
 5059TIP3   OH236591   4.086   0.442   1.161 -0.4544 -0.1193 -0.6405
 5059TIP3    H136592   4.011   0.494   1.131 -0.0479 -0.1123 -1.6957
 5059TIP3    H236593   4.047   0.365   1.202 -1.0487  0.0920 -0.8010
 5060TIP3   OH236594   6.572   5.178   4.742  0.1226  0.0426  0.3609
 5060TIP3    H136595   6.483   5.170   4.710  0.2123 -0.0116  0.1205
 5060TIP3    H236596   6.621   5.215   4.668  0.1982  0.5443  0.6594
 5061TIP3   OH236597   5.614   6.777   4.951 -0.1112 -0.7303  0.2440
 5061TIP3    H136598   5.604   6.683   4.969  1.6352 -1.1553 -0.8563
 5061TIP3    H236599   5.700   6.799   4.988 -0.6703  0.5200  0.8071
 5062TIP3   OH236600   1.903   4.920   5.887 -0.3441 -0.2059 -0.3893
 5062TIP3    H136601   1.871   4.972   5.961  1.1309 -1.7542  1.3863
 5062TIP3    H236602   1.824   4.878   5.852 -0.8852 -0.5797  1.2241
 5063TIP3   OH236603   6.647   3.603   1.290  0.3646 -0.0254  0.4567
 5063TIP3    H136604   6.572   3.624   1.345 -0.0158  1.5143 -0.6242
 5063TIP3    H236605   6.619   3.525   1.241  0.1642 -0.5345  1.3624
 5064TIP3   OH236606   1.798   0.473  16.320  0.0102 -0.2387 -0.2959
 5064TIP3    H136607   1.757   0.477  16.233 -0.2777  0.9880 -0.1118
 5064TIP3    H236608   1.880   0.426  16.306  0.4458  0.8397 -1.4310
 5065TIP3   OH236609   3.810   6.321  17.127  0.4060 -0.1641  0.2190
 5065TIP3    H136610   3.823   6.309  17.221  1.1517 -2.2403 -0.1299
 5065TIP3    H236611   3.840   6.411  17.110  1.0864 -0.0729  1.8103
 5066TIP3   OH236612   5.709   3.693  13.572 -0.3556  0.0276  0.4278
 5066TIP3    H136613   5.627   3.644  13.567 -0.1365 -0.2668 -0.5066
 5066TIP3    H236614   5.724   3.723  13.482  0.3882  0.3609  0.6600
 5067TIP3   OH236615   6.392   6.430  15.867 -0.1452  0.0316 -0.6181
 5067TIP3    H136616   6.370   6.520  15.892 -0.5702 -0.3286  0.3159
 5067TIP3    H236617   6.308   6.385  15.865  0.0432 -0.2906 -1.3172
 5068TIP3   OH236618   3.306   0.822  12.219 -0.1732  0.2175  0.0634
 5068TIP3    H136619   3.381   0.762  12.217  1.0772  1.6190  2.3678
 5068TIP3    H236620   3.344   0.908  12.204 -1.9570  0.4944 -3.2577
 5069TIP3   OH236621   3.369   6.400  16.759 -0.7149 -0.5667  0.0407
 5069TIP3    H136622   3.313   6.397  16.836  0.4323  0.5679  0.9595
 5069TIP3    H236623   3.309   6.406  16.685 -1.8138  0.5856  0.9939
 5070TIP3   OH236624   5.557   4.561   2.576  0.3581 -0.1263  0.0409
 5070TIP3    H136625   5.507   4.621   2.522  3.7174  0.3986 -2.6824
 5070TIP3    H236626   5.569   4.483   2.521  1.5686 -0.6530  1.0103
 5071TIP3   OH236627   0.247   3.872   3.257 -0.6152  0.4852 -0.1235
 5071TIP3    H136628   0.257   3.777   3.257 -1.8178  0.3351 -1.2959
 5071TIP3    H236629   0.272   3.900   3.345  0.7244 -0.8063 -0.0820
 5072TIP3   OH236630   5.285   5.222  11.777 -0.1765  0.3989 -1.0616
 5072TIP3    H136631   5.274   5.312  11.809 -1.2731  0.3619 -1.3014
 5072TIP3    H236632   5.367   5.192  11.817 -0.3483  1.1382 -0.1285
 5073TIP3   OH236633   3.466   1.808  10.558 -0.4234  0.1106 -0.1483
 5073TIP3    H136634   3.554   1.771  10.543  0.1139  1.4037 -0.2876
 5073TIP3    H236635   3.478   1.868  10.631 -1.3254 -0.1433  0.2065
 5074TIP3   OH236636   2.788   0.473   4.206  0.2947 -0.1102  0.5680
 5074TIP3    H136637   2.783   0.567   4.222 -0.7089 -0.2973  1.3831
 5074TIP3    H236638   2.870   0.462   4.158 -0.8094  1.4765 -1.7474
 5075TIP3   OH236639   5.432   0.611   4.746  0.1155  0.3868 -0.0162
 5075TIP3    H136640   5.477   0.692   4.770 -0.1092  0.2105  1.0431
 5075TIP3    H236641   5.427   0.562   4.828 -0.4714 -0.3461 -0.4863
 5076TIP3   OH236642   1.430   1.662   4.360  0.2749 -0.2591  0.5662
 5076TIP3    H136643   1.381   1.741   4.382  0.7046  0.3821 -0.7005
 5076TIP3    H236644   1.432   1.661   4.264 -0.1277 -2.0626  0.5572
 5077TIP3   OH236645   5.837   5.274   5.940  0.0996 -0.4428  0.1879
 5077TIP3    H136646   5.856   5.368   5.944  1.5223 -0.5340 -2.8767
 5077TIP3    H236647   5.875   5.239   6.020  1.7847  1.2572  0.1701
 5078TIP3   OH236648   3.669   1.074   4.554  0.4282  0.3025 -0.5922
 5078TIP3    H136649   3.599   1.123   4.510 -0.9882 -1.8843 -0.8541
 5078TIP3    H236650   3.698   1.132   4.624 -1.2134  1.4998 -0.8640
 5079TIP3   OH236651   0.301   1.595  15.797 -0.3533  0.2705 -0.0085
 5079TIP3    H136652   0.216   1.572  15.759  0.8267 -0.6174 -2.1560
 5079TIP3    H236653   0.284   1.596  15.892 -2.9630  1.0303 -0.4375
 5080TIP3   OH236654   4.250   5.835   1.293 -0.2030  0.3252  0.3488
 5080TIP3    H136655   4.238   5.859   1.201 -0.2839 -1.2243 -0.0559
 5080TIP3    H236656   4.327   5.885   1.321  0.0597  0.5015 -0.6803
 5081TIP3   OH236657   2.787   2.108   1.256 -0.8228 -0.3585 -0.4068
 5081TIP3    H136658   2.875   2.146   1.262 -1.6875  1.6884 -0.1033
 5081TIP3    H236659   2.785   2.065   1.171 -0.4205  2.0550 -1.7003
 5082TIP3   OH236660   2.489   0.140  11.936 -0.2162  0.5208 -0.0082
 5082TIP3    H136661   2.424   0.210  11.944 -0.6806  0.2172 -1.0777
 5082TIP3    H236662   2.572   0.185  11.921 -0.2928  0.8826  0.6245
 5083TIP3   OH236663   1.104   2.741  11.933  0.3352  0.0679  0.3807
 5083TIP3    H136664   1.100   2.818  11.877 -0.1373 -0.5508 -0.4445
 5083TIP3    H236665   1.194   2.710  11.924  0.6295  0.7140  0.9910
 5084TIP3   OH236666   0.297   5.898  16.645  0.6558 -0.7297 -0.3716
 5084TIP3    H136667   0.268   5.985  16.672 -0.1899 -1.6720  1.8374
 5084TIP3    H236668   0.221   5.842  16.659  0.9866 -1.7253 -2.3917
 5085TIP3   OH236669   1.231   5.993  16.985 -0.2471  0.6760 -0.0347
 5085TIP3    H136670   1.272   5.909  16.966 -0.0514  1.0174 -1.1825
 5085TIP3    H236671   1.218   6.033  16.899  0.7175  2.3211  0.5529
 5086TIP3   OH236672   2.716   0.486   4.934 -0.6952  0.1818 -0.3055
 5086TIP3    H136673   2.739   0.498   4.841 -4.3944  0.2251 -1.2772
 5086TIP3    H236674   2.670   0.566   4.958  0.2907  0.2026  1.6543
 5087TIP3   OH236675   0.039   0.388   2.687 -0.9016  0.5624 -0.3014
 5087TIP3    H136676  -0.052   0.383   2.715 -1.0164  0.5488 -0.6757
 5087TIP3    H236677   0.040   0.347   2.600 -0.3874 -0.2188  0.0640
 5088TIP3   OH236678   4.972   0.579   5.526 -0.1431 -0.3141  0.2323
 5088TIP3    H136679   4.957   0.595   5.620  0.3690 -1.9564  0.6091
 5088TIP3    H236680   5.037   0.644   5.501  0.3785 -0.4413  1.2241
 5089TIP3   OH236681   1.707   5.814   3.127 -0.2254  0.1207  0.1095
 5089TIP3    H136682   1.748   5.754   3.189 -0.7929 -0.2699  0.1137
 5089TIP3    H236683   1.613   5.807   3.146 -0.7158 -2.2787 -2.7591
 5090TIP3   OH236684   1.549   1.254   0.843  0.4283  0.7735 -0.5479
 5090TIP3    H136685   1.495   1.181   0.812  0.9752  1.2146 -2.6536
 5090TIP3    H236686   1.593   1.286   0.764  1.5024  2.2984  0.6362
 5091TIP3   OH236687   1.422   6.699  15.257  0.4329 -0.2056  0.5408
 5091TIP3    H136688   1.504   6.694  15.307 -0.0350 -0.2147  1.3218
 5091TIP3    H236689   1.354   6.685  15.323 -0.1364 -2.0238 -0.4051
 5092TIP3   OH236690   6.493   2.744   3.606  0.1728 -0.2407 -1.0898
 5092TIP3    H136691   6.483   2.681   3.535 -2.5998  0.0288 -0.9828
 5092TIP3    H236692   6.461   2.827   3.571 -0.2724  0.1254  0.1375
 5093TIP3   OH236693   1.723   6.094   0.372  0.0792  0.1634 -0.4270
 5093TIP3    H136694   1.751   6.147   0.297  0.9020 -1.0426 -1.0032
 5093TIP3    H236695   1.805   6.070   0.416 -0.3077 -0.2877  0.0531
 5094TIP3   OH236696   5.187   6.017   3.491 -0.1579 -0.7766 -0.0229
 5094TIP3    H136697   5.114   5.983   3.439 -0.4173  1.3050 -1.0779
 5094TIP3    H236698   5.264   5.975   3.454 -0.5580 -1.0252 -0.5819
 5095TIP3   OH236699   4.058   3.992  12.647  0.9423 -0.5934 -0.2371
 5095TIP3    H136700   4.064   3.934  12.571  1.6531 -0.2548 -0.4501
 5095TIP3    H236701   4.056   4.081  12.610  0.7192 -0.4483  0.1154
 5096TIP3   OH236702   1.756   1.967  15.064 -0.3657 -0.6553  0.3028
 5096TIP3    H136703   1.728   2.056  15.085  0.4635 -0.3685  0.1910
 5096TIP3    H236704   1.688   1.933  15.006  0.6499  0.8342 -1.8033
 5097TIP3   OH236705   2.900   1.281  15.615  0.1443  0.4129  0.8234
 5097TIP3    H136706   2.805   1.290  15.605  0.3331  0.8550 -0.6050
 5097TIP3    H236707   2.917   1.189  15.595  0.0834  0.4377  0.6635
 5098TIP3   OH236708   3.823   6.492   4.197 -0.5066  0.8114 -0.1199
 5098TIP3    H136709   3.847   6.485   4.289 -0.7515  1.4400 -0.0013
 5098TIP3    H236710   3.886   6.437   4.151 -0.3544  0.5336  0.4189
 5099TIP3   OH236711   6.719   4.215  13.804 -0.0356 -0.1638 -0.3406
 5099TIP3    H136712   6.748   4.227  13.714 -1.0790  0.2073 -0.6332
 5099TIP3    H236713   6.740   4.123  13.824  0.5597 -0.1325 -0.8251
 5100TIP3   OH236714   6.104   1.383  16.962  0.6667  0.2408 -0.0164
 5100TIP3    H136715   6.074   1.296  16.990 -0.3182  0.9389  1.1438
 5100TIP3    H236716   6.199   1.380  16.973  0.7729 -1.1247 -1.2325
 5101TIP3   OH236717   5.391   3.507   5.418  0.2814  0.4011  0.4588
 5101TIP3    H136718   5.428   3.585   5.460  0.7845  0.5699 -0.2852
 5101TIP3    H236719   5.428   3.433   5.467  1.9019  0.5543 -0.5090
 5102TIP3   OH236720   2.130   1.089   4.065 -0.4625  0.2049 -0.1523
 5102TIP3    H136721   2.199   1.151   4.041 -0.9570  0.9222  0.2569
 5102TIP3    H236722   2.174   1.005   4.072 -0.4835 -0.2971 -4.7572
 5103TIP3   OH236723   3.129   0.086   3.715 -0.2261  0.4594  0.2708
 5103TIP3    H136724   3.188   0.018   3.746 -0.2699  0.0364 -0.5708
 5103TIP3    H236725   3.076   0.044   3.647 -0.5891  1.1952  0.0836
 5104TIP3   OH236726   3.934   5.645   1.810  0.2158  0.4782 -0.5274
 5104TIP3    H136727   3.842   5.623   1.824  0.5553 -0.1907  0.7684
 5104TIP3    H236728   3.933   5.708   1.738 -1.3754  1.5781  0.4282
 5105TIP3   OH236729   6.563   3.508   3.024  0.1837  0.2433 -0.2494
 5105TIP3    H136730   6.579   3.569   3.096 -1.6126  0.6821 -0.2057
 5105TIP3    H236731   6.485   3.542   2.981  1.2339 -0.0210 -2.4194
 5106TIP3   OH236732   5.414   5.423  16.780  0.9164  0.1678 -0.7928
 5106TIP3    H136733   5.484   5.471  16.736  0.3361 -0.7868 -2.8638
 5106TIP3    H236734   5.340   5.484  16.780  1.1179  0.4073 -0.5880
 5107TIP3   OH236735   4.027   0.333   5.319  0.8372  0.7268  0.2750
 5107TIP3    H136736   3.994   0.381   5.395  0.9632  2.3353 -0.6626
 5107TIP3    H236737   3.971   0.361   5.247  0.8541 -0.6359 -0.2793
 5108TIP3   OH236738   3.616   3.068  12.178 -0.6433  0.1870 -0.1832
 5108TIP3    H136739   3.634   2.976  12.156  0.5824  0.5908 -0.9709
 5108TIP3    H236740   3.532   3.087  12.136 -0.2561 -0.2020 -1.1618
 5109TIP3   OH236741   1.795   6.125  15.329 -0.0447 -0.2252 -0.6737
 5109TIP3    H136742   1.874   6.154  15.283 -0.1725 -0.9012 -1.3322
 5109TIP3    H236743   1.827   6.067  15.398  0.1112  0.4139 -0.2006
 5110TIP3   OH236744   1.331   0.189  15.233  0.3630 -0.0193  0.2961
 5110TIP3    H136745   1.367   0.101  15.232  0.6391  0.0893  0.5802
 5110TIP3    H236746   1.262   0.188  15.167  0.1982 -0.5167  0.4728
 5111TIP3   OH236747   4.790   3.979   1.710  0.5234  0.5692 -0.4639
 5111TIP3    H136748   4.742   3.932   1.778  0.5581  0.9249 -0.1897
 5111TIP3    H236749   4.726   3.990   1.639  0.2193  0.9840 -0.1279
 5112TIP3   OH236750   1.705   3.423   1.266 -0.0967 -0.3527 -0.1839
 5112TIP3    H136751   1.681   3.343   1.219 -0.0318 -0.0334 -0.7571
 5112TIP3    H236752   1.633   3.437   1.327 -0.9906  0.1598 -1.3430
 5113TIP3   OH236753   4.987   4.762   0.222 -0.3498 -0.2571 -0.0197
 5113TIP3    H136754   4.907   4.814   0.219 -0.2332 -0.1224 -1.5998
 5113TIP3    H236755   4.974   4.694   0.155 -0.3352 -2.0200  1.7309
 5114TIP3   OH236756   4.049   3.275   3.663 -0.7197 -0.7838 -0.2402
 5114TIP3    H136757   4.117   3.239   3.719 -0.4485 -0.4334 -0.3336
 5114TIP3    H236758   4.006   3.342   3.716 -1.5164 -1.5433  0.0863
 5115TIP3   OH236759   4.397   5.008  16.715  0.0149 -0.0073  0.2449
 5115TIP3    H136760   4.380   5.095  16.679  0.1023  0.7526  1.9534
 5115TIP3    H236761   4.320   4.987  16.767  0.1993 -0.7408  0.2321
 5116TIP3   OH236762   6.626   6.413   6.063 -0.3628 -0.0108  0.1782
 5116TIP3    H136763   6.562   6.434   5.995  0.3206  0.3414 -0.3570
 5116TIP3    H236764   6.630   6.493   6.117 -0.6744 -0.1796  0.4569
 5117TIP3   OH236765   5.410   2.587   2.630  0.1146 -0.1703  0.4292
 5117TIP3    H136766   5.418   2.614   2.722 -1.0925 -0.3152  0.5819
 5117TIP3    H236767   5.482   2.633   2.586  0.3830  0.3170  1.3553
 5118TIP3   OH236768   1.679   4.458   1.456  0.0328 -0.1203 -0.4465
 5118TIP3    H136769   1.590   4.428   1.475 -0.5483  1.1660 -1.0768
 5118TIP3    H236770   1.701   4.416   1.373  0.6299 -1.6791  0.4687
 5119TIP3   OH236771   4.150   0.328  10.827 -0.4674 -0.2512  0.9862
 5119TIP3    H136772   4.180   0.413  10.796  1.1476 -0.7199  1.2347
 5119TIP3    H236773   4.108   0.288  10.751  1.3175 -0.4097  0.0705
 5120TIP3   OH236774   0.798   5.482  13.249 -0.1416 -0.1900  0.3706
 5120TIP3    H136775   0.795   5.407  13.190 -1.3483  1.8644 -2.2610
 5120TIP3    H236776   0.746   5.454  13.325  0.6922 -2.5481  0.0982
 5121TIP3   OH236777   1.289   5.887   2.254 -0.6782 -0.0787 -0.0807
 5121TIP3    H136778   1.198   5.906   2.234 -0.0614  2.4185 -0.6037
 5121TIP3    H236779   1.319   5.832   2.181 -1.8970 -1.3785  0.3841
 5122TIP3   OH236780   5.699   5.136  16.110  0.1759  0.0277 -0.0146
 5122TIP3    H136781   5.692   5.040  16.107  1.1122 -0.1009  1.4391
 5122TIP3    H236782   5.736   5.154  16.196  0.5324  1.6816 -0.5088
 5123TIP3   OH236783   5.865   0.241   0.040 -0.6201  0.2031  0.0325
 5123TIP3    H136784   5.950   0.215   0.075 -0.8008  0.3069  0.5542
 5123TIP3    H236785   5.856   0.333   0.066 -1.6712 -0.3005  1.5259
 5124TIP3   OH236786   2.973   4.412   1.987 -0.4961 -0.0469  0.0393
 5124TIP3    H136787   3.030   4.486   2.010 -1.3742  0.6165  0.0962
 5124TIP3    H236788   3.008   4.380   1.904 -0.8604  1.2094 -0.6110
 5125TIP3   OH236789   5.732   3.475  14.863  0.2042  0.1445  0.4036
 5125TIP3    H136790   5.739   3.487  14.768  2.1149  1.2882  0.6677
 5125TIP3    H236791   5.708   3.383  14.874  0.8673 -0.2289 -1.1492
 5126TIP3   OH236792   0.894   5.784   5.054 -0.0810 -0.0567 -0.5489
 5126TIP3    H136793   0.852   5.870   5.046  0.4114  0.4215  1.7134
 5126TIP3    H236794   0.987   5.805   5.069  0.3509 -1.0385 -1.7439
 5127TIP3   OH236795   3.975   6.036   3.996  0.5913  0.0219  0.4864
 5127TIP3    H136796   3.896   6.071   4.039  1.3281 -0.0140  1.8920
 5127TIP3    H236797   3.955   5.944   3.981  0.3608  0.0125  0.8308
 5128TIP3   OH236798   1.038   2.082   3.959 -0.5158 -0.4740  0.3394
 5128TIP3    H136799   1.015   2.170   3.928 -0.1540 -0.3944  0.3012
 5128TIP3    H236800   1.050   2.092   4.053  0.7494 -0.2274  0.1588
 5129TIP3   OH236801   1.859   0.256  15.197 -0.1507 -0.1739  0.1072
 5129TIP3    H136802   1.908   0.241  15.116 -1.0952  1.2558 -0.7615
 5129TIP3    H236803   1.921   0.236  15.267  1.5680  1.2634 -0.9541
 5130TIP3   OH236804   3.621   1.044  16.626 -0.2242  0.4889 -0.8159
 5130TIP3    H136805   3.690   1.101  16.592 -0.5614  0.1792 -2.0390
 5130TIP3    H236806   3.598   0.988  16.552 -1.9985  0.7948 -0.5064
 5131TIP3   OH236807   1.301   1.323  12.447 -0.2359  0.1513 -0.0827
 5131TIP3    H136808   1.256   1.365  12.520  2.0046 -0.7983  1.9267
 5131TIP3    H236809   1.344   1.395  12.401  0.1436  0.5504  0.8652
 5132TIP3   OH236810   5.967   5.919   4.029 -0.0601  0.1917  0.5676
 5132TIP3    H136811   5.973   5.882   3.941  0.5904 -0.1819  0.7661
 5132TIP3    H236812   5.895   5.870   4.070 -1.6747  1.7190 -0.3902
 5133TIP3   OH236813   0.787   5.288  11.926 -0.0727  0.6133  0.2402
 5133TIP3    H136814   0.776   5.246  11.840 -0.7395 -1.4648  1.3031
 5133TIP3    H236815   0.872   5.256  11.957 -0.4393  0.2951  0.9223
 5134TIP3   OH236816   4.668   4.863  10.958  0.2535 -0.1375  0.1703
 5134TIP3    H136817   4.626   4.947  10.938 -0.1978 -0.2730  0.5435
 5134TIP3    H236818   4.719   4.880  11.038  1.0136  0.0595 -0.3525
 5135TIP3   OH236819   0.809   0.323  13.245  0.1395 -0.2926 -0.0437
 5135TIP3    H136820   0.821   0.285  13.158  0.3409  0.4979 -0.3623
 5135TIP3    H236821   0.714   0.326  13.257  0.0570  1.0830 -0.9061
 5136TIP3   OH236822   2.675   3.502  12.699 -0.4157  0.0100 -0.1445
 5136TIP3    H136823   2.742   3.433  12.697  0.6056  0.9815  0.2067
 5136TIP3    H236824   2.631   3.495  12.614  1.0239  0.2318 -0.9230
 5137TIP3   OH236825   4.688   3.730  14.969  0.2767 -0.4065 -0.0945
 5137TIP3    H136826   4.703   3.697  14.880 -1.0617 -0.0020 -0.4776
 5137TIP3    H236827   4.759   3.691  15.021  1.3831 -0.2220 -1.4322
 5138TIP3   OH236828   6.536   0.014   4.990  0.3990  0.0728 -0.4038
 5138TIP3    H136829   6.471  -0.056   4.985  1.1514 -0.5868 -1.1614
 5138TIP3    H236830   6.489   0.092   4.961 -0.3172 -0.1964 -0.0040
 5139TIP3   OH236831   2.030   4.286   1.972  0.5580 -0.1887  0.2580
 5139TIP3    H136832   2.100   4.345   2.002 -0.0899  0.3797  0.6771
 5139TIP3    H236833   2.017   4.309   1.880  1.6099 -0.9860 -0.0912
 5140TIP3   OH236834   4.577   3.844  14.272  0.4042 -0.2073  0.4848
 5140TIP3    H136835   4.643   3.871  14.208 -0.7713  0.5209 -0.4454
 5140TIP3    H236836   4.493   3.856  14.226 -0.3319 -1.9672  1.3288
 5141TIP3   OH236837   6.634   6.746  14.300  0.4571  0.2022  0.2029
 5141TIP3    H136838   6.670   6.660  14.280  0.8383 -0.2787  2.7482
 5141TIP3    H236839   6.639   6.794  14.218  1.1802 -1.8650 -1.0007
 5142TIP3   OH236840   3.075   1.594   5.792 -0.2911 -1.0525 -0.1315
 5142TIP3    H136841   2.990   1.624   5.760 -1.0179 -1.1800  1.6172
 5142TIP3    H236842   3.104   1.664   5.851 -0.6580 -2.3976  1.7106
 5143TIP3   OH236843   1.481   3.791   3.381  0.0676 -0.1414  0.6617
 5143TIP3    H136844   1.539   3.729   3.425  0.3937 -0.7657 -0.6297
 5143TIP3    H236845   1.534   3.869   3.368  0.1048 -0.1166  0.9472
 5144TIP3   OH236846   1.471   4.650   4.630  0.5505  0.3483 -0.9525
 5144TIP3    H136847   1.395   4.707   4.639 -1.4172 -2.2809 -0.5817
 5144TIP3    H236848   1.439   4.562   4.648  3.7677 -0.7987 -0.3832
 5145TIP3   OH236849   4.638   1.449  15.613 -0.2085  0.0024  0.2671
 5145TIP3    H136850   4.586   1.390  15.559  0.3650  0.6730 -1.0458
 5145TIP3    H236851   4.598   1.535  15.601  0.7534  0.4028 -0.2326
 5146TIP3   OH236852   3.377   0.553   1.515 -0.0506  0.1458  0.0893
 5146TIP3    H136853   3.337   0.469   1.537 -0.1172 -0.0147 -0.6353
 5146TIP3    H236854   3.452   0.560   1.574  1.6088 -1.7043 -1.7400
 5147TIP3   OH236855   1.538   6.439  11.098 -0.2587  0.5667  0.2856
 5147TIP3    H136856   1.508   6.402  11.181  0.9055  0.0277  0.4837
 5147TIP3    H236857   1.500   6.382  11.031  0.6860 -0.3997  0.5511
 5148TIP3   OH236858   4.195   3.213   3.424  0.0382 -0.0393  0.4251
 5148TIP3    H136859   4.125   3.158   3.388 -0.5057  1.6223 -1.1542
 5148TIP3    H236860   4.155   3.258   3.498  0.0357 -0.6071  0.7706
 5149TIP3   OH236861   0.012   0.311  13.198 -0.0586  0.3727 -0.4415
 5149TIP3    H136862   0.085   0.287  13.140  0.3151  0.4424 -0.0061
 5149TIP3    H236863  -0.001   0.405  13.182 -0.3092  0.2787 -0.8021
 5150TIP3   OH236864   5.138   5.310   2.716  0.3506  0.3918 -0.0136
 5150TIP3    H136865   5.117   5.293   2.624  0.7083 -1.1462  0.1683
 5150TIP3    H236866   5.116   5.228   2.760 -0.3343  1.3119  1.3586
 5151TIP3   OH236867   5.278   4.854   0.435  0.2127 -0.4592 -0.4977
 5151TIP3    H136868   5.308   4.922   0.375  3.7337 -0.6215  0.9647
 5151TIP3    H236869   5.227   4.901   0.501 -0.1538  0.2934 -1.3087
 5152TIP3   OH236870   0.116   4.775   0.476 -0.0477 -0.7734  0.5809
 5152TIP3    H136871   0.054   4.813   0.413 -1.0101 -3.0019  0.1323
 5152TIP3    H236872   0.096   4.820   0.559  1.3890  2.3419 -0.6868
 5153TIP3   OH236873   1.220   3.427   2.912  0.3936 -0.1820  0.3059
 5153TIP3    H136874   1.227   3.484   2.988 -1.0444  1.8594 -1.0416
 5153TIP3    H236875   1.126   3.421   2.895  0.7350 -0.1883 -1.6283
 5154TIP3   OH236876   1.435   3.272   5.094  0.2787 -0.2018  0.0469
 5154TIP3    H136877   1.490   3.257   5.170  0.5990  1.5524  0.1935
 5154TIP3    H236878   1.363   3.326   5.127  0.6476  0.9256 -0.9609
 5155TIP3   OH236879   1.904   1.470  13.250  0.3089  0.0932  0.1977
 5155TIP3    H136880   1.954   1.388  13.253  0.9406  0.3762 -1.8702
 5155TIP3    H236881   1.925   1.508  13.164 -0.6001  2.0297  0.8053
 5156TIP3   OH236882   5.341   0.328   2.419  0.7986 -0.0021 -0.6041
 5156TIP3    H136883   5.312   0.335   2.328 -0.3904  1.7593 -0.1004
 5156TIP3    H236884   5.330   0.235   2.441 -0.7529 -0.0731 -1.6381
 5157TIP3   OH236885   4.428   2.408   2.523 -0.0885 -0.5270  0.7057
 5157TIP3    H136886   4.393   2.421   2.434 -0.0753 -2.1671  0.4522
 5157TIP3    H236887   4.355   2.431   2.581  0.3302  1.8970  0.3225
 5158TIP3   OH236888   0.575   4.246   6.508  0.3805  0.2777 -0.4474
 5158TIP3    H136889   0.609   4.335   6.495  0.1581  0.4287 -0.0136
 5158TIP3    H236890   0.551   4.217   6.420  2.5482 -0.2228 -0.8903
 5159TIP3   OH236891   6.527   5.651   4.129 -0.3323  0.6656 -0.1240
 5159TIP3    H136892   6.534   5.562   4.165 -1.0762 -0.0313 -1.6784
 5159TIP3    H236893   6.521   5.707   4.207 -2.0141 -0.8240  0.8713
 5160TIP3   OH236894   4.913   3.329  16.448 -0.5647  0.1281 -0.2622
 5160TIP3    H136895   4.867   3.412  16.435  1.7768  1.3699 -0.9615
 5160TIP3    H236896   4.951   3.309  16.362 -0.0142 -0.9874  0.2358
 5161TIP3   OH236897   1.735   4.657   4.842  0.0442  0.1476  0.5383
 5161TIP3    H136898   1.708   4.587   4.782  0.2988  0.4166  0.1031
 5161TIP3    H236899   1.772   4.612   4.918 -1.6273 -0.2257  1.1368
 5162TIP3   OH236900   5.504   4.360   0.264 -0.0877 -0.7898 -0.3106
 5162TIP3    H136901   5.564   4.301   0.311 -0.0638 -0.0869  0.5546
 5162TIP3    H236902   5.560   4.432   0.235 -0.3189 -0.6446 -0.3901
 5163TIP3   OH236903   3.521   1.529   5.995  0.3127  1.0145 -0.1623
 5163TIP3    H136904   3.426   1.541   5.991  0.3470  1.0704 -0.7622
 5163TIP3    H236905   3.540   1.524   6.089 -0.1455  2.0791 -0.0071
 5164TIP3   OH236906   1.590   3.232  13.642  0.1560 -0.3755 -0.0923
 5164TIP3    H136907   1.512   3.217  13.588 -0.9175  2.1070  0.6962
 5164TIP3    H236908   1.623   3.317  13.612  1.1009 -0.2544  1.2865
 5165TIP3   OH236909   3.903   4.111  16.391  0.0108  0.6912 -0.1516
 5165TIP3    H136910   3.945   4.042  16.340 -2.0444 -1.1229  0.5308
 5165TIP3    H236911   3.968   4.135  16.457  1.3179  0.5008 -1.3540
 5166TIP3   OH236912   5.359   4.192  17.123  0.1451 -0.1301 -0.3069
 5166TIP3    H136913   5.441   4.187  17.073  0.2857  1.8622 -0.2847
 5166TIP3    H236914   5.352   4.283  17.150 -3.0222  0.1665 -1.8587
 5167TIP3   OH236915   1.214   2.780  14.264 -0.1197 -0.2429 -0.3021
 5167TIP3    H136916   1.304   2.797  14.290 -0.4669  0.3106  0.5676
 5167TIP3    H236917   1.217   2.774  14.169  0.6333  1.0146 -0.3711
 5168TIP3   OH236918   0.244   0.665   1.829  0.1675 -0.0320  0.2063
 5168TIP3    H136919   0.331   0.667   1.868  0.1680 -1.0026  0.2821
 5168TIP3    H236920   0.244   0.737   1.766  1.0637 -0.0825  0.1368
 5169TIP3   OH236921   4.710   4.530   1.807 -0.7890  0.0465  0.3123
 5169TIP3    H136922   4.796   4.497   1.833 -0.7679  1.2998  1.9339
 5169TIP3    H236923   4.729   4.601   1.745 -0.6373  0.5275  0.9063
 5170TIP3   OH236924   6.547   4.765  14.961 -0.1413  0.7161 -1.1626
 5170TIP3    H136925   6.549   4.853  14.924  2.7775  1.2884  0.1906
 5170TIP3    H236926   6.582   4.775  15.050 -1.5884 -1.5140 -0.2802
 5171TIP3   OH236927   5.278   1.091   0.319  0.7498  0.0525  0.5564
 5171TIP3    H136928   5.313   1.149   0.387  1.1734 -0.5121  0.8253
 5171TIP3    H236929   5.350   1.080   0.257  1.0703 -1.1350  1.1240
 5172TIP3   OH236930   5.315   1.236  12.871 -0.0788 -0.1400 -0.0586
 5172TIP3    H136931   5.361   1.241  12.955 -2.0451  3.1286  0.9026
 5172TIP3    H236932   5.234   1.285  12.885 -0.1261  1.0884 -4.0705
 5173TIP3   OH236933   6.541   5.170  10.417  0.0531 -0.2714  0.3391
 5173TIP3    H136934   6.587   5.238  10.368  0.4269  0.4300  1.6406
 5173TIP3    H236935   6.603   5.142  10.485 -0.6130 -0.9086  0.7027
 5174TIP3   OH236936   5.149   1.156  15.946  0.2190  0.0609  0.1379
 5174TIP3    H136937   5.089   1.224  15.976  0.4987  0.2715  0.2306
 5174TIP3    H236938   5.106   1.118  15.869  0.3955  0.8444 -0.3579
 5175TIP3   OH236939   6.517   1.271  10.845  0.8351  0.1371  0.1319
 5175TIP3    H136940   6.498   1.181  10.819 -0.6705  1.1146 -2.3373
 5175TIP3    H236941   6.431   1.312  10.853  1.5409  1.9781 -1.2335
 5176TIP3   OH236942   6.048   0.695  13.624 -0.3774 -0.2034 -0.3327
 5176TIP3    H136943   6.046   0.601  13.644 -0.3225 -0.3329 -0.9306
 5176TIP3    H236944   6.137   0.722  13.646 -0.4887 -0.2200  0.1495
 5177TIP3   OH236945   2.696   2.710  11.464  0.4093  0.0512 -0.1967
 5177TIP3    H136946   2.668   2.671  11.381  0.7866  0.1970 -0.3939
 5177TIP3    H236947   2.616   2.716  11.516  0.5309 -2.0310  0.2716
 5178TIP3   OH236948   5.820   6.023  16.197  0.2729 -0.3479  0.3508
 5178TIP3    H136949   5.782   6.110  16.184 -0.9978 -0.7633  1.1352
 5178TIP3    H236950   5.882   6.013  16.125 -2.4983 -0.3763 -2.1557
 5179TIP3   OH236951   3.458   0.669  12.546 -0.3221 -0.0322 -0.7420
 5179TIP3    H136952   3.506   0.662  12.628 -0.3563  1.0818 -0.6237
 5179TIP3    H236953   3.462   0.762  12.523 -0.9105 -0.2200 -1.6382
 5180TIP3   OH236954   4.114   5.541  15.593  0.2823 -0.8331 -0.4134
 5180TIP3    H136955   4.194   5.593  15.605  0.7268 -1.9224  1.4721
 5180TIP3    H236956   4.043   5.604  15.602  0.8759  0.0110 -1.3483
 5181TIP3   OH236957   1.750   6.192  12.304  0.1915  0.4838 -0.1876
 5181TIP3    H136958   1.815   6.166  12.239  1.0008 -2.4767  1.7550
 5181TIP3    H236959   1.697   6.114  12.318 -1.3370  1.7230  1.1499
 5182TIP3   OH236960   1.832   0.662   5.049 -0.3748  0.6615 -0.0494
 5182TIP3    H136961   1.783   0.602   4.994 -0.7608  0.7133  0.2382
 5182TIP3    H236962   1.924   0.646   5.026 -0.4698 -0.0698  0.0638
 5183TIP3   OH236963   5.479   4.417  14.477 -0.1260 -0.4970 -0.4648
 5183TIP3    H136964   5.538   4.487  14.449  1.4344 -0.7921  1.9183
 5183TIP3    H236965   5.514   4.338  14.437 -0.0478 -0.3831 -0.6208
 5184TIP3   OH236966   0.622   4.296   6.244 -0.1772 -0.0928 -0.0100
 5184TIP3    H136967   0.611   4.222   6.183  0.2896  1.1768 -1.6640
 5184TIP3    H236968   0.717   4.308   6.250 -0.2601  0.5758 -0.0071
 5185TIP3   OH236969   3.689   6.143   3.922 -0.1149  0.2834 -0.8416
 5185TIP3    H136970   3.772   6.191   3.915 -0.2619  0.3524 -2.3025
 5185TIP3    H236971   3.652   6.147   3.833 -1.3560 -0.3264 -0.3559
 5186TIP3   OH236972   3.138   5.078   1.096  0.4973  0.1203  0.0629
 5186TIP3    H136973   3.088   5.064   1.176 -1.7681 -0.7650 -1.4859
 5186TIP3    H236974   3.170   4.991   1.072  0.3913  0.2417 -0.5153
 5187TIP3   OH236975   1.421   5.458  15.914 -0.4693 -0.1034  0.2339
 5187TIP3    H136976   1.440   5.381  15.967  0.8804  0.3432  0.4287
 5187TIP3    H236977   1.505   5.504  15.908 -0.7857  0.2795 -1.5957
 5188TIP3   OH236978   6.140   2.191   4.938 -0.1698  0.3230  0.0661
 5188TIP3    H136979   6.147   2.210   4.845  0.4271  2.4881  0.5150
 5188TIP3    H236980   6.176   2.103   4.948 -1.8243 -0.6402 -1.9579
 5189TIP3   OH236981   3.342   4.392   0.516 -0.2892  0.3107 -0.5420
 5189TIP3    H136982   3.320   4.321   0.455  0.8435 -0.9119  0.4492
 5189TIP3    H236983   3.435   4.380   0.534  0.1048  2.5292 -0.9602
 5190TIP3   OH236984   1.272   0.421   0.286  0.1240 -0.2854 -0.5342
 5190TIP3    H136985   1.217   0.500   0.285 -1.9898 -1.7065  0.0016
 5190TIP3    H236986   1.286   0.401   0.193 -0.0966  0.2015 -0.6783
 5191TIP3   OH236987   5.375   3.300  17.089 -0.3564 -0.0363 -0.0637
 5191TIP3    H136988   5.340   3.302  17.000 -1.0028  0.2304  0.1891
 5191TIP3    H236989   5.408   3.211  17.099 -0.1137 -0.0102 -0.6329
 5192TIP3   OH236990   1.788   1.005   6.129  0.6674  0.2489  0.1702
 5192TIP3    H136991   1.765   1.082   6.076  2.1342 -1.0105 -2.3661
 5192TIP3    H236992   1.730   0.936   6.098  2.0649 -0.7073 -0.3838
 5193TIP3   OH236993   2.840   0.024   5.876 -0.3796 -0.5979  0.0372
 5193TIP3    H136994   2.755  -0.020   5.878 -1.9275  2.2898  1.8944
 5193TIP3    H236995   2.860   0.042   5.968 -0.2036  3.1357 -0.6379
 5194TIP3   OH236996   4.659   0.150  11.410 -0.1338  0.0799  0.9211
 5194TIP3    H136997   4.692   0.229  11.366 -1.5110 -0.0405 -0.3605
 5194TIP3    H236998   4.738   0.103  11.436  0.7432  0.3053 -1.1764
 5195TIP3   OH236999   5.678   5.382  14.972  0.3044 -0.1801 -0.1961
 5195TIP3    H137000   5.657   5.475  14.971 -0.5272 -0.3561  0.2679
 5195TIP3    H237001   5.696   5.360  14.881 -0.2389  0.2809 -0.4174
 5196TIP3   OH237002   5.777   2.901   1.580  0.5303 -0.4745  0.1629
 5196TIP3    H137003   5.681   2.897   1.573  0.4334  1.0727  0.5169
 5196TIP3    H237004   5.806   2.814   1.553 -0.9850 -1.0061  0.1810
 5197TIP3   OH237005   4.436   0.997  11.027  0.3198 -0.5522 -0.0825
 5197TIP3    H137006   4.506   0.937  11.052 -0.5095 -2.0168 -1.1863
 5197TIP3    H237007   4.467   1.036  10.945 -0.1637 -1.2067 -0.5746
 5198TIP3   OH237008   0.615   5.090  14.701 -0.1388  0.7048 -0.6479
 5198TIP3    H137009   0.629   5.169  14.648 -1.0713  1.0622 -0.3789
 5198TIP3    H237010   0.589   5.023  14.637  1.7109  0.3135 -1.0112
 5199TIP3   OH237011   1.366   1.429  15.099  0.0676  0.6164  0.4567
 5199TIP3    H137012   1.374   1.494  15.169 -1.8368  1.3419  0.0103
 5199TIP3    H237013   1.349   1.479  15.020  0.0769 -0.3466 -0.1729
 5200TIP3   OH237014   2.764   0.186   4.178 -0.1518  0.0155 -0.2220
 5200TIP3    H137015   2.717   0.162   4.098  1.7084 -1.1183 -0.9874
 5200TIP3    H237016   2.755   0.281   4.183  1.3279  0.3325 -2.8343
 5201TIP3   OH237017   5.026   5.405  12.081  0.4569 -0.2686 -0.2294
 5201TIP3    H137018   5.005   5.496  12.101 -1.7585 -0.2464 -2.3969
 5201TIP3    H237019   5.109   5.409  12.035 -0.5609  0.8937 -2.0274
 5202TIP3   OH237020   0.190   1.525   2.611  0.4731 -0.1711 -0.0005
 5202TIP3    H137021   0.096   1.508   2.612  0.7277 -1.9165 -1.5311
 5202TIP3    H237022   0.198   1.611   2.570 -0.3380 -1.2457 -2.5058
 5203TIP3   OH237023   5.081   3.646   1.649  0.0928  0.5066 -0.1599
 5203TIP3    H137024   5.016   3.669   1.715 -0.1950  0.0780 -0.2945
 5203TIP3    H237025   5.052   3.692   1.570  0.8128  1.5779  0.1785
 5204TIP3   OH237026   5.692   1.764   0.698  0.4336 -0.1305 -0.2659
 5204TIP3    H137027   5.724   1.849   0.670 -1.6100  0.8446  0.2927
 5204TIP3    H237028   5.630   1.738   0.630 -1.2418  0.2437  1.1008
 5205TIP3   OH237029   0.521   6.048  15.688  0.0285 -0.3307  0.2973
 5205TIP3    H137030   0.589   6.093  15.637 -1.2220 -0.0606 -1.1691
 5205TIP3    H237031   0.555   6.047  15.777  1.4169  0.8855 -0.1965
 5206TIP3   OH237032   0.940   4.121  15.651  0.0619  0.5672 -0.2760
 5206TIP3    H137033   0.861   4.095  15.700  1.1692  0.5946  1.5783
 5206TIP3    H237034   0.973   4.197  15.698  1.7815 -0.0718 -0.4046
 5207TIP3   OH237035   3.047   1.424  11.749  0.0651  0.0665  0.2480
 5207TIP3    H137036   3.018   1.435  11.659  1.8020 -1.1316 -0.4759
 5207TIP3    H237037   3.097   1.503  11.769  2.9236 -1.2853 -1.1677
 5208TIP3   OH237038   4.271   5.987  14.902 -0.2163 -0.5382  0.6404
 5208TIP3    H137039   4.307   5.979  14.814 -2.3666 -2.7205 -0.0949
 5208TIP3    H237040   4.225   6.071  14.902  0.6656 -0.0475  0.0413
 5209TIP3   OH237041   5.886   4.465  12.985  0.0830  0.2795 -0.0853
 5209TIP3    H137042   5.941   4.390  12.965  0.6400  0.5061  0.5825
 5209TIP3    H237043   5.929   4.507  13.060 -0.9569  0.5009  0.3951
 5210TIP3   OH237044   2.548   5.327   3.559  0.5369 -0.2946 -0.1502
 5210TIP3    H137045   2.630   5.330   3.509 -0.0199 -2.6575 -1.2609
 5210TIP3    H237046   2.512   5.415   3.551  0.6853 -0.4721 -3.5936
 5211TIP3   OH237047   0.997   1.923   4.629 -0.4527 -0.5449 -0.4155
 5211TIP3    H137048   0.912   1.956   4.657 -0.0353 -0.6410  1.0214
 5211TIP3    H237049   0.991   1.828   4.641  0.5352 -0.3723  1.6818
 5212TIP3   OH237050   0.442   0.666  17.069 -0.1942 -0.1405 -0.0012
 5212TIP3    H137051   0.443   0.571  17.056 -0.8657 -0.2085  0.3991
 5212TIP3    H237052   0.352   0.691  17.047 -0.0675  0.3756  0.0794
 5213TIP3   OH237053   0.021   3.945  13.951 -0.4128  0.3758  0.3435
 5213TIP3    H137054   0.021   3.867  13.895  0.1734  1.4697 -1.2042
 5213TIP3    H237055  -0.068   3.947  13.988  0.0510 -1.9048  1.6913
 5214TIP3   OH237056   0.558   1.388  14.364 -0.2944 -0.1718  0.2785
 5214TIP3    H137057   0.546   1.480  14.388 -2.2459 -0.4431  0.4909
 5214TIP3    H237058   0.555   1.388  14.269 -1.3341 -0.1208  0.3014
 5215TIP3   OH237059   0.117   5.548   5.476  0.5763  0.2352  0.2209
 5215TIP3    H137060   0.130   5.579   5.386 -0.7126  0.4192  0.0916
 5215TIP3    H237061   0.022   5.548   5.488  0.6263 -1.7904  0.8777
 5216TIP3   OH237062   5.881   3.008   2.669 -0.4550 -0.1843 -0.9621
 5216TIP3    H137063   5.889   2.921   2.631  0.7815  0.3835 -2.0162
 5216TIP3    H237064   5.814   2.998   2.737 -0.6902 -1.8304 -1.4147
 5217TIP3   OH237065   6.097   6.053  12.055 -0.0091  0.2345 -0.6082
 5217TIP3    H137066   6.028   6.005  12.009 -0.3449  0.9226 -0.8474
 5217TIP3    H237067   6.054   6.088  12.133  0.7400 -1.5161  0.6056
 5218TIP3   OH237068   0.966   6.092   4.935 -0.7401 -0.2232  0.4177
 5218TIP3    H137069   1.034   6.080   5.002  0.6976  1.2606 -0.7311
 5218TIP3    H237070   0.998   6.042   4.860 -2.0954 -1.4640  0.6545
 5219TIP3   OH237071   1.287   1.755  12.381  0.0625  0.4652 -0.0426
 5219TIP3    H137072   1.378   1.766  12.408  0.4749 -3.0308  0.2268
 5219TIP3    H237073   1.236   1.798  12.450  1.4236  0.3990  1.0294
 5220TIP3   OH237074   5.263   2.409  13.154 -0.4344 -0.5041  0.3774
 5220TIP3    H137075   5.213   2.329  13.139  0.1644 -1.0713  1.3479
 5220TIP3    H237076   5.208   2.461  13.214  0.1370 -1.1368  1.4611
 5221TIP3   OH237077   4.477   6.176  15.967  0.0210  0.5227  0.6316
 5221TIP3    H137078   4.405   6.176  16.030  0.2926  4.3650  1.0566
 5221TIP3    H237079   4.473   6.262  15.926  2.2508 -0.4881 -1.8755
 5222TIP3   OH237080   0.057   5.540   3.231  0.2525  0.0909 -0.0192
 5222TIP3    H137081   0.098   5.626   3.230  0.7970 -0.1686 -0.1986
 5222TIP3    H237082  -0.035   5.557   3.213  0.4777  0.5656 -0.7393
 5223TIP3   OH237083   1.881   6.609  16.388  0.2806 -0.8676 -0.1367
 5223TIP3    H137084   1.823   6.656  16.328  0.2695  0.3076  0.7867
 5223TIP3    H237085   1.824   6.577  16.458  0.5560 -0.7210  0.1615
 5224TIP3   OH237086   6.728   6.527  14.157  0.2217 -0.4853 -0.3080
 5224TIP3    H137087   6.807   6.565  14.121  0.5331  0.2534  1.1194
 5224TIP3    H237088   6.759   6.454  14.211 -0.1202 -0.6882 -0.3842
 5225TIP3   OH237089   4.530   1.207  11.955 -0.3589 -0.4335  0.4273
 5225TIP3    H137090   4.505   1.121  11.920 -2.0234 -0.3236  1.2615
 5225TIP3    H237091   4.467   1.268  11.916  0.4864  0.3206  0.2466
 5226TIP3   OH237092   5.383   5.254  10.385 -0.1883 -0.1180 -0.1909
 5226TIP3    H137093   5.418   5.267  10.297 -1.6989 -0.3811 -0.8434
 5226TIP3    H237094   5.384   5.341  10.424 -1.4394  0.3840 -1.2220
 5227TIP3   OH237095   6.778   2.262   3.492 -0.2520 -0.2601  0.2917
 5227TIP3    H137096   6.693   2.218   3.484 -0.4825  0.2055  0.1246
 5227TIP3    H237097   6.791   2.271   3.586  0.3584 -1.7478  0.3508
 5228TIP3   OH237098   4.828   4.588   5.560  0.2960 -0.1978 -0.0568
 5228TIP3    H137099   4.867   4.501   5.547  0.2560 -0.2674  0.3084
 5228TIP3    H237100   4.833   4.604   5.654  1.0769  0.5512 -0.2163
 5229TIP3   OH237101   1.036   1.150   6.022 -0.0512 -0.3192 -0.0342
 5229TIP3    H137102   0.991   1.217   6.073 -1.7124 -0.3183 -1.4540
 5229TIP3    H237103   1.087   1.101   6.086 -1.6918  0.0202  1.5634
 5230TIP3   OH237104   6.367   2.207  15.394 -0.1431  0.1324 -0.1223
 5230TIP3    H137105   6.299   2.272  15.374 -1.1212 -0.8260  0.0623
 5230TIP3    H237106   6.319   2.129  15.421  1.0381 -0.5381  0.0824
 5231TIP3   OH237107   0.775   3.542  10.575  0.4923 -0.0917 -0.1538
 5231TIP3    H137108   0.695   3.499  10.607  0.2449 -0.2415 -0.9767
 5231TIP3    H237109   0.837   3.533  10.648 -0.2135 -0.0338  0.4675
 5232TIP3   OH237110   0.474   6.007   3.090  0.1434 -0.2869 -0.0810
 5232TIP3    H137111   0.503   6.061   3.017 -0.7155 -0.4055 -0.5105
 5232TIP3    H237112   0.412   5.945   3.052 -0.5527 -0.1490  0.7901
 5233TIP3   OH237113   4.727   1.225  16.508  0.3046  0.3375  0.1524
 5233TIP3    H137114   4.750   1.211  16.600 -1.3302 -0.9649  0.3923
 5233TIP3    H237115   4.632   1.238  16.509  0.2522  0.1587 -1.3639
 5234TIP3   OH237116   2.256   4.020  11.563  0.4527  0.1301  0.2090
 5234TIP3    H137117   2.293   4.071  11.492 -0.6525  0.8953  0.1740
 5234TIP3    H237118   2.170   3.991  11.531  0.1233  0.1289  1.0660
 5235TIP3   OH237119   4.673   6.652   2.640 -0.2502  0.1788  0.4751
 5235TIP3    H137120   4.616   6.724   2.612  0.7168  0.1139 -1.7790
 5235TIP3    H237121   4.685   6.599   2.561  0.7729 -1.2882  1.5881
 5236TIP3   OH237122   6.189   4.886   6.083  0.1034 -0.3471  0.3791
 5236TIP3    H137123   6.095   4.868   6.081 -0.2356  1.4119 -0.6896
 5236TIP3    H237124   6.208   4.902   6.175 -1.3058  2.3605  0.2760
 5237TIP3   OH237125   2.413   2.381   2.787  0.4752 -0.0853 -0.5650
 5237TIP3    H137126   2.355   2.339   2.851 -0.4226  2.1274  0.1272
 5237TIP3    H237127   2.399   2.474   2.800  2.6538  0.4601 -1.8500
 5238TIP3   OH237128   1.434   6.219  13.065 -0.1858 -0.0717  0.5685
 5238TIP3    H137129   1.432   6.275  12.987 -0.9384 -0.2831  0.4301
 5238TIP3    H237130   1.513   6.166  13.055 -0.1984  0.0115  0.0260
 5239TIP3   OH237131   1.213   6.147   5.831 -0.2438  0.3849  0.0482
 5239TIP3    H137132   1.252   6.063   5.807  0.8079  1.1087 -0.8015
 5239TIP3    H237133   1.234   6.157   5.924  2.5864  1.2900 -0.6686
 5240TIP3   OH237134   0.924   1.833   5.680 -0.1289  0.2790 -0.1944
 5240TIP3    H137135   0.905   1.895   5.750  1.0515  0.0728  0.3322
 5240TIP3    H237136   0.902   1.880   5.600 -1.2886  0.5910  0.3055
 5241TIP3   OH237137   5.430   3.203   2.356  0.2185  0.3196 -0.1337
 5241TIP3    H137138   5.502   3.262   2.333  0.0873  0.2252 -0.7884
 5241TIP3    H237139   5.435   3.132   2.293  0.1551 -0.1979  0.4355
 5242TIP3   OH237140   5.502   2.479  17.026 -0.4370  0.2148 -0.2002
 5242TIP3    H137141   5.594   2.451  17.024 -0.6100 -0.3247 -0.6953
 5242TIP3    H237142   5.496   2.537  17.102 -0.2953 -1.9193  1.4916
 5243TIP3   OH237143   4.214   4.343  11.867  0.8755  0.1144 -0.1775
 5243TIP3    H137144   4.201   4.257  11.907  0.1597  0.5064  0.4561
 5243TIP3    H237145   4.126   4.380  11.861  1.1529  0.7043 -0.6704
 5244TIP3   OH237146   0.267   1.781   6.475 -0.3611  0.2907 -0.4989
 5244TIP3    H137147   0.268   1.762   6.569 -0.2830  0.3419 -0.4896
 5244TIP3    H237148   0.359   1.771   6.448 -0.4178  0.0798 -0.6098
 5245TIP3   OH237149   2.666   3.820  16.036 -0.3086 -0.1245 -0.5603
 5245TIP3    H137150   2.639   3.881  15.967 -0.3271  1.5083  0.8757
 5245TIP3    H237151   2.594   3.757  16.042 -2.1945  2.0762  0.7245
 5246TIP3   OH237152   1.216   5.535   1.456 -0.1632 -0.3449  0.7950
 5246TIP3    H137153   1.211   5.529   1.361 -1.0897 -0.4067  0.8467
 5246TIP3    H237154   1.249   5.624   1.473  0.6885 -0.5839  0.3993
 5247TIP3   OH237155   3.474   4.665   0.487 -0.0925  0.3961 -0.4779
 5247TIP3    H137156   3.522   4.684   0.406  0.0734 -1.2770 -0.8083
 5247TIP3    H237157   3.424   4.586   0.467 -1.2087  0.8136  0.5994
 5248TIP3   OH237158   0.779   0.199   3.932  0.2113  0.0041 -0.0185
 5248TIP3    H137159   0.737   0.120   3.965  1.9869 -1.1937 -0.5464
 5248TIP3    H237160   0.820   0.172   3.850  1.2439  1.3576  0.0308
 5249TIP3   OH237161   0.430   6.211  14.333  0.4815 -0.0663  0.0361
 5249TIP3    H137162   0.511   6.248  14.369  0.0025  0.2164  0.8195
 5249TIP3    H237163   0.361   6.245  14.389 -0.2931  0.5085 -1.2509
 5250TIP3   OH237164   2.848   6.475  14.774 -0.2712 -0.4512  0.6131
 5250TIP3    H137165   2.798   6.556  14.763  1.3025  0.2273 -2.1099
 5250TIP3    H237166   2.927   6.503  14.821 -0.1303 -0.5804  0.4521
 5251TIP3   OH237167   6.140   0.123  13.145 -0.2680 -0.0384  0.2845
 5251TIP3    H137168   6.167   0.039  13.180 -1.2906  0.1596  1.5678
 5251TIP3    H237169   6.088   0.163  13.214 -1.6784  0.6842 -1.1471
 5252TIP3   OH237170   0.987   2.095   0.273  0.2453  0.2743 -0.1342
 5252TIP3    H137171   1.031   2.128   0.351  0.7781  0.3414 -0.4618
 5252TIP3    H237172   1.056   2.089   0.207 -0.3854  1.0904 -0.8734
 5253TIP3   OH237173   4.412   1.847  11.242  0.2864 -0.0408 -0.4917
 5253TIP3    H137174   4.432   1.937  11.267 -0.2841 -0.1462  0.3629
 5253TIP3    H237175   4.381   1.805  11.323  2.2311 -1.5021 -0.4628
 5254TIP3   OH237176   3.190   0.347   5.902  0.0202 -0.6391  0.3032
 5254TIP3    H137177   3.284   0.346   5.919 -0.0101  0.2352  0.5315
 5254TIP3    H237178   3.165   0.440   5.905 -1.1682 -0.9795  2.0650
 5255TIP3   OH237179   6.198   6.086   4.829  0.4874 -0.0084 -0.1141
 5255TIP3    H137180   6.291   6.108   4.822  0.8077 -1.7045 -1.3820
 5255TIP3    H237181   6.165   6.146   4.896  2.9748 -0.9260  2.0641
 5256TIP3   OH237182   3.540   1.785   5.554 -0.5067  0.0166 -0.4190
 5256TIP3    H137183   3.483   1.788   5.631  1.2421 -0.0035  0.9160
 5256TIP3    H237184   3.482   1.762   5.482 -2.2481  0.3760  0.8366
 5257TIP3   OH237185   5.704   4.042  12.464  0.6936  0.3659  0.4646
 5257TIP3    H137186   5.760   4.049  12.540 -0.3492  2.0538  1.0990
 5257TIP3    H237187   5.633   3.983  12.491  0.5562  0.6198  0.6552
 5258TIP3   OH237188   3.216   2.980   3.252 -0.2821 -0.5509 -0.5956
 5258TIP3    H137189   3.140   2.968   3.308  1.1175 -0.4685  1.3895
 5258TIP3    H237190   3.214   3.073   3.228 -1.1190 -0.6808 -1.0206
 5259TIP3   OH237191   3.113   0.864   4.016  0.0084  0.1885  0.1055
 5259TIP3    H137192   3.044   0.929   4.005  0.7641  1.0239  0.2721
 5259TIP3    H237193   3.189   0.914   4.046  0.8300 -0.6542 -0.5481
 5260TIP3   OH237194   5.819   0.861  12.836  0.0309  0.0309 -0.3807
 5260TIP3    H137195   5.794   0.945  12.875 -0.5974 -0.6158  0.6337
 5260TIP3    H237196   5.810   0.798  12.907  0.1946 -0.9551 -1.2233
 5261TIP3   OH237197   4.965   5.939  13.476 -0.1676  0.5040  0.5486
 5261TIP3    H137198   4.870   5.928  13.483  0.0143 -1.2063  0.7165
 5261TIP3    H237199   4.987   5.898  13.392  0.2503  2.1585 -0.1521
 5262TIP3   OH237200   6.575   5.023   1.228 -0.2550  0.9404 -0.1127
 5262TIP3    H137201   6.543   5.035   1.317  1.7587  2.5430  0.4595
 5262TIP3    H237202   6.507   5.061   1.173 -1.4044  0.1624  0.7356
 5263TIP3   OH237203   5.730   2.340  15.707  0.2871  0.1601  0.2368
 5263TIP3    H137204   5.725   2.435  15.705  1.5427  0.2666  1.1252
 5263TIP3    H237205   5.820   2.320  15.681  0.0885 -0.7706  0.2432
 5264TIP3   OH237206   2.051   0.631  11.454 -0.4442  0.4336  0.2754
 5264TIP3    H137207   2.045   0.710  11.507  0.0207  0.6958 -0.0633
 5264TIP3    H237208   2.057   0.662  11.364 -1.7881 -0.0266  0.0194
 5265TIP3   OH237209   3.302   5.632  10.589  0.6586  0.1072 -0.0848
 5265TIP3    H137210   3.300   5.538  10.604 -0.1945 -0.0315 -0.9749
 5265TIP3    H237211   3.344   5.668  10.667 -0.2879 -0.8917  0.9120
 5266TIP3   OH237212   2.189   3.670   4.483  0.2881 -0.0605  1.1243
 5266TIP3    H137213   2.159   3.669   4.574 -1.3204 -0.2256  0.6169
 5266TIP3    H237214   2.132   3.733   4.440  3.4860  2.8677  0.9900
 5267TIP3   OH237215   0.419   1.009   0.513  0.6023  0.1368  0.2555
 5267TIP3    H137216   0.467   1.060   0.447  1.8008 -1.0803  0.1693
 5267TIP3    H237217   0.361   1.073   0.554 -0.5132  0.8491 -2.2869
 5268TIP3   OH237218   6.313   4.765   5.256  0.0540  0.9065  0.3851
 5268TIP3    H137219   6.273   4.844   5.218  1.0993  1.6885  0.9085
 5268TIP3    H237220   6.248   4.734   5.319 -0.2327  1.5107  0.3913
 5269TIP3   OH237221   2.606   3.464   5.071 -0.3412 -0.1605 -0.0919
 5269TIP3    H137222   2.541   3.482   5.139 -0.9762  0.9670 -0.9859
 5269TIP3    H237223   2.690   3.462   5.118 -0.9715 -1.2033  0.9941
 5270TIP3   OH237224   4.030   5.155   2.442 -0.5098  0.3666 -0.1464
 5270TIP3    H137225   3.978   5.077   2.423 -1.3308  1.0840 -0.8863
 5270TIP3    H237226   4.031   5.161   2.537 -0.0583 -0.8002 -0.0673
 5271TIP3   OH237227   1.048   6.156   1.909  0.3621  0.1725  0.1936
 5271TIP3    H137228   1.041   6.229   1.969  1.8897  0.4745  0.0395
 5271TIP3    H237229   1.135   6.119   1.926 -0.8447 -2.3644  1.1193
 5272TIP3   OH237230   3.325   3.223   5.285  0.3671  0.1135  0.4353
 5272TIP3    H137231   3.254   3.281   5.256  1.5652  0.8231 -1.1453
 5272TIP3    H237232   3.393   3.281   5.317  1.5225 -0.3991 -1.0227
 5273TIP3   OH237233   2.281   3.612   0.953 -0.0971  0.0225 -0.6485
 5273TIP3    H137234   2.309   3.592   0.864 -0.4426 -0.6441 -0.6168
 5273TIP3    H237235   2.318   3.541   1.006  0.3606  0.5826 -0.2181
 5274TIP3   OH237236   3.746   6.472   3.063  0.0674 -0.4284 -0.1449
 5274TIP3    H137237   3.826   6.522   3.082  0.4286 -0.7430 -0.8457
 5274TIP3    H237238   3.683   6.502   3.129  1.5412 -2.0409  2.0527
 5275TIP3   OH237239   2.830   1.760   4.383 -0.0704  0.5377  0.3151
 5275TIP3    H137240   2.739   1.783   4.402  0.1090  1.8025 -0.3186
 5275TIP3    H237241   2.863   1.833   4.330  1.4418  0.3083  0.9121
 5276TIP3   OH237242   5.689   5.843  10.701 -0.0338  0.0513 -0.5344
 5276TIP3    H137243   5.765   5.858  10.645  0.1498  0.3185 -0.2223
 5276TIP3    H237244   5.650   5.762  10.669  1.2451 -0.8839  0.2329
 5277TIP3   OH237245   6.717   3.090   4.597 -0.0155  0.1667 -0.2375
 5277TIP3    H137246   6.758   3.158   4.542  0.8511 -0.2633 -0.1287
 5277TIP3    H237247   6.624   3.099   4.580  0.1392  1.0115 -0.6687
 5278TIP3   OH237248   3.658   5.300   0.678 -0.2793  0.1380  0.0453
 5278TIP3    H137249   3.585   5.322   0.735 -0.9185 -1.8131  0.0114
 5278TIP3    H237250   3.641   5.210   0.651  0.9396  0.4329 -1.8070
 5279TIP3   OH237251   3.832   0.293  12.734 -0.5002  0.4151  0.1935
 5279TIP3    H137252   3.906   0.245  12.772 -0.5889  0.5132  0.4909
 5279TIP3    H237253   3.824   0.372  12.789  0.0341  1.0726 -0.6687
 5280TIP3   OH237254   2.154   1.356   0.421  0.0090  0.6051 -0.2479
 5280TIP3    H137255   2.249   1.347   0.414  0.1445  2.1688 -0.5922
 5280TIP3    H237256   2.120   1.275   0.383  1.2302 -0.8954  1.7333
 5281TIP3   OH237257   4.066   0.330   2.008  0.1369 -0.1163  0.5668
 5281TIP3    H137258   3.987   0.380   1.987  0.3658  0.6378  1.4815
 5281TIP3    H237259   4.137   0.394   2.001  0.3099 -0.0137  2.9100
 5282TIP3   OH237260   5.530   0.772  11.313  0.4466  0.7768 -0.2792
 5282TIP3    H137261   5.534   0.727  11.229  0.7654  0.2907 -0.0068
 5282TIP3    H237262   5.604   0.832  11.311  1.0570  0.0468  0.0577
 5283TIP3   OH237263   4.760   4.840  13.920 -0.0169  0.2373  0.4691
 5283TIP3    H137264   4.769   4.745  13.916  0.4828  0.3240 -0.7409
 5283TIP3    H237265   4.677   4.855  13.965 -0.2436 -0.7660  0.3941
 5284TIP3   OH237266   1.683   2.078  12.433  0.0051 -0.0017  0.5574
 5284TIP3    H137267   1.742   2.084  12.508 -0.2732 -0.9418  0.8557
 5284TIP3    H237268   1.595   2.076  12.473 -0.1137 -1.2217  0.2518
 5285TIP3   OH237269   2.673   3.660  11.935 -0.4383  0.3708  0.1421
 5285TIP3    H137270   2.756   3.676  11.980  0.7543 -1.0187 -1.4963
 5285TIP3    H237271   2.606   3.696  11.993  1.2456  0.7090  1.8943
 5286TIP3   OH237272   6.228   6.140   2.097 -0.0458 -0.2463 -0.3962
 5286TIP3    H137273   6.179   6.186   2.166 -0.4237  1.5236 -1.8158
 5286TIP3    H237274   6.212   6.191   2.018  2.5875 -0.6885 -1.2775
 5287TIP3   OH237275   1.929   0.130  14.929 -0.3553 -0.0301 -0.3022
 5287TIP3    H137276   2.018   0.103  14.906 -0.8438 -1.4263 -0.5978
 5287TIP3    H237277   1.890   0.157  14.846 -0.2253  0.5247 -0.1837
 5288TIP3   OH237278   2.670   3.743  11.124 -0.0640  0.4572  0.5208
 5288TIP3    H137279   2.590   3.730  11.073  0.1611  1.0670  0.0211
 5288TIP3    H237280   2.738   3.759  11.059  0.3152  0.7317  0.9837
 5289TIP3   OH237281   2.596   2.770   2.655  0.3075  1.3060 -0.6153
 5289TIP3    H137282   2.507   2.774   2.621 -1.0474 -2.5624  2.0984
 5289TIP3    H237283   2.590   2.812   2.742  1.3022  1.6743 -0.7213
 5290TIP3   OH237284   5.009   0.220  15.248 -0.1703 -0.5888 -0.2063
 5290TIP3    H137285   5.043   0.186  15.166 -0.0806  0.5257 -0.6429
 5290TIP3    H237286   4.937   0.278  15.222  1.7450  2.0713  0.3082
 5291TIP3   OH237287   2.907   0.277   3.273  0.0307 -0.0128  0.2857
 5291TIP3    H137288   2.861   0.271   3.357  2.2306  0.2811  1.5402
 5291TIP3    H237289   2.985   0.223   3.285  1.7340  2.1815 -0.6416
 5292TIP3   OH237290   2.812   5.115  11.631  0.0492 -0.2995 -0.7245
 5292TIP3    H137291   2.879   5.172  11.669 -0.4110 -0.1484 -0.1491
 5292TIP3    H237292   2.757   5.173  11.579 -2.1568  0.2924  2.1539
 5293TIP3   OH237293   4.787   6.322   1.451  0.5746 -0.4381 -0.3236
 5293TIP3    H137294   4.864   6.275   1.483 -0.1373 -1.3032  0.1426
 5293TIP3    H237295   4.820   6.408   1.426  1.5405 -0.5067  0.6938
 5294TIP3   OH237296   2.875   0.353   2.085 -0.3514 -0.2205  1.2531
 5294TIP3    H137297   2.890   0.385   2.173  0.9583  0.4760  0.7835
 5294TIP3    H237298   2.946   0.390   2.033 -2.1493  0.9003 -0.4763
 5295TIP3   OH237299   3.898   3.524   1.301 -0.4207 -0.2094 -1.0666
 5295TIP3    H137300   3.984   3.516   1.260 -1.0925  0.7194 -2.7017
 5295TIP3    H237301   3.866   3.434   1.307  0.7803 -0.5750 -0.2109
 5296TIP3   OH237302   6.400   0.464  17.227  0.2460  0.1886 -0.3446
 5296TIP3    H137303   6.363   0.512  17.153  0.5762 -0.1563 -0.7305
 5296TIP3    H237304   6.332   0.469  17.295 -0.3157 -0.0337 -0.8866
 5297TIP3   OH237305   1.168   0.303  14.602  0.3300  0.0006 -0.1341
 5297TIP3    H137306   1.087   0.353  14.610  0.1187 -0.2515 -0.6318
 5297TIP3    H237307   1.156   0.229  14.662  0.3165  0.1233  0.0167
 5298TIP3   OH237308   6.041   0.266  15.358 -0.1900 -0.1926  0.0118
 5298TIP3    H137309   6.077   0.311  15.282  2.0227  0.1033  1.1712
 5298TIP3    H237310   5.958   0.230  15.328 -1.6373  3.9447 -1.1706
 5299TIP3   OH237311   0.813   4.381  13.790 -0.5150  0.3015  0.3345
 5299TIP3    H137312   0.786   4.329  13.714 -1.4841  1.4510 -0.1245
 5299TIP3    H237313   0.868   4.321  13.842 -0.6429 -0.7973 -0.7702
 5300TIP3   OH237314   4.303   1.603   5.090 -0.1729 -0.6986 -0.5621
 5300TIP3    H137315   4.324   1.622   4.999  0.4650  0.0128 -0.2683
 5300TIP3    H237316   4.259   1.518   5.088 -0.1611 -0.6779 -1.5283
 5301TIP3   OH237317   2.698   1.643  10.578  0.2016  0.2868 -0.6781
 5301TIP3    H137318   2.747   1.665  10.658 -0.5266 -0.5354  0.0048
 5301TIP3    H237319   2.633   1.579  10.607 -0.4201  0.3852 -1.8343
 5302TIP3   OH237320   3.637   6.519   3.529  0.0292  0.0368  0.1240
 5302TIP3    H137321   3.654   6.605   3.568 -0.7884  0.9037 -1.3874
 5302TIP3    H237322   3.703   6.462   3.568  1.6481  1.7121 -0.0844
 5303TIP3   OH237323   6.778   1.924   5.804  0.3804  0.1951 -0.6193
 5303TIP3    H137324   6.736   2.004   5.774 -1.1847 -0.7583 -1.0070
 5303TIP3    H237325   6.869   1.933   5.777 -0.1662  1.0669 -2.2063
 5304TIP3   OH237326   0.722   1.068   5.670  0.1149  0.2007 -0.2186
 5304TIP3    H137327   0.722   0.982   5.711 -0.9440 -0.1465 -0.9126
 5304TIP3    H237328   0.811   1.101   5.682  0.8217 -1.4109 -0.8463
 5305TIP3   OH237329   0.934   6.086  13.960 -0.4615 -0.0009  0.0969
 5305TIP3    H137330   1.027   6.080  13.938 -0.3652  1.5691  0.0269
 5305TIP3    H237331   0.891   6.104  13.876 -0.8951 -1.1393  0.0564
 5306TIP3   OH237332   4.438   1.312   1.660  0.1382 -0.3682 -0.3607
 5306TIP3    H137333   4.471   1.291   1.573 -0.6480  0.7603 -0.9499
 5306TIP3    H237334   4.411   1.228   1.696 -4.8800 -0.2994 -3.4716
 5307TIP3   OH237335   3.186   1.964  15.606 -0.9509  0.5681  0.0680
 5307TIP3    H137336   3.266   1.998  15.567  0.4218 -1.4718  1.0371
 5307TIP3    H237337   3.167   2.025  15.678  0.2988  0.4921  0.4754
 5308TIP3   OH237338   5.337   0.908   3.055 -0.4157  0.7984  0.7180
 5308TIP3    H137339   5.347   0.832   2.998  0.7718  1.3315  0.1905
 5308TIP3    H237340   5.304   0.977   2.998 -0.0590  1.0907  0.8605
 5309TIP3   OH237341   6.693   5.508  14.627 -0.3331 -0.3169 -0.8764
 5309TIP3    H137342   6.761   5.511  14.559 -0.0131  0.3230 -0.5259
 5309TIP3    H237343   6.640   5.586  14.612 -1.3927 -1.1354 -1.5474
 5310TIP3   OH237344   5.339   2.207   3.599  0.2572 -0.4350  0.0275
 5310TIP3    H137345   5.397   2.193   3.524 -0.0907 -2.0660  0.0553
 5310TIP3    H237346   5.251   2.206   3.562  0.2063  2.3503 -0.0605
 5311TIP3   OH237347   6.043   1.275  11.873 -0.2429  0.2409  0.1560
 5311TIP3    H137348   6.002   1.328  11.805 -0.5611  0.5317  0.5712
 5311TIP3    H237349   5.973   1.219  11.905  0.2889 -1.0513 -0.8698
 5312TIP3   OH237350   2.443   1.550  12.131  0.3165 -0.4752 -0.2368
 5312TIP3    H137351   2.506   1.513  12.069 -0.4051 -1.3260 -0.4701
 5312TIP3    H237352   2.368   1.576  12.077 -0.1875 -0.9342  0.2338
 5313TIP3   OH237353   0.203   1.302   5.458  0.1107  0.6034  0.3126
 5313TIP3    H137354   0.115   1.283   5.491 -0.4787 -0.0154 -1.5775
 5313TIP3    H237355   0.255   1.318   5.537 -1.6963  0.9999  1.4381
 5314TIP3   OH237356   1.809   5.333  12.064 -0.5658 -0.4839  0.1223
 5314TIP3    H137357   1.761   5.416  12.054  1.1368  0.5065  0.1010
 5314TIP3    H237358   1.817   5.322  12.159 -2.3519 -1.5613  0.1781
 5315TIP3   OH237359   0.133   1.738  15.391  0.0492  0.2902  0.5145
 5315TIP3    H137360   0.109   1.798  15.462 -1.6417  0.6720 -0.3483
 5315TIP3    H237361   0.178   1.794  15.328  1.7983 -0.1014  1.3670
 5316TIP3   OH237362   2.771   0.709  15.108 -0.5447 -0.1892  0.7904
 5316TIP3    H137363   2.859   0.706  15.073 -0.0142  1.6973  1.8734
 5316TIP3    H237364   2.727   0.778  15.057 -1.4655 -1.2586  0.1143
 5317TIP3   OH237365   5.600   2.796  15.849  0.4899  0.0097  0.1998
 5317TIP3    H137366   5.523   2.853  15.844 -0.0775 -0.5054  2.5929
 5317TIP3    H237367   5.662   2.842  15.904  1.1297 -0.4664 -0.1092
 5318TIP3   OH237368   3.083   6.303   0.445  0.2548 -0.7225  0.1184
 5318TIP3    H137369   3.066   6.316   0.538 -1.3549 -0.3802 -0.1927
 5318TIP3    H237370   3.015   6.355   0.401  2.3349  0.9024 -1.2769
 5319TIP3   OH237371   6.698   4.713  14.688  0.5773 -0.1651 -0.0079
 5319TIP3    H137372   6.710   4.704  14.593  0.1387 -2.6697  0.1575
 5319TIP3    H237373   6.605   4.733  14.698  0.3358 -1.2732 -0.0253
 5320TIP3   OH237374   0.152   0.237  10.994  0.4791 -0.6027 -0.2774
 5320TIP3    H137375   0.093   0.312  10.987 -1.5212 -1.8794  2.2266
 5320TIP3    H237376   0.170   0.212  10.903  0.0322  1.9979 -1.1244
 5321TIP3   OH237377   1.910   2.615  16.017 -0.1461 -0.3606  0.0185
 5321TIP3    H137378   1.993   2.639  16.057 -0.3052 -1.5011  1.0739
 5321TIP3    H237379   1.845   2.669  16.061 -0.1309 -0.5043  0.2218
 5322TIP3   OH237380   1.841   2.281  16.398  0.5395  0.3706 -0.1509
 5322TIP3    H137381   1.761   2.333  16.389  0.1465  0.2520  2.2402
 5322TIP3    H237382   1.850   2.269  16.493  1.8417 -2.0282 -0.5656
 5323TIP3   OH237383   3.303   5.493   2.674  0.5902 -0.3061  0.5915
 5323TIP3    H137384   3.232   5.515   2.614  1.7450  1.3621 -0.2090
 5323TIP3    H237385   3.258   5.473   2.757 -0.8197  0.9142  0.1629
 5324TIP3   OH237386   1.631   3.671  11.116 -0.2406 -0.1180 -0.0436
 5324TIP3    H137387   1.646   3.750  11.064  0.6582 -0.3459 -0.1291
 5324TIP3    H237388   1.548   3.688  11.161  1.7063  2.3907  2.7402
 5325TIP3   OH237389   3.962   1.232  11.956  0.4245 -0.6161  0.1659
 5325TIP3    H137390   4.011   1.227  12.038 -0.3251 -0.1823  0.6507
 5325TIP3    H237391   3.919   1.146  11.949  1.6976 -1.2005 -0.5485
 5326TIP3   OH237392   1.974   4.644   1.510 -0.6257  0.1014 -0.4644
 5326TIP3    H137393   2.005   4.560   1.476  0.7332  0.1228  0.6432
 5326TIP3    H237394   1.950   4.625   1.601 -0.3885  0.8944 -0.2334
 5327TIP3   OH237395   2.479   5.272   0.914 -0.1713 -0.3953 -0.6525
 5327TIP3    H137396   2.564   5.272   0.959 -0.6948  1.5438  0.4226
 5327TIP3    H237397   2.495   5.227   0.831  2.4963  1.9394 -1.4918
 5328TIP3   OH237398   5.079   0.769   3.578 -0.2093  0.1519 -0.1985
 5328TIP3    H137399   5.045   0.744   3.492 -0.0199  1.1720 -0.5748
 5328TIP3    H237400   5.075   0.688   3.630 -1.8150 -0.0999 -0.6765
 5329TIP3   OH237401   0.026   1.012   0.293 -0.0769  0.6350  0.0034
 5329TIP3    H137402   0.093   0.959   0.337  0.1046  1.0534  0.2345
 5329TIP3    H237403   0.010   0.966   0.211 -0.3655 -0.1084  0.4737
 5330TIP3   OH237404   5.327   6.000  12.969 -0.2564 -0.2638  0.2301
 5330TIP3    H137405   5.305   5.997  13.062 -0.1928  2.6156  0.3805
 5330TIP3    H237406   5.262   5.943  12.927 -0.1916 -1.7095  2.0340
 5331TIP3   OH237407   0.808   4.365   0.013  0.3796  0.0454  0.6565
 5331TIP3    H137408   0.872   4.379  -0.056  0.6788 -0.0763  0.9057
 5331TIP3    H237409   0.723   4.385  -0.027  0.6797  1.3233  0.6542
 5332TIP3   OH237410   1.050   3.065  14.312  0.1296  0.1034 -0.1480
 5332TIP3    H137411   1.020   3.107  14.393 -1.3553 -2.8005  0.8697
 5332TIP3    H237412   1.098   2.988  14.342 -1.6142 -1.7726 -1.9988
 5333TIP3   OH237413   2.909   4.842  11.603  0.0847 -0.6807  0.1438
 5333TIP3    H137414   2.895   4.922  11.654 -1.6892 -1.0267  0.2344
 5333TIP3    H237415   3.000   4.848  11.574 -0.0835  1.5003 -0.0660
 5334TIP3   OH237416   0.402   4.380   0.552 -0.0589 -0.1612  0.0494
 5334TIP3    H137417   0.326   4.421   0.511  0.3430  1.3492  0.7648
 5334TIP3    H237418   0.389   4.286   0.538 -2.8214 -0.0511  1.4514
 5335TIP3   OH237419   1.829   3.564  13.976  0.5379 -0.7400 -0.3615
 5335TIP3    H137420   1.733   3.567  13.979  0.5540 -0.4488 -0.1843
 5335TIP3    H237421   1.857   3.643  14.021  0.8634 -0.8042 -0.4528
 5336TIP3   OH237422   5.815   1.210   1.567  0.5286  0.3768  0.0543
 5336TIP3    H137423   5.745   1.202   1.501 -0.9159  1.1170  1.4666
 5336TIP3    H237424   5.886   1.157   1.532 -0.9866 -0.9652 -1.1215
 5337TIP3   OH237425   2.119   4.793   5.347 -0.2687 -0.4366 -0.6328
 5337TIP3    H137426   2.144   4.884   5.337  2.9800 -0.6624  4.0555
 5337TIP3    H237427   2.045   4.794   5.407 -0.2635 -0.9198 -0.6122
 5338TIP3   OH237428   3.136   5.134  12.967  0.5838 -0.2774 -0.4067
 5338TIP3    H137429   3.084   5.214  12.972  1.2430  0.1945 -1.1638
 5338TIP3    H237430   3.074   5.064  12.991  0.1192  0.4859  0.6657
 5339TIP3   OH237431   4.892   3.199   0.116 -0.5636 -0.5541 -0.0539
 5339TIP3    H137432   4.978   3.193   0.074 -1.0349 -0.4915 -1.0437
 5339TIP3    H237433   4.876   3.293   0.123 -0.1901 -0.5568  0.8913
 5340TIP3   OH237434   5.053   4.098   4.835  0.0566  0.1805  0.3973
 5340TIP3    H137435   5.060   4.104   4.930 -1.1359 -0.4399  0.5367
 5340TIP3    H237436   5.112   4.026   4.812 -0.9357 -0.7888  0.8538
 5341TIP3   OH237437   3.356   3.310   1.439 -0.3618  0.1500 -0.8609
 5341TIP3    H137438   3.305   3.379   1.397 -0.6266  0.8414  0.5741
 5341TIP3    H237439   3.305   3.231   1.425 -1.8280  0.8310  0.5407
 5342TIP3   OH237440   5.866   3.986  15.419  0.0219 -0.3184  0.4173
 5342TIP3    H137441   5.870   3.944  15.333 -1.6247  1.6395 -0.6804
 5342TIP3    H237442   5.773   3.984  15.443  0.6986 -2.4741  3.0346
 5343TIP3   OH237443   4.263   5.440  14.269 -0.0698  0.5157 -0.5070
 5343TIP3    H137444   4.225   5.369  14.321 -0.0457  0.5193 -0.4843
 5343TIP3    H237445   4.253   5.517  14.324  1.3337  0.2538  0.1290
 5344TIP3   OH237446   4.474   1.608  16.278  0.3423 -0.7052 -0.1145
 5344TIP3    H137447   4.428   1.545  16.222  1.0520 -0.6396 -0.7746
 5344TIP3    H237448   4.564   1.607  16.246  0.1383  1.4287 -0.8080
 5345TIP3   OH237449   1.233   4.315   1.657 -0.4624 -0.3998  0.2838
 5345TIP3    H137450   1.322   4.305   1.691  0.1064 -0.4270 -1.1472
 5345TIP3    H237451   1.188   4.234   1.682  0.4926 -1.2216 -0.6133
 5346TIP3   OH237452   1.820   5.600   4.343 -0.1988  0.1649 -0.1395
 5346TIP3    H137453   1.744   5.542   4.336  0.0930 -0.4843  1.7318
 5346TIP3    H237454   1.894   5.546   4.314 -0.0666 -0.0748  0.6486
 5347TIP3   OH237455   4.875   0.478   5.009 -0.0217 -0.1571  0.0135
 5347TIP3    H137456   4.970   0.463   5.009  0.2782  1.6081 -1.4663
 5347TIP3    H237457   4.841   0.417   4.943  0.2397  0.1147 -0.3735
 5348TIP3   OH237458   6.443   0.640  13.341  0.4662  0.0088 -0.1373
 5348TIP3    H137459   6.458   0.546  13.332  1.3173  0.1068  0.2640
 5348TIP3    H237460   6.523   0.674  13.380 -0.0539  0.8234  0.2351
 5349TIP3   OH237461   3.637   5.695  11.762 -0.1136  0.0254  0.1201
 5349TIP3    H137462   3.550   5.669  11.731 -0.9634 -0.3370  2.6715
 5349TIP3    H237463   3.661   5.628  11.827  1.7060  0.5849  0.0561
 5350TIP3   OH237464   0.773   3.715  14.197 -0.4870  0.2539  0.2914
 5350TIP3    H137465   0.840   3.777  14.168 -0.7498  0.4393  0.0809
 5350TIP3    H237466   0.814   3.668  14.270  0.2399 -0.3303 -0.4760
 5351TIP3   OH237467   3.280   5.750   1.005 -0.4023  0.4926  0.0059
 5351TIP3    H137468   3.246   5.802   0.932  0.4084  0.3036 -0.5089
 5351TIP3    H237469   3.305   5.815   1.071  0.3362  0.7437 -0.5164
 5352TIP3   OH237470   1.624   5.123   4.768 -0.2871  0.5574 -0.3366
 5352TIP3    H137471   1.650   5.109   4.677 -0.2388 -0.4539 -0.1700
 5352TIP3    H237472   1.682   5.066   4.819  1.0239  2.5648  0.5018
 5353TIP3   OH237473   2.154   1.076  12.209  0.5144 -0.2000  0.1735
 5353TIP3    H137474   2.215   1.002  12.201  0.4114 -0.1285 -1.4067
 5353TIP3    H237475   2.169   1.128  12.131 -0.1271  0.9302  0.7907
 5354TIP3   OH237476   2.792   4.805   3.592  0.2023 -0.5917  0.4956
 5354TIP3    H137477   2.808   4.831   3.683  1.8709 -1.5598  0.4943
 5354TIP3    H237478   2.697   4.798   3.586  0.0100  0.6550  1.8339
 5355TIP3   OH237479   5.918   0.936  13.660 -0.1872  0.4113 -0.4701
 5355TIP3    H137480   5.866   0.927  13.580  1.4144 -2.5210 -1.2668
 5355TIP3    H237481   5.981   0.863  13.656  0.0770  0.3355  3.3621
 5356TIP3   OH237482   6.248   0.203  11.951 -0.1040  0.7718 -0.4918
 5356TIP3    H137483   6.325   0.251  11.921 -0.0701  1.3020  0.4161
 5356TIP3    H237484   6.210   0.167  11.871  0.6531  1.1505 -1.0349
 5357TIP3   OH237485   5.740   4.947  13.056  0.1612 -0.5739  0.6334
 5357TIP3    H137486   5.778   4.872  13.103  0.1241 -0.4138  0.9197
 5357TIP3    H237487   5.650   4.952  13.088  0.0367 -0.6683  0.2953
 5358TIP3   OH237488   2.189   5.135   0.701 -0.7178  0.3478  0.2408
 5358TIP3    H137489   2.231   5.071   0.758 -2.1525  0.1339  1.0849
 5358TIP3    H237490   2.261   5.187   0.665  0.3414 -0.8080  0.6846
 5359TIP3   OH237491   4.967   2.314   3.061  0.0415 -0.0502  0.1298
 5359TIP3    H137492   4.967   2.218   3.060  0.6733 -0.0441 -0.2621
 5359TIP3    H237493   5.052   2.338   3.098 -0.7764  0.3444  1.8147
 5360TIP3   OH237494   0.903   1.415   2.845 -0.0333 -0.4991 -0.0991
 5360TIP3    H137495   0.879   1.421   2.753 -1.5805  1.0162  0.3770
 5360TIP3    H237496   0.914   1.321   2.861  1.0493 -0.7273 -2.0067
 5361TIP3   OH237497   1.489   0.056   5.346  0.2002  0.4288 -0.3477
 5361TIP3    H137498   1.422   0.039   5.413  0.7753  1.7416  0.5748
 5361TIP3    H237499   1.458   0.008   5.269 -1.1148 -0.0817  0.4804
 5362TIP3   OH237500   4.276   3.470   6.395  0.5284 -0.4756 -0.2489
 5362TIP3    H137501   4.274   3.377   6.417  1.9184 -0.6781 -0.9117
 5362TIP3    H237502   4.252   3.514   6.476 -0.2725 -1.4106  0.0373
 5363TIP3   OH237503   4.002   6.502  12.943  0.1336 -0.2453 -0.0834
 5363TIP3    H137504   3.984   6.453  13.023  2.2706 -2.8750 -1.1348
 5363TIP3    H237505   3.989   6.594  12.968 -2.1824 -1.1795  2.4244
 5364TIP3   OH237506   6.483   4.492  14.557  0.1500 -0.1615 -0.0853
 5364TIP3    H137507   6.544   4.516  14.487 -0.7656  0.1355 -0.7947
 5364TIP3    H237508   6.438   4.574  14.579  0.7930 -0.1418  1.2250
 5365TIP3   OH237509   0.014   2.009   2.404 -0.8828 -0.5228 -0.3061
 5365TIP3    H137510   0.085   2.000   2.340 -0.9318  0.1295 -0.4603
 5365TIP3    H237511  -0.030   1.924   2.404  0.7226 -1.3824  0.7738
 5366TIP3   OH237512   1.413   3.726   5.535  0.3604 -0.1375 -0.0953
 5366TIP3    H137513   1.339   3.668   5.515  1.5290 -2.2318  1.4522
 5366TIP3    H237514   1.410   3.793   5.468 -1.6105 -1.4690 -1.3882
 5367TIP3   OH237515   5.066   0.335   5.483  0.4324 -0.0429  0.5650
 5367TIP3    H137516   5.046   0.428   5.484 -0.1791 -0.1524 -0.5244
 5367TIP3    H237517   5.044   0.307   5.394  0.9961 -1.1381  0.7629
 5368TIP3   OH237518   6.446   4.936  12.800 -0.6067  0.0083  0.6271
 5368TIP3    H137519   6.470   5.018  12.843 -1.5396  1.1800 -1.0289
 5368TIP3    H237520   6.507   4.928  12.726  0.2915 -1.4435  1.4907
 5369TIP3   OH237521   4.476   1.119  15.886  0.1754 -0.4515  0.3711
 5369TIP3    H137522   4.391   1.101  15.847  0.4156 -1.3997  0.2786
 5369TIP3    H237523   4.456   1.142  15.977 -0.0442 -2.3772  0.8208
 5370TIP3   OH237524   3.335   2.833  16.744 -0.4062 -0.4825 -0.5151
 5370TIP3    H137525   3.290   2.781  16.678  0.6189 -1.0812 -0.7530
 5370TIP3    H237526   3.428   2.825  16.721 -0.2106  1.1073 -0.3055
 5371TIP3   OH237527   4.664   4.681   4.103 -0.2660 -0.1940 -0.0847
 5371TIP3    H137528   4.746   4.633   4.110 -0.9934 -1.3317  1.1827
 5371TIP3    H237529   4.656   4.727   4.187 -1.0176 -0.2842 -0.0965
 5372TIP3   OH237530   3.872   0.381   2.645  0.4106  0.0873 -0.3080
 5372TIP3    H137531   3.882   0.346   2.734 -1.2848  0.5787  0.0854
 5372TIP3    H237532   3.855   0.303   2.591  0.8052 -0.1443 -0.1004
 5373TIP3   OH237533   0.911   5.139  13.922  0.2554 -0.2663  0.3292
 5373TIP3    H137534   0.930   5.229  13.951  0.1934 -0.0979 -0.1401
 5373TIP3    H237535   0.964   5.083  13.979  1.5233  0.1469 -0.4211
 5374TIP3   OH237536   1.279   0.205  15.855  0.2661  0.9536  0.0061
 5374TIP3    H137537   1.291   0.110  15.847  1.2721  1.0438  0.2807
 5374TIP3    H237538   1.197   0.224  15.810 -0.1170 -0.1007  0.2602
 5375TIP3   OH237539   0.597   2.100  12.782 -0.0312  0.0682 -0.3141
 5375TIP3    H137540   0.585   2.128  12.691 -1.4872  1.6686  0.3400
 5375TIP3    H237541   0.685   2.129  12.805 -0.3852  1.4100 -0.6165
 5376TIP3   OH237542   3.119   2.747   5.459 -0.0657 -0.2278  0.6472
 5376TIP3    H137543   3.064   2.781   5.530  0.8871  1.8056  0.4652
 5376TIP3    H237544   3.058   2.702   5.401 -1.4588  1.4388  0.7748
 5377TIP3   OH237545   1.471   3.208   0.131 -0.3010  0.1101  0.2860
 5377TIP3    H137546   1.388   3.198   0.179 -0.5046 -1.3171 -0.3616
 5377TIP3    H237547   1.449   3.191   0.040  0.7411 -0.4477  0.1298
 5378TIP3   OH237548   4.324   4.382  14.831  0.0703 -0.4052 -0.7205
 5378TIP3    H137549   4.327   4.287  14.842 -1.0681 -0.3043  0.6737
 5378TIP3    H237550   4.238   4.407  14.866  0.0746  1.0583 -1.7113
 5379TIP3   OH237551   3.211   0.733  15.559 -0.3392  0.0266 -0.3072
 5379TIP3    H137552   3.173   0.797  15.619 -1.0185 -0.4046 -0.2801
 5379TIP3    H237553   3.284   0.780  15.518 -0.9806  0.9010 -0.4661
 5380TIP3   OH237554   6.312   2.768   3.258  0.0872  0.2323 -0.1664
 5380TIP3    H137555   6.309   2.706   3.331  2.3986  1.3722  0.9663
 5380TIP3    H237556   6.352   2.847   3.296  2.6204  0.3805 -2.9659
 5381TIP3   OH237557   4.648   3.536  15.910  0.0694 -0.5368  0.6010
 5381TIP3    H137558   4.646   3.495  15.997 -0.5800  2.2218  1.9435
 5381TIP3    H237559   4.737   3.572  15.902 -0.4553  0.8717  0.9503
 5382TIP3   OH237560   6.127   3.166   5.132 -0.5425 -0.0911  0.0491
 5382TIP3    H137561   6.178   3.115   5.194  0.7798  3.5819  2.1523
 5382TIP3    H237562   6.066   3.216   5.186  0.0961  2.6323 -1.6437
 5383TIP3   OH237563   3.856   4.259   3.884 -0.4774  0.5189 -0.2978
 5383TIP3    H137564   3.779   4.295   3.927 -0.0955 -0.3096  1.1337
 5383TIP3    H237565   3.917   4.241   3.956 -0.2469 -1.9326 -1.0607
 5384TIP3   OH237566   2.546   4.970  13.451  0.5667  0.2932  0.0123
 5384TIP3    H137567   2.565   4.876  13.447  2.8557  0.7317 -0.4914
 5384TIP3    H237568   2.500   4.990  13.369  0.1873 -0.3620  0.0660
 5385TIP3   OH237569   2.221   0.474  13.053  0.1271 -0.2664  0.1189
 5385TIP3    H137570   2.170   0.496  13.131 -0.3658  0.6306 -0.4506
 5385TIP3    H237571   2.310   0.462  13.086 -0.2790 -0.9519  0.9805
 5386TIP3   OH237572   5.859   3.306  13.762  0.1338 -0.4362 -0.5913
 5386TIP3    H137573   5.799   3.299  13.687  0.2979  2.0842 -1.0234
 5386TIP3    H237574   5.910   3.385  13.743  2.1934 -1.4156  0.7731
 5387TIP3   OH237575   5.740   0.301  11.434 -0.2562 -0.6727  0.0954
 5387TIP3    H137576   5.814   0.244  11.455  1.0082  0.2521 -1.6937
 5387TIP3    H237577   5.683   0.247  11.380 -0.2974 -1.0096  0.4712
 5388TIP3   OH237578   0.686   2.895  11.763  0.2406  0.1477 -0.0634
 5388TIP3    H137579   0.753   2.932  11.821 -0.9261  0.6605  0.9985
 5388TIP3    H237580   0.689   2.950  11.685 -0.5935  1.7049  0.9786
 5389TIP3   OH237581   4.755   3.449   3.991 -0.8962 -0.3323 -0.1640
 5389TIP3    H137582   4.849   3.448   4.006 -0.9100  0.1118 -0.0499
 5389TIP3    H237583   4.721   3.380   4.047 -0.7783  0.3209  0.7209
 5390TIP3   OH237584   3.181   3.985   0.193  0.2501 -0.2757  0.0746
 5390TIP3    H137585   3.105   3.933   0.222 -0.3214  0.6840  0.3268
 5390TIP3    H237586   3.208   4.032   0.271 -0.8651  1.8001 -0.7601
 5391TIP3   OH237587   1.253   2.456   1.362 -0.2071  0.1202 -0.0131
 5391TIP3    H137588   1.257   2.408   1.280  0.5161  0.6697 -0.3016
 5391TIP3    H237589   1.327   2.516   1.359  0.0271 -0.0871  1.1811
 5392TIP3   OH237590   1.142   1.026   3.255 -0.1421  0.1936 -0.1025
 5392TIP3    H137591   1.081   0.989   3.191  0.4174 -0.5134 -0.2398
 5392TIP3    H237592   1.103   1.109   3.281 -1.5509 -0.6189  0.4025
 5393TIP3   OH237593   2.988   0.177  14.428 -0.3545 -0.3274 -0.5328
 5393TIP3    H137594   2.949   0.135  14.504 -1.5010 -0.6626 -1.2797
 5393TIP3    H237595   3.051   0.239  14.464 -0.0178 -1.3385  0.6395
 5394TIP3   OH237596   3.261   6.613   3.403  0.3436 -0.2340 -0.0466
 5394TIP3    H137597   3.260   6.663   3.321 -1.3851 -1.6627 -0.9566
 5394TIP3    H237598   3.278   6.678   3.471  0.1458  1.2535 -1.3795
 5395TIP3   OH237599   3.388   1.266  13.238 -0.1322 -0.5514 -0.2210
 5395TIP3    H137600   3.398   1.352  13.198 -0.4706 -0.3800  0.0527
 5395TIP3    H237601   3.306   1.272  13.287 -0.5297 -1.2645 -0.7951
 5396TIP3   OH237602   0.498   0.146   1.546 -0.1838  0.3011 -0.0440
 5396TIP3    H137603   0.565   0.204   1.582 -1.2985  1.2953  0.4791
 5396TIP3    H237604   0.546   0.086   1.490  1.3964 -0.1677  1.7288
 5397TIP3   OH237605   1.035   4.469   1.766  0.3270 -0.1466  0.4826
 5397TIP3    H137606   1.094   4.410   1.719 -1.5755  0.8770 -3.4015
 5397TIP3    H237607   0.958   4.416   1.784  0.2077  0.0452  0.5375
 5398TIP3   OH237608   2.746   6.334   5.302  0.3857  0.0685 -0.2752
 5398TIP3    H137609   2.770   6.402   5.365  0.9607  0.5733 -1.0299
 5398TIP3    H237610   2.655   6.351   5.281  0.1274 -0.2323  0.5836
 5399TIP3   OH237611   4.972   5.535   3.219 -0.4900 -0.3617 -0.0336
 5399TIP3    H137612   4.919   5.510   3.143 -0.5347  1.0931 -0.4864
 5399TIP3    H237613   5.018   5.615   3.192  0.4244 -0.5014  1.0469
 5400TIP3   OH237614   4.125   6.418   4.976 -0.3206 -0.6385  0.0920
 5400TIP3    H137615   4.044   6.432   5.026 -0.6559  0.1600 -0.6593
 5400TIP3    H237616   4.171   6.349   5.023 -0.1040  0.8719  2.1684
 5401TIP3   OH237617   3.992   6.608   5.526 -0.3065 -0.4523  0.0086
 5401TIP3    H137618   4.022   6.689   5.486 -0.3312 -0.8252 -0.7825
 5401TIP3    H237619   3.943   6.635   5.604 -0.2966  0.2814 -0.2413
 5402TIP3   OH237620   0.411   6.346   4.708  0.0998 -0.4158 -0.6331
 5402TIP3    H137621   0.463   6.269   4.731  1.1200  0.3712 -0.2746
 5402TIP3    H237622   0.425   6.358   4.615  0.0390 -0.5934 -0.6651
 5403TIP3   OH237623   1.773   1.841   2.702  0.0096 -0.5132  0.0977
 5403TIP3    H137624   1.841   1.907   2.716 -0.7335  0.2558  0.1537
 5403TIP3    H237625   1.806   1.787   2.630  0.8610 -0.4035  0.3985
 5404TIP3   OH237626   4.197   3.072   1.099 -0.2033  0.1973  0.1456
 5404TIP3    H137627   4.282   3.029   1.092  0.4496  1.2387  1.5805
 5404TIP3    H237628   4.195   3.107   1.188 -0.4641  3.6664 -1.1515
 5405TIP3   OH237629   0.815   2.196  15.676 -0.3061 -0.0121  0.4449
 5405TIP3    H137630   0.856   2.202  15.590  1.2018 -0.9855  1.0797
 5405TIP3    H237631   0.726   2.166  15.658  0.5054 -1.8261 -0.6803
 5406TIP3   OH237632   3.956   1.722  10.883 -0.1026 -0.3193  0.6046
 5406TIP3    H137633   3.905   1.662  10.829  0.6743  1.3573 -2.0814
 5406TIP3    H237634   3.912   1.806  10.875  0.2417  0.0525  2.3279
 5407TIP3   OH237635   5.320   4.153   1.137  0.0336 -0.4077  0.6918
 5407TIP3    H137636   5.245   4.106   1.101 -0.2049  0.9165 -0.5458
 5407TIP3    H237637   5.290   4.243   1.145  1.7206  0.2767 -0.4853
 5408TIP3   OH237638   1.486   2.535  14.746  0.0847 -0.1458  0.4861
 5408TIP3    H137639   1.581   2.528  14.731 -0.0148  0.3902 -0.4630
 5408TIP3    H237640   1.472   2.629  14.760 -0.6884  0.2022 -2.2597
 5409TIP3   OH237641   3.014   1.426  12.902 -0.6717  0.2062  0.1666
 5409TIP3    H137642   3.072   1.483  12.952  1.3092 -0.5499 -1.1905
 5409TIP3    H237643   3.003   1.348  12.956 -0.4780  0.3785  0.4548
 5410TIP3   OH237644   5.921   0.653   3.081  0.6205  0.4275 -0.3484
 5410TIP3    H137645   5.944   0.727   3.024  0.3960  0.8109  0.0480
 5410TIP3    H237646   5.889   0.585   3.021  1.6000  0.3498 -0.7867
 5411TIP3   OH237647   1.197   3.494   1.656  0.1690 -0.3348 -0.1213
 5411TIP3    H137648   1.265   3.526   1.715  1.0922 -0.2440 -1.2234
 5411TIP3    H237649   1.185   3.402   1.680 -0.8988  0.2238  1.5490
 5412TIP3   OH237650   5.713   6.648   2.091 -0.5155  0.1915  0.0126
 5412TIP3    H137651   5.738   6.741   2.091 -2.2251  0.7163  2.8197
 5412TIP3    H237652   5.636   6.644   2.035 -1.3174  0.7588  1.0569
 5413TIP3   OH237653   4.137   2.518  14.528  0.3869  0.9439  0.4889
 5413TIP3    H137654   4.077   2.493  14.458  0.3303  1.1641  0.4606
 5413TIP3    H237655   4.083   2.518  14.607  0.9569 -1.6757  0.9425
 5414TIP3   OH237656   2.486   5.589  14.978  0.2090  0.2974  0.0004
 5414TIP3    H137657   2.524   5.502  14.972 -1.2795 -0.2439 -1.9553
 5414TIP3    H237658   2.510   5.632  14.896 -0.8077  1.0128  0.0713
 5415TIP3   OH237659   3.728   4.850  13.444  0.0707  0.1825 -0.0981
 5415TIP3    H137660   3.732   4.766  13.399  1.3071 -0.1883  0.6647
 5415TIP3    H237661   3.693   4.911  13.379 -0.7609 -0.9026 -0.6760
 5416TIP3   OH237662   0.036   3.332   4.051  0.5853 -0.4141 -0.0018
 5416TIP3    H137663   0.011   3.313   3.961 -1.7945  0.3982  0.4412
 5416TIP3    H237664  -0.034   3.294   4.104  0.8318  0.9960  1.3752
 5417TIP3   OH237665   1.709   0.457  15.076  0.1223 -0.2234 -0.4100
 5417TIP3    H137666   1.617   0.431  15.074  0.0407 -0.1404  1.5872
 5417TIP3    H237667   1.755   0.382  15.114  0.7150  0.2257 -0.2238
 5418TIP3   OH237668   2.268   5.762  10.563  0.7063  0.7065 -0.3235
 5418TIP3    H137669   2.269   5.707  10.641 -0.5687 -2.2913 -2.3020
 5418TIP3    H237670   2.346   5.736  10.514 -0.0350  0.4495 -1.4007
 5419TIP3   OH237671   2.823   0.490   0.321 -0.1679 -0.3935 -0.0078
 5419TIP3    H137672   2.863   0.413   0.362 -1.2413 -0.7841  0.3435
 5419TIP3    H237673   2.881   0.512   0.248  1.0029 -0.5533  0.8754
 5420TIP3   OH237674   1.544   2.519  15.792  0.5006  0.0902 -0.5313
 5420TIP3    H137675   1.634   2.495  15.813  0.4113  0.5678  0.4136
 5420TIP3    H237676   1.544   2.532  15.697  1.2585 -0.6060 -0.6348
 5421TIP3   OH237677   3.131   0.193  14.171 -0.3593 -0.3971 -0.1095
 5421TIP3    H137678   3.182   0.271  14.195 -1.3535  0.4291 -0.5957
 5421TIP3    H237679   3.064   0.187  14.239 -0.5386 -0.5684 -0.3002
 5422TIP3   OH237680   1.199   3.470  13.797 -0.0143 -0.1541 -0.3553
 5422TIP3    H137681   1.264   3.536  13.772  0.6243 -0.2253  1.0836
 5422TIP3    H237682   1.185   3.419  13.717  0.1935  1.1101 -1.2273
 5423TIP3   OH237683   1.113   1.987   6.163  0.3176 -0.3536  0.2167
 5423TIP3    H137684   1.203   1.999   6.133  0.2971  0.7565  0.5788
 5423TIP3    H237685   1.122   1.945   6.248  0.4241 -2.0376 -0.6035
 5424TIP3   OH237686   6.695   3.046   5.319  0.1274  0.0707 -0.5600
 5424TIP3    H137687   6.727   3.089   5.240  1.5476 -2.2050 -1.2526
 5424TIP3    H237688   6.634   2.980   5.288  1.3121 -1.3933  0.1445
 5425TIP3   OH237689   6.008   2.709  14.994  0.1919 -0.3056 -0.1238
 5425TIP3    H137690   5.993   2.630  14.942 -0.8063  0.0834 -0.4457
 5425TIP3    H237691   5.959   2.693  15.076 -1.5642  0.7264 -0.9374
 5426TIP3   OH237692   0.824   3.978  16.565 -0.2891  0.2231 -0.3869
 5426TIP3    H137693   0.809   4.048  16.629 -0.6530  0.7895 -1.0869
 5426TIP3    H237694   0.755   3.914  16.584 -0.1136  0.1712  0.0833
 5427TIP3   OH237695   5.788   0.400   2.006 -0.0732 -0.8769  0.5203
 5427TIP3    H137696   5.704   0.438   1.982  0.2425 -0.9240 -0.7104
 5427TIP3    H237697   5.851   0.471   1.994  0.0887 -0.8920  1.2652
 5428TIP3   OH237698   1.555   1.021  13.999  0.3851 -0.4283 -0.2644
 5428TIP3    H137699   1.623   1.067  14.047 -0.9755 -1.7260  3.0534
 5428TIP3    H237700   1.556   0.931  14.033 -2.4310 -0.6912 -0.6679
 5429TIP3   OH237701   4.312   1.972   2.897 -0.3872 -0.4202  0.0701
 5429TIP3    H137702   4.362   2.043   2.938  0.6495 -0.0695 -1.7382
 5429TIP3    H237703   4.357   1.957   2.814 -1.0422 -2.7083  0.1165
 5430TIP3   OH237704   5.472   0.569  16.250  0.0245 -0.6053  0.2099
 5430TIP3    H137705   5.444   0.511  16.180  0.6799 -0.2603 -0.3407
 5430TIP3    H237706   5.393   0.584  16.301 -0.5211 -0.6359 -0.6179
 5431TIP3   OH237707   4.409   5.947  13.884  0.3145  0.1667 -0.1932
 5431TIP3    H137708   4.493   5.960  13.926 -0.4678  0.9842  1.1492
 5431TIP3    H237709   4.350   5.921  13.954 -0.7473  0.3920 -0.9810
 5432TIP3   OH237710   0.489   1.396   1.764  0.0166  0.0990  0.2483
 5432TIP3    H137711   0.566   1.453   1.757  0.5393 -0.5021  1.0105
 5432TIP3    H237712   0.519   1.311   1.731 -0.2907 -0.1660  0.6494
 5433TIP3   OH237713   5.024   1.936   1.224  0.4679  0.0049 -0.1873
 5433TIP3    H137714   4.932   1.948   1.201  0.4857  0.3167 -0.1062
 5433TIP3    H237715   5.060   1.884   1.152  0.1196 -0.5300  0.0228
 5434TIP3   OH237716   5.295   5.475   2.862  0.3719 -0.4397  0.0275
 5434TIP3    H137717   5.271   5.566   2.848  1.2416 -0.1612  0.2859
 5434TIP3    H237718   5.232   5.425   2.810  0.5258  0.3606 -0.9592
 5435TIP3   OH237719   2.331   6.743   0.258  0.1287 -0.1827 -0.1639
 5435TIP3    H137720   2.336   6.670   0.320 -0.1851 -0.8308 -0.8993
 5435TIP3    H237721   2.253   6.791   0.284  1.6843  1.3385  1.8833
 5436TIP3   OH237722   0.518   0.775  14.523  0.3067  1.0712 -0.4646
 5436TIP3    H137723   0.468   0.699  14.553  0.3943  1.3553  0.4149
 5436TIP3    H237724   0.525   0.831  14.600  1.0652  1.5280 -0.8609
 5437TIP3   OH237725   1.205   6.582   6.218  0.2002  0.1732 -0.0294
 5437TIP3    H137726   1.251   6.544   6.144  2.3657  0.4436  1.1333
 5437TIP3    H237727   1.221   6.676   6.212  2.3668 -0.0089  2.0189
 5438TIP3   OH237728   4.998   1.571  15.072  0.2412  0.2447  0.3255
 5438TIP3    H137729   5.028   1.486  15.039  1.8251  0.7533  0.3977
 5438TIP3    H237730   4.915   1.552  15.116  0.2060 -1.1323 -0.3044
 5439TIP3   OH237731   5.937   5.360   1.846  0.0764  0.1352  0.2405
 5439TIP3    H137732   6.006   5.323   1.902  1.1599  0.7362 -0.6580
 5439TIP3    H237733   5.919   5.446   1.884  1.0453  0.6787 -0.4985
 5440TIP3   OH237734   2.247   6.751   3.635  0.6965 -0.4102 -0.0938
 5440TIP3    H137735   2.197   6.822   3.675  2.4085  1.1408 -0.6480
 5440TIP3    H237736   2.210   6.742   3.547 -0.2699 -0.9781  0.3621
 5441TIP3   OH237737   2.571   3.782  15.406 -0.8093  0.5141  0.3642
 5441TIP3    H137738   2.545   3.697  15.371  1.1378 -0.3286  0.8477
 5441TIP3    H237739   2.503   3.805  15.469 -1.1321 -0.9194  0.5502
 5442TIP3   OH237740   6.314   0.565  12.077  0.4796  0.6722 -0.4802
 5442TIP3    H137741   6.331   0.480  12.038  1.4187  0.4175  0.4720
 5442TIP3    H237742   6.261   0.611  12.012 -0.5240 -0.8450 -0.7567
 5443TIP3   OH237743   4.789   3.255   0.612 -0.6699 -0.2401 -0.1473
 5443TIP3    H137744   4.841   3.186   0.655  1.7724  1.6246  0.0457
 5443TIP3    H237745   4.736   3.291   0.683  0.8815  0.5874  0.6389
 5444TIP3   OH237746   2.543   0.312  16.178  0.1573 -0.6046 -0.1823
 5444TIP3    H137747   2.561   0.321  16.085  0.6530  1.5829  0.1174
 5444TIP3    H237748   2.590   0.232  16.204  0.6922 -0.7626 -1.6149
 5445TIP3   OH237749   1.595   2.793  13.479  0.3002  0.0846  0.1335
 5445TIP3    H137750   1.688   2.781  13.459  0.2711  1.2931 -0.7814
 5445TIP3    H237751   1.549   2.760  13.402 -0.0195 -0.3386  0.5080
 5446TIP3   OH237752   3.922   2.243   6.303 -0.7528  0.6536 -0.0339
 5446TIP3    H137753   3.904   2.181   6.373  0.4009 -1.1027 -1.2649
 5446TIP3    H237754   3.999   2.292   6.333  0.5850 -1.0425 -0.6713
 5447TIP3   OH237755   1.683   2.104  11.369 -0.0903  0.1214 -0.0641
 5447TIP3    H137756   1.721   2.186  11.401 -2.4384  0.5407  1.8634
 5447TIP3    H237757   1.589   2.122  11.365 -0.5195 -2.1339 -0.7109
 5448TIP3   OH237758   3.196   1.236   3.888  0.5059 -0.0278  0.3994
 5448TIP3    H137759   3.185   1.228   3.982 -1.3867 -1.2766  0.1094
 5448TIP3    H237760   3.233   1.152   3.861  1.2609  0.4091  0.0540
 5449TIP3   OH237761   0.006   2.965  13.824 -0.1570 -0.0638  0.5179
 5449TIP3    H137762   0.094   2.971  13.787 -0.4957  0.4676 -0.2077
 5449TIP3    H237763   0.012   2.896  13.890  1.2078  1.0503  1.5908
 5450TIP3   OH237764   1.211   2.426   5.537  0.4197  0.0341  0.2721
 5450TIP3    H137765   1.246   2.389   5.618 -0.9075 -0.9367  0.4118
 5450TIP3    H237766   1.121   2.452   5.559 -0.2062 -0.9367 -1.0858
 5451TIP3   OH237767   2.964   1.871   6.845  0.2499 -0.4237 -0.3520
 5451TIP3    H137768   2.883   1.908   6.879  2.2351  1.6265  2.4126
 5451TIP3    H237769   2.937   1.793   6.797 -3.3703  0.5396 -0.0239
 5452TIP3   OH237770   2.025   1.769   3.945 -0.3645 -0.8047  1.0918
 5452TIP3    H137771   1.961   1.709   3.907 -2.5054  1.1094  1.5211
 5452TIP3    H237772   2.013   1.760   4.039 -2.3589  1.8750  1.1713
 5453TIP3   OH237773   6.152   2.648  13.474 -0.6072 -0.4692  0.0580
 5453TIP3    H137774   6.192   2.610  13.396 -0.6928  1.9547 -1.1915
 5453TIP3    H237775   6.182   2.592  13.546  2.5590 -0.4902 -1.2298
 5454TIP3   OH237776   3.762   5.073   4.762 -0.4369 -0.1245 -0.3933
 5454TIP3    H137777   3.722   5.160   4.758  1.5021  0.8123 -0.1293
 5454TIP3    H237778   3.740   5.039   4.849  0.4703  0.9462  0.2620
 5455TIP3   OH237779   4.612   5.262  15.342 -0.9146 -1.3683  0.4817
 5455TIP3    H137780   4.540   5.304  15.295 -1.8732 -3.6713 -0.1713
 5455TIP3    H237781   4.573   5.230  15.423  0.0917  0.1024  1.5571
 5456TIP3   OH237782   6.253   5.894   0.810 -0.3133 -0.0057 -0.0029
 5456TIP3    H137783   6.161   5.910   0.791 -0.4039 -0.7675 -0.2391
 5456TIP3    H237784   6.300   5.932   0.736 -0.3564  1.4927  0.7301
 5457TIP3   OH237785   3.017   1.692  12.516  0.0123  0.7020 -0.2499
 5457TIP3    H137786   2.969   1.744  12.579 -0.0989  0.1965  0.0843
 5457TIP3    H237787   3.101   1.737  12.506  0.6010  0.0119  1.3401
 5458TIP3   OH237788   6.092   4.133   6.172  0.7368  0.0388 -0.5627
 5458TIP3    H137789   6.007   4.094   6.189  1.3649 -0.6904  1.0221
 5458TIP3    H237790   6.073   4.215   6.127 -0.7064 -0.9425 -1.7915
 5459TIP3   OH237791   4.947   3.701  15.714 -0.2568 -0.0356  0.2106
 5459TIP3    H137792   4.865   3.748  15.729 -0.7335 -0.9615  0.5306
 5459TIP3    H237793   4.955   3.697  15.619  0.3488  1.6485  0.1725
 5460TIP3   OH237794   0.797   6.057   2.315 -0.4136  0.3168 -0.5379
 5460TIP3    H137795   0.761   6.023   2.234 -1.9568  0.4229  0.0884
 5460TIP3    H237796   0.820   6.148   2.295 -0.6009  0.2845 -0.8987
 5461TIP3   OH237797   3.439   0.377  16.725  0.9828 -0.3405 -0.0335
 5461TIP3    H137798   3.353   0.405  16.756  1.2913 -0.0902  0.5933
 5461TIP3    H237799   3.433   0.384  16.629  0.1868 -0.6815 -0.0067
 5462TIP3   OH237800   3.538   3.269  10.831 -0.3591 -0.2535  0.5150
 5462TIP3    H137801   3.492   3.284  10.748  1.2564  0.6654 -0.2346
 5462TIP3    H237802   3.585   3.187  10.818  0.4649  0.2515  0.2447
 5463TIP3   OH237803   2.422   0.165   5.945  0.0278  0.4859 -0.0048
 5463TIP3    H137804   2.465   0.179   6.029 -1.0507  3.2164  0.1366
 5463TIP3    H237805   2.338   0.124   5.967 -0.1504  0.9765  0.2257
 5464TIP3   OH237806   5.902   2.997  11.860  0.4872  0.1218 -0.2020
 5464TIP3    H137807   5.918   2.903  11.870 -1.1070 -0.3114 -1.5153
 5464TIP3    H237808   5.983   3.032  11.824  1.3689 -0.6158  1.0446
 5465TIP3   OH237809   6.546   4.752   5.368  0.6516  0.4102  0.5161
 5465TIP3    H137810   6.523   4.717   5.454  0.3620  0.6053  0.5181
 5465TIP3    H237811   6.464   4.752   5.319  0.9197 -0.2371  0.0455
 5466TIP3   OH237812   3.361   4.285   0.167  0.5614 -0.5797 -0.8143
 5466TIP3    H137813   3.389   4.225   0.098  1.1395 -0.6536 -0.5211
 5466TIP3    H237814   3.371   4.234   0.248 -0.1941 -0.5256 -0.6849
 5467TIP3   OH237815   6.382   5.744   2.157  0.4850 -0.2543 -0.1494
 5467TIP3    H137816   6.308   5.718   2.211  1.0861 -2.4970 -0.3810
 5467TIP3    H237817   6.343   5.784   2.079 -0.4064  1.3693  1.0771
 5468TIP3   OH237818   0.407   5.417  12.272  0.5238  0.6427 -0.8771
 5468TIP3    H137819   0.387   5.424  12.178 -2.0990 -1.6858 -0.5746
 5468TIP3    H237820   0.493   5.374  12.275  0.7801  1.0452 -2.2193
 5469TIP3   OH237821   5.306   3.902  10.719  0.2526  0.5398  0.1726
 5469TIP3    H137822   5.380   3.954  10.688  0.7118  0.6137  1.3830
 5469TIP3    H237823   5.301   3.829  10.656 -0.4163  2.0335 -1.5367
 5470TIP3   OH237824   3.582   5.750  15.783  0.0830 -0.6473  0.6204
 5470TIP3    H137825   3.621   5.791  15.860  0.5440 -0.9525  0.5600
 5470TIP3    H237826   3.488   5.754  15.798  0.0892  0.9804  0.3242
 5471TIP3   OH237827   3.980   4.494  15.431 -0.3866  0.0655  0.0953
 5471TIP3    H137828   3.909   4.432  15.451  1.1978 -2.2720 -1.1812
 5471TIP3    H237829   3.939   4.562  15.378 -1.8896 -0.7067  0.2529
 5472TIP3   OH237830   5.785   6.143  12.445 -0.1501  0.4798  0.2554
 5472TIP3    H137831   5.831   6.109  12.522 -0.0277 -0.2379 -0.1255
 5472TIP3    H237832   5.853   6.147  12.377 -0.3044  0.9097  0.1268
 5473TIP3   OH237833   5.287   1.440   0.308 -0.3118  0.1511 -0.1785
 5473TIP3    H137834   5.339   1.406   0.235  0.7051  0.2146  0.5058
 5473TIP3    H237835   5.311   1.383   0.382 -1.9594 -0.4413 -0.0929
 5474TIP3   OH237836   1.336   5.198  11.823  0.3123 -0.4140  0.3392
 5474TIP3    H137837   1.371   5.164  11.905  1.3963 -1.5299 -0.5546
 5474TIP3    H237838   1.262   5.140  11.803  1.7275 -1.8707 -0.8275
 5475TIP3   OH237839   5.388   5.377   1.737  0.2757 -0.1030  0.1790
 5475TIP3    H137840   5.333   5.315   1.689  0.4222 -0.1824  0.1112
 5475TIP3    H237841   5.478   5.352   1.714  0.3363  0.1437  0.1375
 5476TIP3   OH237842   3.266   1.585   3.861  1.3756  0.5534  0.1431
 5476TIP3    H137843   3.175   1.579   3.830  0.6993  3.0380  1.4805
 5476TIP3    H237844   3.277   1.509   3.916  0.0529  0.2726  0.0447
 5477TIP3   OH237845   1.563   3.800   0.802  0.1544  0.2294 -0.3308
 5477TIP3    H137846   1.484   3.755   0.772 -0.1783  0.5547  0.0416
 5477TIP3    H237847   1.626   3.730   0.820  0.8048  0.0876 -2.9968
 5478TIP3   OH237848   4.623   4.208  10.268 -0.6039 -0.2315 -0.3593
 5478TIP3    H137849   4.637   4.170  10.355  0.1765  1.2347  0.1946
 5478TIP3    H237850   4.579   4.291  10.286  0.3152  0.4729 -1.2967
 5479TIP3   OH237851   3.417   4.812   2.925 -0.1137 -0.2556  0.0481
 5479TIP3    H137852   3.392   4.776   3.011 -2.3040 -0.0525 -0.4757
 5479TIP3    H237853   3.339   4.800   2.871  0.0380  2.7824 -0.9276
 5480TIP3   OH237854   4.931   2.091   0.331 -0.2980 -0.4785  0.0321
 5480TIP3    H137855   4.838   2.112   0.329 -0.1243  0.2121 -1.5482
 5480TIP3    H237856   4.974   2.173   0.356 -0.0698 -0.5665 -0.0650
 5481TIP3   OH237857   2.337   1.283   2.180 -0.5402  0.0196 -0.6483
 5481TIP3    H137858   2.315   1.190   2.184 -2.7471  0.5605  0.7903
 5481TIP3    H237859   2.379   1.301   2.265  1.5260 -0.0304 -1.6338
 5482TIP3   OH237860   2.029   5.595   4.983  0.0977 -0.5067  0.5016
 5482TIP3    H137861   2.107   5.561   5.028 -0.4797 -2.1780  0.2921
 5482TIP3    H237862   2.061   5.628   4.900  1.0380  1.7118  1.6935
 5483TIP3   OH237863   3.121   6.725  13.129  1.1905 -0.2397 -0.1638
 5483TIP3    H137864   3.159   6.676  13.202  0.4368  0.2119  0.5431
 5483TIP3    H237865   3.137   6.816  13.151 -0.6668 -0.0251  0.3596
 5484TIP3   OH237866   1.376   3.961  15.415 -0.2482 -0.1060 -0.2689
 5484TIP3    H137867   1.427   3.902  15.359 -1.5952 -1.5526 -0.0006
 5484TIP3    H237868   1.289   3.921  15.418 -0.3784  0.3335  2.3095
 5485TIP3   OH237869   0.939   5.496  15.897 -0.0665 -0.1886 -0.0630
 5485TIP3    H137870   0.950   5.552  15.821 -3.4678  0.5668 -0.0982
 5485TIP3    H237871   0.946   5.555  15.972  2.7948 -0.8482  0.2232
 5486TIP3   OH237872   3.751   0.376  16.678 -0.2553 -0.3031  0.2584
 5486TIP3    H137873   3.658   0.388  16.663 -0.1596 -1.2528 -1.2230
 5486TIP3    H237874   3.794   0.437  16.618  0.0819 -0.5005  0.2925
 5487TIP3   OH237875   6.305   1.788  13.974 -0.6047  0.1750  0.2277
 5487TIP3    H137876   6.399   1.800  13.988 -0.6189 -0.1163  0.5882
 5487TIP3    H237877   6.275   1.742  14.053 -0.7449 -1.2120 -0.6217
 5488TIP3   OH237878   4.156   4.960   2.797  0.0242  0.0701  0.3738
 5488TIP3    H137879   4.167   4.971   2.703 -1.1480  0.9697  0.3292
 5488TIP3    H237880   4.099   4.883   2.806 -0.6072  0.5235  0.3069
 5489TIP3   OH237881   0.871   0.738   4.770  0.3170 -0.6008 -0.1275
 5489TIP3    H137882   0.807   0.759   4.838 -0.4323 -1.9011 -0.4209
 5489TIP3    H237883   0.826   0.755   4.688  1.8542  2.8579 -0.3600
 5490TIP3   OH237884   3.189   4.754   4.197 -0.3076  0.1335  0.3232
 5490TIP3    H137885   3.166   4.813   4.125  1.4590  0.6266  0.1266
 5490TIP3    H237886   3.249   4.804   4.251  1.0800 -1.3957  0.2625
 5491TIP3   OH237887   3.534   3.981  17.203  0.1555  0.5055 -0.4109
 5491TIP3    H137888   3.578   3.901  17.173 -0.8788 -0.1452 -0.2238
 5491TIP3    H237889   3.507   4.025  17.122  0.1199  0.3163 -0.5031
 5492TIP3   OH237890   4.276   2.736  16.959 -0.5292 -0.1302  0.0284
 5492TIP3    H137891   4.350   2.690  16.998 -0.8287  0.2603  1.0796
 5492TIP3    H237892   4.199   2.697  17.000 -0.8118  0.8762  0.4528
 5493TIP3   OH237893   4.667   1.828  14.515  0.2929  0.6224 -0.4982
 5493TIP3    H137894   4.572   1.836  14.519  0.3635  1.4478 -0.4101
 5493TIP3    H237895   4.683   1.737  14.491 -0.5162  0.4365 -0.3195
 5494TIP3   OH237896   2.157   3.490   5.600  0.1130 -0.2263  0.6371
 5494TIP3    H137897   2.229   3.536   5.558 -1.5527  1.1937 -0.7653
 5494TIP3    H237898   2.182   3.484   5.692  1.9401  0.3761  0.1879
 5495TIP3   OH237899   5.524   0.596  14.890  0.3543 -0.2041  0.4810
 5495TIP3    H137900   5.594   0.542  14.855 -0.0121  0.5782 -1.5467
 5495TIP3    H237901   5.568   0.673  14.926  0.6136 -0.1153 -0.0180
 5496TIP3   OH237902   1.106   1.209  16.759 -0.2588  0.0653 -0.1827
 5496TIP3    H137903   1.114   1.293  16.805  0.1964  0.8761 -1.6895
 5496TIP3    H237904   1.041   1.227  16.690  2.8937  0.4257 -3.1754
 5497TIP3   OH237905   1.186   4.757   5.863 -0.3696  0.3785 -0.2112
 5497TIP3    H137906   1.201   4.819   5.793  0.2972  0.7291  0.2419
 5497TIP3    H237907   1.248   4.686   5.847 -0.3838  0.3446 -0.1175
 5498TIP3   OH237908   1.249   3.325   1.139  0.4496  0.0675 -0.2213
 5498TIP3    H137909   1.299   3.401   1.170  0.6485 -0.7657  1.5574
 5498TIP3    H237910   1.180   3.362   1.085  0.8009  1.4884  0.2802
 5499TIP3   OH237911   3.773   1.477  13.335 -0.0600  0.1596  0.1434
 5499TIP3    H137912   3.823   1.402  13.304  1.4753  1.9574 -1.8923
 5499TIP3    H237913   3.785   1.543  13.267 -2.6333  1.7242  1.1544
 5500TIP3   OH237914   0.772   2.128  14.461  0.2852 -0.1821  0.3257
 5500TIP3    H137915   0.839   2.113  14.527 -0.0367 -2.1417  0.2399
 5500TIP3    H237916   0.760   2.043  14.419 -1.7266  0.3042 -0.1527
 5501TIP3   OH237917   1.926   4.749   3.385 -0.2833  0.5060 -0.1095
 5501TIP3    H137918   1.880   4.807   3.325  0.5684  1.7612  0.4474
 5501TIP3    H237919   2.006   4.795   3.408 -0.6225  0.1075  2.0573
 5502TIP3   OH237920   3.480   6.048   4.072  0.0655 -0.0683  0.2445
 5502TIP3    H137921   3.551   6.071   4.013  0.6012  1.6801  1.5512
 5502TIP3    H237922   3.495   6.100   4.151 -1.3984 -1.3473  1.4127
 5503TIP3   OH237923   4.907   2.056  13.735  0.1822  0.2170 -0.0494
 5503TIP3    H137924   4.829   2.006  13.760  0.7876  0.1211  1.6754
 5503TIP3    H237925   4.954   1.998  13.674  1.3162 -1.7313  2.5991
 5504TIP3   OH237926   0.848   4.737  14.896 -0.0782  0.1879 -0.4567
 5504TIP3    H137927   0.773   4.760  14.841 -0.0511 -0.1009 -0.6116
 5504TIP3    H237928   0.812   4.737  14.985 -0.6133 -1.4248 -0.6618
 5505TIP3   OH237929   0.657   6.458  16.033  0.8913 -0.4593 -0.0304
 5505TIP3    H137930   0.584   6.455  15.972 -0.5549  1.0894  1.5799
 5505TIP3    H237931   0.658   6.371  16.074 -0.5759 -0.2265  0.5221
 5506TIP3   OH237932   1.640   0.319   1.471 -0.0692  0.4121  0.4760
 5506TIP3    H137933   1.659   0.406   1.506  1.6546  0.1116  0.3206
 5506TIP3    H237934   1.546   0.321   1.452 -0.3897  1.6383  2.1221
 5507TIP3   OH237935   5.785   0.824   4.464  0.6879  0.1220 -0.1525
 5507TIP3    H137936   5.796   0.767   4.539 -0.3781  1.1484  0.8046
 5507TIP3    H237937   5.767   0.765   4.391 -1.8387 -0.7294  1.0925
 5508TIP3   OH237938   1.217   1.303   4.977 -0.2822  0.2689 -0.4329
 5508TIP3    H137939   1.175   1.266   4.900  0.9866 -1.0636 -0.5007
 5508TIP3    H237940   1.194   1.244   5.048  1.0271 -0.2044 -0.3755
 5509TIP3   OH237941   6.077   5.335   5.513  0.8240  0.3289 -0.3705
 5509TIP3    H137942   5.994   5.323   5.560  1.3553 -0.0995  0.4842
 5509TIP3    H237943   6.122   5.251   5.524  2.9072  1.6864  2.2654
 5510TIP3   OH237944   3.546   5.726  16.759 -0.1790 -0.2196 -0.2983
 5510TIP3    H137945   3.592   5.809  16.772 -0.6507  0.3118 -1.8876
 5510TIP3    H237946   3.453   5.749  16.766 -0.3654 -0.3353 -2.1147
 5511TIP3   OH237947   2.954   5.535  11.356  0.1004 -0.2326 -0.0288
 5511TIP3    H137948   2.885   5.530  11.291  0.8398 -1.3286 -0.7429
 5511TIP3    H237949   2.991   5.447  11.359 -1.4186 -0.8301  3.5447
 5512TIP3   OH237950   4.942   0.679  16.756 -0.1388 -0.0860 -0.2496
 5512TIP3    H137951   4.993   0.597  16.752 -0.2616 -0.3266  2.2403
 5512TIP3    H237952   4.896   0.674  16.839  0.4714  2.9030  0.3227
 5513TIP3   OH237953   2.810   5.971  12.328 -0.2258 -0.0453 -0.2395
 5513TIP3    H137954   2.880   6.020  12.284  0.7555  1.0448  2.4370
 5513TIP3    H237955   2.729   6.009  12.293  0.5016 -0.2325 -2.1788
 5514TIP3   OH237956   6.241   6.734  15.073  0.2602 -0.2256 -0.3084
 5514TIP3    H137957   6.240   6.660  15.134 -0.2822  0.1365  0.1342
 5514TIP3    H237958   6.334   6.758  15.065  0.3824 -0.6087 -0.0307
 5515TIP3   OH237959   1.815   2.806  12.558 -0.0989 -0.0971  0.0664
 5515TIP3    H137960   1.876   2.749  12.604  1.7666  0.6460 -1.3966
 5515TIP3    H237961   1.732   2.797  12.605  0.4359 -3.1597  0.5014
 5516TIP3   OH237962   4.901   6.433  12.951 -0.6544 -0.3276  0.6095
 5516TIP3    H137963   4.968   6.480  13.000  0.7899 -0.0733 -1.5571
 5516TIP3    H237964   4.844   6.501  12.915  1.5429 -0.1191 -2.6816
 5517TIP3   OH237965   3.415   2.873  13.125 -0.4045  0.2644  0.5229
 5517TIP3    H137966   3.411   2.836  13.213 -1.9856  0.6089  0.6171
 5517TIP3    H237967   3.378   2.961  13.134  2.0073  1.3759  0.0360
 5518TIP3   OH237968   4.570   3.333   2.634 -0.0354 -0.1831  0.0053
 5518TIP3    H137969   4.575   3.427   2.617  2.6842 -0.4244 -0.6845
 5518TIP3    H237970   4.535   3.296   2.553 -3.8202  0.4702  1.2497
 5519TIP3   OH237971   3.738   3.043   4.465  0.3682  0.3718 -0.1127
 5519TIP3    H137972   3.676   2.983   4.424  1.0637  0.3204 -1.1144
 5519TIP3    H237973   3.694   3.073   4.545 -0.0929 -1.2578  0.2651
 5520TIP3   OH237974   1.764   6.759   2.763 -0.3171 -0.5256  0.2204
 5520TIP3    H137975   1.841   6.703   2.766 -0.8264 -1.2968 -0.8110
 5520TIP3    H237976   1.703   6.713   2.706 -0.4788  1.4043 -1.2357
 5521TIP3   OH237977   4.582   3.415  11.660  0.5289 -0.2616  0.1154
 5521TIP3    H137978   4.499   3.417  11.612  0.6913  0.6636 -0.1313
 5521TIP3    H237979   4.644   3.375  11.598  0.6222  0.4598 -0.2571
 5522TIP3   OH237980   2.840   1.940  11.817 -0.0555  0.0863  0.1431
 5522TIP3    H137981   2.905   1.924  11.749  0.2483 -0.0318  0.4605
 5522TIP3    H237982   2.774   1.871  11.804  0.0499  0.0086  0.0267
 5523TIP3   OH237983   5.851   2.017   3.281 -0.4303 -0.1311 -0.1614
 5523TIP3    H137984   5.840   2.042   3.373 -0.1102  2.2179 -0.7182
 5523TIP3    H237985   5.939   1.981   3.276  0.1621  1.2348  0.1656
 5524TIP3   OH237986   6.711   1.417  15.389  0.4131  0.5597  0.8287
 5524TIP3    H137987   6.653   1.344  15.406 -0.1510  1.2100  1.7587
 5524TIP3    H237988   6.679   1.456  15.308 -0.3533  0.8105  1.2481
 5525TIP3   OH237989   3.117   3.898  13.852 -0.3561 -0.0686  0.4810
 5525TIP3    H137990   3.208   3.869  13.850  0.5267  2.5720 -1.1396
 5525TIP3    H237991   3.102   3.926  13.942 -0.3562 -2.7958  1.3510
 5526TIP3   OH237992   6.317   3.137  12.578  0.1922  0.2350  0.5320
 5526TIP3    H137993   6.352   3.069  12.520  0.7247  0.0787  1.0317
 5526TIP3    H237994   6.297   3.210  12.520  0.5732  0.0206  0.1287
 5527TIP3   OH237995   1.276   3.048   3.054  0.3083  0.3631  0.0574
 5527TIP3    H137996   1.259   3.141   3.072  0.9202  0.6275 -0.7098
 5527TIP3    H237997   1.367   3.046   3.024  0.0308 -0.3859 -0.7241
 5528TIP3   OH237998   4.061   6.409  12.660  0.4767  0.1222  0.4065
 5528TIP3    H137999   4.049   6.378  12.749 -0.2770 -0.0060  0.2565
 5528TIP3    H238000   4.030   6.500  12.661  0.3025  0.0641  0.2273
 5529TIP3   OH238001   1.368   1.962   4.448 -0.4775 -0.2587  0.0535
 5529TIP3    H138002   1.317   2.001   4.519 -0.2616  0.0699  0.0273
 5529TIP3    H238003   1.308   1.960   4.374 -0.1393  1.0969 -0.2777
 5530TIP3   OH238004   4.362   3.327  11.842  0.0904 -0.7825 -0.0714
 5530TIP3    H138005   4.457   3.334  11.845  0.0262 -0.0640  0.3784
 5530TIP3    H238006   4.344   3.265  11.771  0.8693 -0.4241 -0.5808
 5531TIP3   OH238007   2.612   2.660  14.602  0.1207  0.4548  0.0209
 5531TIP3    H138008   2.690   2.620  14.642  0.6267  0.0995 -1.3044
 5531TIP3    H238009   2.646   2.733  14.550 -0.5029  0.7219 -0.0199
 5532TIP3   OH238010   0.254   0.784  13.939  0.2157 -0.1129 -0.0351
 5532TIP3    H138011   0.242   0.691  13.958 -1.6975  0.3057  0.9023
 5532TIP3    H238012   0.341   0.805  13.973 -0.4624 -0.9317  2.2584
 5533TIP3   OH238013   3.988   4.199  16.112  0.3574 -0.7611  0.0244
 5533TIP3    H138014   3.962   4.276  16.163  0.8205 -0.1850 -0.5967
 5533TIP3    H238015   3.982   4.228  16.021 -3.2366 -2.6240 -0.4405
 5534TIP3   OH238016   5.701   5.892   0.025  0.0554  0.7772  0.1512
 5534TIP3    H138017   5.785   5.938   0.021  1.4886 -1.7418 -0.1984
 5534TIP3    H238018   5.710   5.832   0.099 -1.5548  0.6934  0.2915
 5535TIP3   OH238019   4.295   3.762   5.006  0.1957 -0.7748  0.2287
 5535TIP3    H138020   4.281   3.765   4.911  2.6025  2.4861 -0.1060
 5535TIP3    H238021   4.367   3.701   5.018 -0.0897 -1.1670 -0.0287
 5536TIP3   OH238022   6.314   6.638   5.036  0.2421 -0.3761  0.2024
 5536TIP3    H138023   6.261   6.610   4.962 -0.1050  0.3137  0.1831
 5536TIP3    H238024   6.261   6.705   5.080  0.3062 -1.0034  1.2579
 5537TIP3   OH238025   0.455   3.695   4.363 -0.1071  0.3797 -0.5711
 5537TIP3    H138026   0.481   3.610   4.326 -0.4750 -0.1545  0.4036
 5537TIP3    H238027   0.423   3.675   4.451 -0.1608  1.5349 -0.3194
 5538TIP3   OH238028   1.986   6.102  13.386 -0.2056 -0.3356  0.1070
 5538TIP3    H138029   1.950   6.190  13.383  1.1607  0.2040 -0.8942
 5538TIP3    H238030   1.936   6.058  13.455 -1.4724  0.9497  0.0349
 5539TIP3   OH238031   6.656   5.748   2.934 -0.2938  0.0090 -0.4737
 5539TIP3    H138032   6.597   5.789   2.870 -1.9876 -1.5481  0.0339
 5539TIP3    H238033   6.604   5.677   2.972  0.6779  0.9216  2.6790
 5540TIP3   OH238034   0.863   2.758   2.079 -0.6123  0.9392  0.8153
 5540TIP3    H138035   0.912   2.728   2.002 -1.8570  1.3216 -0.1416
 5540TIP3    H238036   0.925   2.813   2.127  0.2255  0.5587  0.1743
 5541TIP3   OH238037   4.179   4.231  15.193  0.4051  0.3765 -0.1798
 5541TIP3    H138038   4.184   4.326  15.179 -0.5341  0.4264 -0.2338
 5541TIP3    H238039   4.265   4.199  15.169  0.5408  1.1473 -0.7542
 5542TIP3   OH238040   4.350   3.305   4.164 -0.4640  0.0082  0.2078
 5542TIP3    H138041   4.269   3.283   4.118 -0.6736  0.9927  0.1004
 5542TIP3    H238042   4.323   3.363   4.235  0.3412  1.7702 -0.9009
 5543TIP3   OH238043   4.863   6.253   5.195  0.1131 -0.1568 -0.0448
 5543TIP3    H138044   4.818   6.180   5.237 -0.6354  0.1057 -0.3855
 5543TIP3    H238045   4.952   6.250   5.230  0.2564 -1.5944 -0.5219
 5544TIP3   OH238046   0.172   5.053   1.477 -0.2931 -0.0103 -0.0673
 5544TIP3    H138047   0.098   4.995   1.461  0.2663 -0.5597 -0.6553
 5544TIP3    H238048   0.204   5.076   1.390 -1.3721  2.3175  0.1018
 5545TIP3   OH238049   2.821   4.630   4.860  0.7931 -0.0245 -0.4285
 5545TIP3    H138050   2.829   4.549   4.809  1.1360 -0.4842  0.3478
 5545TIP3    H238051   2.910   4.658   4.876  0.7175 -0.4269  0.7623
 5546TIP3   OH238052   4.260   5.373   5.785  0.1607  0.1757 -0.4746
 5546TIP3    H138053   4.182   5.383   5.840 -1.4877 -3.7274 -1.9089
 5546TIP3    H238054   4.228   5.389   5.696  1.2353 -0.4191 -0.9727
 5547TIP3   OH238055   0.419   5.452  14.410  0.3731 -0.1807 -0.0328
 5547TIP3    H138056   0.497   5.466  14.465 -0.3077 -0.6604  1.0647
 5547TIP3    H238057   0.453   5.408  14.332  0.8264 -2.9200  1.6612
 5548TIP3   OH238058   2.995   3.188   5.876 -0.5120 -0.1487 -0.1753
 5548TIP3    H138059   3.037   3.267   5.910 -0.7308 -0.2518  0.3371
 5548TIP3    H238060   2.901   3.205   5.883 -0.5904 -1.3956  2.2043
 5549TIP3   OH238061   2.709   3.238   1.096  0.1415  0.1748  0.4637
 5549TIP3    H138062   2.633   3.281   1.135 -0.5776  0.2222 -0.9406
 5549TIP3    H238063   2.731   3.293   1.020  0.1874 -1.0405 -0.4224
 5550TIP3   OH238064   6.627   4.837   4.452  0.2075  0.1692 -0.6018
 5550TIP3    H138065   6.717   4.866   4.438  0.1552  0.0260 -1.2273
 5550TIP3    H238066   6.632   4.782   4.530  0.6666  0.1481 -0.6439
 5551TIP3   OH238067   1.727   1.293   4.566  0.1813  0.0996 -0.6547
 5551TIP3    H138068   1.783   1.216   4.564 -0.6937 -0.5136 -2.2118
 5551TIP3    H238069   1.639   1.258   4.582 -0.2856  0.7347 -1.7672
 5552TIP3   OH238070   1.268   0.696  15.128 -0.2826  0.6288 -0.3194
 5552TIP3    H138071   1.330   0.679  15.199 -0.3022  0.5457 -0.3214
 5552TIP3    H238072   1.258   0.791  15.126 -0.2743  0.6318 -0.2160
 5553TIP3   OH238073   2.957   2.559   2.877 -0.4833  0.2662  0.6806
 5553TIP3    H138074   2.914   2.556   2.791 -1.7550  1.7146  1.2305
 5553TIP3    H238075   3.037   2.509   2.866 -0.0941  1.3380 -1.6642
 5554TIP3   OH238076   3.710   2.098  14.167  0.5326  0.0214 -0.3502
 5554TIP3    H138077   3.724   2.111  14.073 -0.3738 -1.7525 -0.7531
 5554TIP3    H238078   3.779   2.037  14.193 -0.2988 -0.8984 -0.2588
 5555TIP3   OH238079   3.002   1.517  16.864 -0.2628  0.2976 -0.5171
 5555TIP3    H138080   2.996   1.578  16.790 -0.3519  2.0655  0.9121
 5555TIP3    H238081   2.952   1.559  16.934  1.6270 -0.2935  1.2326
 5556TIP3   OH238082   1.623   4.558   5.828  0.3607 -0.1153 -0.1409
 5556TIP3    H138083   1.627   4.467   5.860  0.9543  0.2014  0.6955
 5556TIP3    H238084   1.554   4.557   5.762  0.8924 -1.3551 -0.7059
 5557TIP3   OH238085   3.505   4.051   3.387 -0.1584  0.2198  0.1444
 5557TIP3    H138086   3.561   3.982   3.421  0.0550  0.3164 -0.0125
 5557TIP3    H238087   3.419   4.034   3.427 -0.4547 -0.9133 -0.9035
 5558TIP3   OH238088   1.045   4.144   1.018 -0.5895 -0.3169 -0.5223
 5558TIP3    H138089   0.979   4.088   0.978 -1.6447  0.9866 -0.6575
 5558TIP3    H238090   1.117   4.147   0.955 -0.6248 -1.3327 -0.6069
 5559TIP3   OH238091   0.494   4.305   1.828  0.6355 -0.0296  0.5186
 5559TIP3    H138092   0.417   4.254   1.803  0.4741  0.0603  0.8348
 5559TIP3    H238093   0.474   4.338   1.915  0.7467  0.5603  0.3213
 5560TIP3   OH238094   2.789   5.807  16.292  0.3608  0.2768 -0.1564
 5560TIP3    H138095   2.862   5.856  16.330  0.3184  0.1604  0.0788
 5560TIP3    H238096   2.828   5.756  16.221  0.4931  0.2815 -0.0874
 5561TIP3   OH238097   3.234   3.165  15.315 -0.0151 -0.9232 -0.0367
 5561TIP3    H138098   3.171   3.102  15.352 -0.4138 -0.6073 -0.1764
 5561TIP3    H238099   3.318   3.137  15.350  0.1072 -2.7738 -1.7384
 5562TIP3   OH238100   2.403   2.879  12.596  0.0752 -0.3562  0.1494
 5562TIP3    H138101   2.332   2.825  12.562  1.4660 -1.3285 -1.3032
 5562TIP3    H238102   2.461   2.818  12.642  1.1138  0.0565 -0.5845
 5563TIP3   OH238103   4.460   0.801  15.297  0.4921 -0.2796  0.4387
 5563TIP3    H138104   4.391   0.789  15.362  0.6667 -0.9534  0.4963
 5563TIP3    H238105   4.454   0.724  15.240  0.0109  0.5465 -0.6517
 5564TIP3   OH238106   6.787   3.698   3.833  0.2451 -0.2250  0.2437
 5564TIP3    H138107   6.716   3.709   3.769 -0.3915  2.2467  1.2870
 5564TIP3    H238108   6.743   3.702   3.918  1.4824 -0.0253  0.8787
 5565TIP3   OH238109   2.411   3.716   1.685 -0.4065 -0.5822 -0.3292
 5565TIP3    H138110   2.498   3.748   1.660  0.9039 -2.7024  1.4253
 5565TIP3    H238111   2.365   3.706   1.601  1.3468 -0.3861 -1.3411
 5566TIP3   OH238112   2.528   1.151  12.072 -0.4337 -0.4242  0.4331
 5566TIP3    H138113   2.573   1.126  11.991  0.4564 -2.7155  1.5983
 5566TIP3    H238114   2.598   1.183  12.129 -0.7370 -0.9675  1.1113
 5567TIP3   OH238115   3.879   0.520   1.882 -0.4593  0.5094  0.2893
 5567TIP3    H138116   3.825   0.595   1.856 -2.9295 -0.7381  1.6882
 5567TIP3    H238117   3.841   0.491   1.965  1.0263 -1.7411  0.1969
 5568TIP3   OH238118   4.690   2.542  10.733 -0.4637 -0.7277  0.0003
 5568TIP3    H138119   4.705   2.599  10.808  0.1986 -0.2430 -0.4840
 5568TIP3    H238120   4.767   2.486  10.729 -0.5573 -0.8421 -0.2389
 5569TIP3   OH238121   0.860   3.693  15.790 -0.0099 -0.5273  0.3846
 5569TIP3    H138122   0.898   3.759  15.849 -2.2312  2.0271 -0.9215
 5569TIP3    H238123   0.931   3.670  15.730  0.0226  2.9261 -0.9897
 5570TIP3   OH238124   5.442   5.121  16.238  0.5285 -0.1055 -0.4106
 5570TIP3    H138125   5.406   5.152  16.321  1.5570 -0.5097  0.1933
 5570TIP3    H238126   5.533   5.150  16.238  0.5887 -0.2616 -1.3226
 5571TIP3   OH238127   4.701   1.337   5.973 -0.6319  0.0889  0.2020
 5571TIP3    H138128   4.662   1.270   5.917 -0.2543  1.4016 -1.6581
 5571TIP3    H238129   4.671   1.420   5.937 -0.4321  0.9544  1.9902
 5572TIP3   OH238130   2.137   3.705  16.603 -0.3298 -0.9138  0.5932
 5572TIP3    H138131   2.225   3.699  16.565  0.0153 -2.5539  1.5792
 5572TIP3    H238132   2.122   3.798  16.615  0.7298 -0.5343 -0.8362
 5573TIP3   OH238133   0.793   4.979  16.845 -0.2501 -0.1933 -0.0224
 5573TIP3    H138134   0.843   4.900  16.823 -0.3018  0.2997 -2.0147
 5573TIP3    H238135   0.834   5.012  16.924  1.0670 -1.1169 -0.3021
 5574TIP3   OH238136   6.183   2.337   4.237 -0.1161  0.1390  0.2114
 5574TIP3    H138137   6.196   2.385   4.155  1.0516  0.4586  0.5715
 5574TIP3    H238138   6.260   2.279   4.243 -0.7847 -0.7252  0.5028
 5575TIP3   OH238139   4.158   6.786  10.326 -0.3224  0.2210 -0.3196
 5575TIP3    H138140   4.198   6.815  10.408 -0.9323  1.8527 -0.5908
 5575TIP3    H238141   4.188   6.696  10.315 -1.0864 -0.3788  2.2534
 5576TIP3   OH238142   5.138   2.846  13.595 -0.1033  0.2080 -0.1813
 5576TIP3    H138143   5.174   2.838  13.507  0.4715 -2.5292  0.2451
 5576TIP3    H238144   5.215   2.858  13.651 -0.0691 -2.2495  0.3657
 5577TIP3   OH238145   0.455   4.525   4.983 -0.2829  0.8744 -0.0070
 5577TIP3    H138146   0.405   4.606   4.969 -0.6422  0.8005  0.7986
 5577TIP3    H238147   0.546   4.554   4.989 -0.1545  0.9490 -2.0303
 5578TIP3   OH238148   1.652   4.158  11.718  0.5822 -0.4157  0.1233
 5578TIP3    H138149   1.741   4.165  11.684  0.3384  0.5639 -0.3273
 5578TIP3    H238150   1.627   4.067  11.703  0.5563 -0.0570 -2.1407
 5579TIP3   OH238151   1.159   4.230   3.535 -0.4277 -0.0105 -0.2169
 5579TIP3    H138152   1.166   4.252   3.628 -0.3330  0.2546 -0.2878
 5579TIP3    H238153   1.239   4.263   3.496 -0.3863 -0.2788 -0.3644
 5580TIP3   OH238154   5.079   5.294  13.409  0.1457  0.0342 -0.0393
 5580TIP3    H138155   5.044   5.373  13.366 -0.9096 -0.5891 -0.3336
 5580TIP3    H238156   5.102   5.323  13.497 -0.2156  0.6789 -0.1511
 5581TIP3   OH238157   0.764   0.802   5.229  0.3977 -0.1213 -0.9433
 5581TIP3    H138158   0.793   0.712   5.214  1.8333  0.5818 -2.5291
 5581TIP3    H238159   0.719   0.799   5.313  1.8967 -1.9960 -0.1720
 5582TIP3   OH238160   0.226   0.447   1.302 -0.8095  0.3604 -0.1172
 5582TIP3    H138161   0.218   0.412   1.213  0.6858  0.3444 -0.2700
 5582TIP3    H238162   0.139   0.438   1.340 -0.6160 -3.0392 -0.3460
 5583TIP3   OH238163   4.013   4.823   0.542  0.5452 -0.1853  0.0600
 5583TIP3    H138164   4.031   4.754   0.477 -0.5204 -0.3590 -0.0612
 5583TIP3    H238165   3.927   4.857   0.517  1.0269  1.1392  0.1736
 5584TIP3   OH238166   1.164   5.995   4.736 -0.3929  0.0038 -0.1525
 5584TIP3    H138167   1.254   6.002   4.706  0.4197 -1.3813  1.8478
 5584TIP3    H238168   1.113   5.979   4.656  1.2112  0.1080 -1.2144
 5585TIP3   OH238169   4.933   2.988   0.324  0.0920 -0.0605 -0.0124
 5585TIP3    H138170   4.972   3.067   0.362  2.0362 -0.3968 -1.1872
 5585TIP3    H238171   4.869   3.021   0.261  1.1514  0.6261 -0.7645
 5586TIP3   OH238172   0.292   4.980   4.688 -0.7563  0.3813  0.5409
 5586TIP3    H138173   0.342   5.002   4.610 -1.7813  1.3509  0.1335
 5586TIP3    H238174   0.296   4.885   4.693  1.2160  0.4539  0.5973
 5587TIP3   OH238175   3.946   2.431  12.078  0.0083 -0.3268 -0.3509
 5587TIP3    H138176   4.023   2.409  12.025 -0.7306 -1.0063 -1.1564
 5587TIP3    H238177   3.891   2.483  12.021 -0.6354 -0.7727 -0.1448
 5588TIP3   OH238178   1.092   5.618   6.283 -0.2237 -0.4919 -0.0292
 5588TIP3    H138179   1.000   5.596   6.272 -0.1883 -0.9652  0.6036
 5588TIP3    H238180   1.112   5.674   6.208 -0.8562 -0.9045 -0.5136
 5589TIP3   OH238181   2.440   5.190  12.065 -0.1597 -0.7358  0.2503
 5589TIP3    H138182   2.486   5.218  12.145 -0.2683 -1.6192  0.6348
 5589TIP3    H238183   2.360   5.243  12.064  0.5847  0.4100 -0.1254
 5590TIP3   OH238184   4.392   4.315  11.402 -0.1329 -0.0951 -0.2251
 5590TIP3    H138185   4.486   4.296  11.394 -0.2961 -1.8691  1.6910
 5590TIP3    H238186   4.351   4.259  11.336  0.1492  0.7756 -1.1524
 5591TIP3   OH238187   2.461   2.937   0.935 -0.4422 -0.2574 -0.5866
 5591TIP3    H138188   2.466   2.864   0.998  0.7208 -0.7388 -1.2359
 5591TIP3    H238189   2.410   2.902   0.862  0.6626 -0.6427 -1.1849
 5592TIP3   OH238190   2.711   5.779   1.584 -0.7214 -0.1544 -0.0467
 5592TIP3    H138191   2.667   5.822   1.511  1.5022 -1.3544 -2.1716
 5592TIP3    H238192   2.804   5.800   1.572 -0.0198 -2.4410  0.9445
 5593TIP3   OH238193   0.866   5.418   2.213 -0.2334 -0.2653 -0.2191
 5593TIP3    H138194   0.801   5.440   2.146 -1.0562  1.5287  1.1267
 5593TIP3    H238195   0.818   5.368   2.278 -0.1188  0.4254  0.4104
 5594TIP3   OH238196   4.257   2.018   4.793  0.6948  0.0095 -0.1082
 5594TIP3    H138197   4.326   2.084   4.787  0.7866 -0.0492  0.2982
 5594TIP3    H238198   4.234   2.015   4.886  0.2021 -0.0293 -0.2289
 5595TIP3   OH238199   5.195   2.344  14.627 -0.4252  0.4777 -0.4985
 5595TIP3    H138200   5.247   2.406  14.679  0.5072 -0.7510  0.0512
 5595TIP3    H238201   5.134   2.400  14.579 -0.0076  1.7902  0.4441
 5596TIP3   OH238202   2.247   1.899  13.674  0.4100 -0.9335  0.2322
 5596TIP3    H138203   2.326   1.936  13.713  1.6169 -3.3922  0.2042
 5596TIP3    H238204   2.276   1.818  13.632 -2.1882 -2.1008  0.5859
 5597TIP3   OH238205   6.532   3.812  16.333 -0.1075 -0.3339 -0.1624
 5597TIP3    H138206   6.614   3.859  16.350 -0.1645 -0.8016  1.5266
 5597TIP3    H238207   6.474   3.839  16.405 -0.9085 -1.2200 -0.4635
 5598TIP3   OH238208   3.656   5.251   2.488 -0.0792 -0.1736  0.8201
 5598TIP3    H138209   3.631   5.260   2.396 -0.6584 -0.7333  0.9150
 5598TIP3    H238210   3.586   5.197   2.526  1.1545 -1.5862  1.1496
 5599TIP3   OH238211   3.742   1.000  16.190  0.1925 -0.1270 -0.2059
 5599TIP3    H138212   3.781   0.920  16.224 -0.5306 -0.0258  0.9170
 5599TIP3    H238213   3.664   1.013  16.245  1.1237  2.1357  0.6493
 5600TIP3   OH238214   3.944   3.448  15.567  0.5065  0.3922 -0.0240
 5600TIP3    H138215   3.998   3.428  15.490  2.0381 -2.6329  1.7415
 5600TIP3    H238216   3.860   3.407  15.549  1.1534 -1.0849  0.2701
 5601TIP3   OH238217   5.480   5.590   0.561 -0.2630  0.0413 -0.0058
 5601TIP3    H138218   5.445   5.573   0.648  0.1445 -1.6384 -0.1514
 5601TIP3    H238219   5.490   5.503   0.522 -0.2248  0.7637 -1.6388
 5602TIP3   OH238220   2.811   6.301  13.785 -0.1145  0.2113 -0.2623
 5602TIP3    H138221   2.835   6.274  13.697  0.9810  0.6400 -0.1060
 5602TIP3    H238222   2.853   6.386  13.797 -1.9013  1.0804 -0.0391
 5603TIP3   OH238223   1.221   5.902  16.490  0.0412 -0.2802 -0.1098
 5603TIP3    H138224   1.269   5.835  16.539  0.5207 -0.0796 -0.2984
 5603TIP3    H238225   1.257   5.897  16.401 -0.6385 -0.4626 -0.3750
 5604TIP3   OH238226   0.767   0.937  13.211 -0.1328  0.2936 -0.2033
 5604TIP3    H138227   0.707   0.988  13.156 -0.8808 -0.9088 -0.5186
 5604TIP3    H238228   0.767   0.849  13.172  0.8079 -0.0716  0.5902
 5605TIP3   OH238229   1.165   2.300   2.668  0.0371  0.4565 -0.8192
 5605TIP3    H138230   1.145   2.391   2.688 -0.0052  0.5872 -1.4461
 5605TIP3    H238231   1.261   2.296   2.671 -0.0406  0.0244  1.3414
 5606TIP3   OH238232   2.288   5.625  14.378  0.5158  0.0431 -0.3802
 5606TIP3    H138233   2.374   5.596  14.407  0.6229 -0.2241 -0.9671
 5606TIP3    H238234   2.283   5.598  14.286  0.0696  0.6382 -0.5350
 5607TIP3   OH238235   5.065   2.745  11.814  0.1403 -0.3374  0.1690
 5607TIP3    H138236   5.091   2.787  11.732 -2.6815 -0.9972 -1.1302
 5607TIP3    H238237   5.109   2.796  11.882  2.0496  0.5981 -1.6919
 5608TIP3   OH238238   5.997   6.709   1.714  0.6205 -0.4058 -0.1323
 5608TIP3    H138239   5.954   6.655   1.780  0.5239  0.8840  0.8819
 5608TIP3    H238240   5.926   6.756   1.671  0.8396  0.1621  0.1232
 5609TIP3   OH238241   5.715   4.555   2.798 -0.1797 -0.1589  0.9665
 5609TIP3    H138242   5.658   4.550   2.721 -0.7319 -0.3913  1.3836
 5609TIP3    H238243   5.793   4.602   2.768  0.1091 -1.2545 -0.0353
 5610TIP3   OH238244   5.770   6.003  11.443 -0.2040 -0.0717  0.0753
 5610TIP3    H138245   5.696   6.035  11.392 -0.1518  1.8840  1.1916
 5610TIP3    H238246   5.825   5.956  11.379 -0.7796  1.2252 -1.4032
 5611TIP3   OH238247   2.367   3.944   3.859 -0.2888  0.0637 -0.0854
 5611TIP3    H138248   2.421   3.867   3.875 -1.3097 -0.8187 -0.7960
 5611TIP3    H238249   2.350   3.981   3.946 -0.5769 -1.0594  0.3442
 5612TIP3   OH238250   0.251   5.930  14.041  0.3271  0.4605  0.2446
 5612TIP3    H138251   0.251   5.860  13.976 -2.5131  0.5602  0.0885
 5612TIP3    H238252   0.307   5.898  14.112 -0.6431 -1.7810  0.0074
 5613TIP3   OH238253   3.216   5.351  14.730 -0.2582  0.4414 -0.3756
 5613TIP3    H138254   3.140   5.410  14.729 -0.5921  0.0621  0.8358
 5613TIP3    H238255   3.292   5.409  14.724 -0.6343  0.8207 -1.6782
 5614TIP3   OH238256   4.156   1.128   1.790 -0.2587 -0.3955  0.1503
 5614TIP3    H138257   4.182   1.103   1.701  0.5995  1.2456 -0.0799
 5614TIP3    H238258   4.239   1.146   1.834 -0.7531 -0.0301  0.9336
 5615TIP3   OH238259   2.828   4.769  15.909  0.2226 -0.3198 -0.7412
 5615TIP3    H138260   2.882   4.821  15.969  0.9222 -0.8260 -0.9273
 5615TIP3    H238261   2.753   4.825  15.889  0.1320 -0.0421  0.3840
 5616TIP3   OH238262   3.417   2.915   0.369  0.0217 -0.3091  0.3526
 5616TIP3    H138263   3.456   2.972   0.302  0.9920 -0.6666  0.6055
 5616TIP3    H238264   3.385   2.975   0.436 -1.3982  0.0854 -0.6478
 5617TIP3   OH238265   2.599   6.233  16.977  0.7005 -0.0470  0.2476
 5617TIP3    H138266   2.639   6.150  16.950  1.7833  0.6473 -0.3376
 5617TIP3    H238267   2.579   6.222  17.070 -0.1991 -1.3617 -0.0998
 5618TIP3   OH238268   1.691   3.929   1.188  0.6734 -0.2260 -0.2851
 5618TIP3    H138269   1.658   3.980   1.115  0.3774 -0.6529 -0.4547
 5618TIP3    H238270   1.672   3.838   1.165 -0.7546 -0.2750  0.9743
 5619TIP3   OH238271   6.163   5.057   2.964  0.5238  0.3321 -0.0766
 5619TIP3    H138272   6.128   5.130   3.017  0.0361 -0.2158  0.3596
 5619TIP3    H238273   6.256   5.077   2.956  0.3993  0.9987  0.0639
 5620TIP3   OH238274   4.270   4.969   1.501  0.7337 -0.2383 -0.3742
 5620TIP3    H138275   4.284   4.965   1.407  0.6081 -0.1066 -0.3990
 5620TIP3    H238276   4.213   5.045   1.514  0.0950 -0.7259 -0.2679
 5621TIP3   OH238277   3.039   5.003  16.244 -0.4293 -0.4762 -0.3386
 5621TIP3    H138278   3.132   4.994  16.262 -0.3550 -0.8872 -0.9460
 5621TIP3    H238279   3.001   5.027  16.329 -0.2072 -3.4098  0.6642
 5622TIP3   OH238280   5.090   3.021   5.387 -0.4026 -0.4836  0.4179
 5622TIP3    H138281   5.127   3.101   5.352 -1.8297 -0.0610 -0.1815
 5622TIP3    H238282   5.008   3.009   5.338 -1.2224 -1.1860  1.9106
 5623TIP3   OH238283   3.441   3.483   0.724  0.2188 -0.1417 -0.0468
 5623TIP3    H138284   3.369   3.439   0.680 -0.4755  0.3581  0.5825
 5623TIP3    H238285   3.495   3.411   0.759 -0.6839 -0.5004  0.6227
 5624TIP3   OH238286   2.698   2.898   6.434  0.0315  0.3712  0.1600
 5624TIP3    H138287   2.767   2.956   6.467  1.8948 -1.6619 -0.0421
 5624TIP3    H238288   2.634   2.895   6.505  2.6562 -1.7677  2.5732
 5625TIP3   OH238289   1.191   3.810   1.784 -0.1670  0.2167 -0.0155
 5625TIP3    H138290   1.179   3.751   1.858 -1.0931  0.7221  0.2434
 5625TIP3    H238291   1.250   3.763   1.725 -1.6514 -1.3613 -0.2546
 5626TIP3   OH238292   1.357   5.424   5.386 -0.3234 -0.7697  0.0371
 5626TIP3    H138293   1.361   5.511   5.427 -0.5154  0.0849 -1.6893
 5626TIP3    H238294   1.294   5.375   5.439  0.6350 -0.2262  1.7029
 5627TIP3   OH238295   6.133   5.186  14.944  0.2838 -0.2317 -0.5432
 5627TIP3    H138296   6.074   5.206  15.017  0.0486  2.1139 -1.3345
 5627TIP3    H238297   6.220   5.212  14.975  0.5305 -1.2856 -0.3214
 5628TIP3   OH238298   2.804   1.983  14.652 -1.1954  0.0136  0.3039
 5628TIP3    H138299   2.744   1.909  14.661 -0.8562 -0.3205 -0.1845
 5628TIP3    H238300   2.747   2.058  14.634 -1.7412  0.3239  3.1291
 5629TIP3   OH238301   5.061   3.068  13.752  0.2974  0.2719  0.1606
 5629TIP3    H138302   5.114   2.989  13.747  0.3852  0.4394 -1.9039
 5629TIP3    H238303   5.001   3.061  13.677 -1.3185  0.9843  1.3684
 5630TIP3   OH238304   2.510   2.105  14.159 -0.3671  0.2777  0.0012
 5630TIP3    H138305   2.559   2.184  14.184 -0.7894  0.8247 -0.8855
 5630TIP3    H238306   2.431   2.139  14.116 -0.7238 -0.6285 -0.0597
 5631TIP3   OH238307   2.226   5.246  15.681 -0.0954  0.0577  0.1272
 5631TIP3    H138308   2.157   5.287  15.629 -1.5841  0.7289  2.5401
 5631TIP3    H238309   2.286   5.317  15.702 -1.6447  0.6542  2.6756
 5632TIP3   OH238310   3.994   0.014   3.778 -0.3828  0.6574 -0.0425
 5632TIP3    H138311   3.919   0.012   3.838 -0.6970 -0.9314 -0.4447
 5632TIP3    H238312   4.065   0.054   3.829 -1.1252  0.8921  0.8138
 5633TIP3   OH238313   0.341   3.209  14.362  0.8773 -0.0693 -0.0659
 5633TIP3    H138314   0.267   3.179  14.414  1.0566 -0.5949 -0.1080
 5633TIP3    H238315   0.341   3.304  14.371  1.3855 -0.2168  1.5459
 5634TIP3   OH238316   5.760   0.433   0.848  0.5333 -0.0950  0.0810
 5634TIP3    H138317   5.673   0.402   0.873  0.9815 -1.5687 -0.1706
 5634TIP3    H238318   5.745   0.478   0.764 -0.1060  0.4003  0.4463
 5635TIP3   OH238319   6.122   1.552   5.092 -0.1551 -0.2448 -0.3320
 5635TIP3    H138320   6.103   1.646   5.092 -1.7161 -0.5304  0.9471
 5635TIP3    H238321   6.159   1.535   5.006 -1.0560  1.3071 -1.0582
 5636TIP3   OH238322   0.259   3.691   3.710  0.7604 -0.3703  0.3545
 5636TIP3    H138323   0.255   3.606   3.753  0.5196 -0.5509 -0.0265
 5636TIP3    H238324   0.180   3.736   3.740  0.6166 -0.4788  0.1416
 5637TIP3   OH238325   3.715   5.524   2.120  0.1933  0.1141  0.4677
 5637TIP3    H138326   3.755   5.441   2.094 -1.7648 -0.4137 -0.9812
 5637TIP3    H238327   3.642   5.499   2.177  0.0406  0.8837  0.6179
 5638TIP3   OH238328   3.981   5.292   1.739  0.1970 -0.6276  0.6193
 5638TIP3    H138329   4.001   5.336   1.656  2.1569 -2.1846  0.2183
 5638TIP3    H238330   3.891   5.316   1.758 -0.4434 -0.6111 -2.2237
 5639TIP3   OH238331   0.643   4.830   3.671 -0.2029  0.0927 -0.5869
 5639TIP3    H138332   0.574   4.854   3.609 -1.8127  0.3223  1.2191
 5639TIP3    H238333   0.675   4.745   3.641 -0.8437  0.2661 -1.7925
 5640TIP3   OH238334   5.899   3.637  15.029 -0.2991 -0.3643  0.3243
 5640TIP3    H138335   5.868   3.579  14.960  0.1700 -1.0199  0.6560
 5640TIP3    H238336   5.860   3.602  15.109 -0.3260  0.0130  0.4770
 5641TIP3   OH238337   3.114   3.740   3.395  0.4099  0.1884 -0.0958
 5641TIP3    H138338   3.040   3.757   3.453  0.5526  0.6728 -0.0547
 5641TIP3    H238339   3.089   3.779   3.312  1.3982  2.0027  0.4399
 5642TIP3   OH238340   5.208   6.762   4.000  0.2036 -0.0879 -0.4220
 5642TIP3    H138341   5.206   6.858   3.993  0.8581 -0.1040 -0.9312
 5642TIP3    H238342   5.292   6.743   4.042  0.0339 -0.4362 -0.2403
 5643TIP3   OH238343   0.841   2.699   0.514 -0.2992 -0.9252  0.7652
 5643TIP3    H138344   0.805   2.639   0.449 -0.0260  0.6256 -0.8631
 5643TIP3    H238345   0.936   2.689   0.506 -0.2797 -1.3479  1.5183
 5644TIP3   OH238346   5.252   0.107  16.107 -0.2463 -0.4408 -0.1959
 5644TIP3    H138347   5.293   0.106  16.021  0.2904 -0.3848  0.0586
 5644TIP3    H238348   5.159   0.123  16.089 -0.0341  0.1998 -0.7236
 5645TIP3   OH238349   5.936   4.400   5.227  1.0905 -0.6553  0.9562
 5645TIP3    H138350   5.898   4.426   5.143  0.5867  0.8249  1.6287
 5645TIP3    H238351   5.868   4.420   5.292  2.1916  0.0022  1.9382
 5646TIP3   OH238352   1.359   2.220   3.180  0.1855 -0.2460 -0.2348
 5646TIP3    H138353   1.426   2.286   3.161 -0.2461  0.9682  2.2482
 5646TIP3    H238354   1.404   2.154   3.232  0.1178 -0.8679 -0.9581
 5647TIP3   OH238355   0.934   6.195  12.994 -0.1704 -0.1224 -0.4723
 5647TIP3    H138356   1.028   6.186  12.982 -0.0300 -0.3766  0.7997
 5647TIP3    H238357   0.918   6.289  12.980 -0.0505 -0.4157 -2.7609
 5648TIP3   OH238358   2.499   1.978   0.542  0.4702 -0.5284 -0.1129
 5648TIP3    H138359   2.494   2.045   0.610 -1.8646 -1.7254  0.9396
 5648TIP3    H238360   2.537   1.902   0.586 -0.5880 -1.1488 -0.2467
 5649TIP3   OH238361   3.055   2.071   0.660  0.3034  0.2717 -0.2113
 5649TIP3    H138362   3.115   2.044   0.729 -0.8011  0.1461  0.6984
 5649TIP3    H238363   3.091   2.032   0.580  0.9235 -0.5605  0.4685
 5650TIP3   OH238364   6.655   2.568   3.829 -0.5219  0.2092  0.3206
 5650TIP3    H138365   6.666   2.648   3.779  0.3665  0.8052  1.4355
 5650TIP3    H238366   6.566   2.539   3.810 -1.4976  2.4410  1.3343
 5651TIP3   OH238367   2.194   1.332   1.240  0.5717 -0.4150  0.0996
 5651TIP3    H138368   2.221   1.274   1.169  1.8113  0.1807  0.0828
 5651TIP3    H238369   2.101   1.349   1.223  0.8731 -0.2165 -1.4084
 5652TIP3   OH238370   3.581   5.987  13.305  0.7383 -0.5492 -0.4256
 5652TIP3    H138371   3.512   6.053  13.315  0.4887 -0.8870  0.1051
 5652TIP3    H238372   3.638   6.000  13.380 -0.1147 -1.8797  0.4876
 5653TIP3   OH238373   1.843   0.001  16.120 -0.3977  0.0144  0.1238
 5653TIP3    H138374   1.900   0.062  16.071  0.6381 -0.0661  1.2186
 5653TIP3    H238375   1.755   0.022  16.090  0.0428  1.3914 -0.2495
 5654TIP3   OH238376   4.649   0.612  13.258  0.0752 -0.4757  0.6058
 5654TIP3    H138377   4.676   0.556  13.331 -1.0586 -1.5421  0.2299
 5654TIP3    H238378   4.556   0.592  13.245  0.5006 -1.1072 -1.8101
 5655TIP3   OH238379   0.896   3.603  12.413 -0.4516  0.1872 -0.6911
 5655TIP3    H138380   0.871   3.673  12.353 -1.2772  2.2579  1.9700
 5655TIP3    H238381   0.987   3.622  12.435 -1.3148  1.7218  1.6934
 5656TIP3   OH238382   6.249   2.008   0.667  0.3406  1.1702  0.0203
 5656TIP3    H138383   6.220   1.952   0.596  1.0069 -1.3288  1.6735
 5656TIP3    H238384   6.333   2.044   0.636 -1.0854  2.9872 -1.8982
 5657TIP3   OH238385   3.025   2.915   6.090 -0.4680 -0.9220 -0.6516
 5657TIP3    H138386   2.950   2.945   6.039  0.4846 -1.7427 -2.5839
 5657TIP3    H238387   3.009   2.821   6.103 -0.1202 -0.9544 -0.4514
 5658TIP3   OH238388   2.061   0.192  11.545 -0.1855  0.0073 -0.0513
 5658TIP3    H138389   2.119   0.118  11.563 -1.2503 -0.1352  3.0503
 5658TIP3    H238390   2.049   0.190  11.450  1.5008 -2.5039 -0.2646
 5659TIP3   OH238391   4.974   3.268   0.400  0.1451  0.5544  0.4304
 5659TIP3    H138392   4.942   3.306   0.319 -0.9104 -0.2443  0.4552
 5659TIP3    H238393   4.906   3.286   0.464 -0.9465 -2.3394  0.1670
 5660TIP3   OH238394   4.037   2.854  12.234 -0.0385  0.9053 -0.3602
 5660TIP3    H138395   4.130   2.862  12.258 -0.0389 -1.3528  0.4920
 5660TIP3    H238396   4.038   2.834  12.141  0.3120  1.1774 -0.4157
 5661TIP3   OH238397   1.500   0.280  17.049  0.4359  0.3648 -0.1292
 5661TIP3    H138398   1.551   0.252  17.125 -1.2646  0.1900  0.9583
 5661TIP3    H238399   1.462   0.200  17.015  1.8832  0.3227 -1.7102
 5662TIP3   OH238400   4.635   2.676  16.834  0.3393  0.1731  0.2390
 5662TIP3    H138401   4.576   2.636  16.770  0.9779  2.3220 -1.7950
 5662TIP3    H238402   4.655   2.762  16.796  2.5516  0.5780  2.2543
 5663TIP3   OH238403   5.593   6.150  12.820  0.2266  0.0237 -0.0499
 5663TIP3    H138404   5.636   6.136  12.904  1.5492  0.3647 -0.6483
 5663TIP3    H238405   5.660   6.127  12.755 -1.0704 -1.1534 -1.0099
 5664TIP3   OH238406   1.831   4.869  13.900 -0.6061 -0.3330  0.2991
 5664TIP3    H138407   1.810   4.786  13.857 -1.4311  1.6297 -3.2789
 5664TIP3    H238408   1.926   4.876  13.891 -0.6311 -0.5080 -0.1506
 5665TIP3   OH238409   4.463   5.821  15.238 -0.1723 -0.1215 -0.3047
 5665TIP3    H138410   4.443   5.914  15.248  0.7366 -0.1473  1.8663
 5665TIP3    H238411   4.380   5.776  15.255 -0.4039  0.2343 -0.4957
 5666TIP3   OH238412   0.725   3.307   2.589 -0.6495 -0.2610  0.3521
 5666TIP3    H138413   0.790   3.376   2.600  1.3081 -2.1274  0.8974
 5666TIP3    H238414   0.700   3.282   2.678 -0.3040 -1.1649  0.2107
 5667TIP3   OH238415   6.455   0.822  11.566  0.2082 -0.2139 -0.0590
 5667TIP3    H138416   6.439   0.761  11.495 -0.7954 -0.0366 -0.0009
 5667TIP3    H238417   6.392   0.893  11.551  1.3143  0.7712 -0.0985
 5668TIP3   OH238418   1.537   5.730   3.725 -0.1313 -0.0830  0.3764
 5668TIP3    H138419   1.484   5.651   3.722  0.2110 -0.2456 -2.3900
 5668TIP3    H238420   1.479   5.800   3.695  0.5556  0.1236 -0.4908
 5669TIP3   OH238421   1.747   4.313  15.552 -0.6139  0.4189  0.1689
 5669TIP3    H138422   1.784   4.317  15.464 -0.7927  2.6632  0.1651
 5669TIP3    H238423   1.654   4.297  15.538 -0.6692  0.9293 -0.0655
 5670TIP3   OH238424   0.143   4.696  13.904 -0.1304 -0.5421  0.4016
 5670TIP3    H138425   0.160   4.633  13.834 -0.2705  0.0126 -0.1472
 5670TIP3    H238426   0.052   4.681  13.929 -0.6765  0.4919 -0.8468
 5671TIP3   OH238427   3.265   1.705  14.625 -0.0197  0.5025  0.1434
 5671TIP3    H138428   3.284   1.713  14.719  0.2729 -0.5082  0.1750
 5671TIP3    H238429   3.176   1.670  14.622  0.4870 -0.8082  0.0698
 5672TIP3   OH238430   4.974   1.841   1.579 -0.6123 -0.1442 -0.3637
 5672TIP3    H138431   4.956   1.760   1.627 -2.7636  0.4906 -0.0452
 5672TIP3    H238432   4.887   1.877   1.559  0.2372  0.5083 -3.1995
 5673TIP3   OH238433   2.880   1.855  12.936  0.1649  0.1457  0.5265
 5673TIP3    H138434   2.796   1.816  12.960 -1.4321  1.9272 -1.9557
 5673TIP3    H238435   2.894   1.924  13.001  0.1664 -0.6922  1.4412
 5674TIP3   OH238436   6.227   4.268  15.150 -0.4913  0.1435 -0.7013
 5674TIP3    H138437   6.227   4.208  15.075  1.4639 -0.5888 -0.1422
 5674TIP3    H238438   6.142   4.253  15.192 -0.5622 -1.2578 -1.3192
 5675TIP3   OH238439   6.618   4.042  13.063  0.0005  0.2155  0.1218
 5675TIP3    H138440   6.659   4.073  12.982 -1.3156 -0.1656 -0.7151
 5675TIP3    H238441   6.591   4.121  13.109  2.0520  0.4770  0.8804
 5676TIP3   OH238442   2.556   6.406  15.966 -0.5960  0.8637  0.7739
 5676TIP3    H138443   2.601   6.383  15.885 -0.5742  3.1408  0.0999
 5676TIP3    H238444   2.543   6.323  16.011 -1.1505 -0.5009 -1.8349
 5677TIP3   OH238445   0.837   2.469  17.177 -0.0267 -0.5474  0.3982
 5677TIP3    H138446   0.805   2.518  17.252  0.5627  1.8640 -0.8684
 5677TIP3    H238447   0.758   2.448  17.127 -0.2289 -0.2863  0.6054
 5678TIP3   OH238448   0.262   6.008   5.615 -0.0902  0.0006  0.4437
 5678TIP3    H138449   0.234   6.071   5.548 -0.2282  0.2392  0.7241
 5678TIP3    H238450   0.271   5.925   5.567  4.3156  1.1124 -0.7991
 5679TIP3   OH238451   3.324   4.239  14.288  0.5114  0.7603 -0.1433
 5679TIP3    H138452   3.301   4.292  14.365 -0.4201 -1.5805  1.2431
 5679TIP3    H238453   3.419   4.231  14.292  0.4302  0.2319  1.0840
 5680TIP3   OH238454   6.316   1.958  11.152 -0.1396 -0.2029  0.0671
 5680TIP3    H138455   6.301   1.865  11.168 -0.3514  0.0671  1.5072
 5680TIP3    H238456   6.286   1.972  11.062  1.5905 -1.8785 -0.7943
 5681TIP3   OH238457   5.537   6.472   0.266  0.1604 -0.0457  0.1661
 5681TIP3    H138458   5.522   6.457   0.172 -1.1274 -2.8430  0.7681
 5681TIP3    H238459   5.575   6.559   0.270 -0.8334  0.6069 -2.8759
 5682TIP3   OH238460   6.073   2.964  12.737  0.0547 -0.2697 -0.2846
 5682TIP3    H138461   6.066   3.016  12.657 -1.3925 -0.8837 -0.5717
 5682TIP3    H238462   6.049   3.025  12.807  0.3008 -0.0192 -0.4140
 5683TIP3   OH238463   1.302   4.004  12.678 -0.0330 -0.3282  0.1702
 5683TIP3    H138464   1.311   4.064  12.752 -0.3247  0.4862 -0.4532
 5683TIP3    H238465   1.208   3.993  12.668 -0.0187  0.3266 -0.6956
 5684TIP3   OH238466   4.438   0.489   0.648  0.1913  0.7188 -0.1225
 5684TIP3    H138467   4.402   0.578   0.657 -1.7781 -0.0976  0.4721
 5684TIP3    H238468   4.510   0.486   0.711 -0.6224  1.4590  0.8628
 5685TIP3   OH238469   3.546   0.369   6.495  0.3673  0.0394 -0.3602
 5685TIP3    H138470   3.555   0.284   6.538 -0.2320  0.2356  0.1761
 5685TIP3    H238471   3.593   0.430   6.552 -2.2504  0.6681  1.2180
 5686TIP3   OH238472   3.009   6.052  12.153  0.5880  0.2392  0.0792
 5686TIP3    H138473   3.010   6.106  12.074 -3.5507 -0.2666 -0.4085
 5686TIP3    H238474   3.057   5.973  12.129  0.8473  0.8239 -1.3524
 5687TIP3   OH238475   6.272   6.165  15.522 -0.8199 -0.3546  0.1072
 5687TIP3    H138476   6.319   6.103  15.579 -0.1700  0.4202  0.4261
 5687TIP3    H238477   6.301   6.142  15.433 -0.3020 -0.2765  0.2524
 5688TIP3   OH238478   0.817   6.613   0.945  0.4827 -0.0364 -0.1217
 5688TIP3    H138479   0.907   6.619   0.977  0.7847  1.6164 -1.2455
 5688TIP3    H238480   0.823   6.625   0.850 -1.0032  1.0336 -0.1125
 5689TIP3   OH238481   3.766   1.654   5.703 -1.2190 -0.5032 -0.3524
 5689TIP3    H138482   3.686   1.697   5.672 -1.1978 -1.2305 -1.4485
 5689TIP3    H238483   3.748   1.560   5.692 -0.2661 -0.6695 -0.4700
 5690TIP3   OH238484   3.125   3.165  16.264 -0.0589  0.2212 -0.5300
 5690TIP3    H138485   3.109   3.183  16.171  0.0533 -0.9361 -0.7855
 5690TIP3    H238486   3.151   3.249  16.301  1.5562  0.3538 -1.8965
 5691TIP3   OH238487   6.310   1.279  11.838 -0.4909  0.3059 -0.3359
 5691TIP3    H138488   6.333   1.219  11.909 -0.6668 -0.0211 -0.5535
 5691TIP3    H238489   6.215   1.273  11.831 -0.3534 -0.7293 -1.5209
 5692TIP3   OH238490   0.419   6.635   1.739 -0.1857 -0.1096  0.3765
 5692TIP3    H138491   0.447   6.721   1.771 -0.5329 -0.1925  0.9162
 5692TIP3    H238492   0.499   6.583   1.736 -0.3314 -0.4954  2.4011
 5693TIP3   OH238493   6.469   3.505  16.587 -0.5639 -0.0521  0.4072
 5693TIP3    H138494   6.502   3.472  16.504  1.9245  1.0301  0.9224
 5693TIP3    H238495   6.511   3.591  16.598 -2.1526  0.5719  1.9869
 5694TIP3   OH238496   4.141   0.303   0.121  0.0330  0.2952  0.2653
 5694TIP3    H138497   4.117   0.348   0.202  0.8317  0.6064  0.3305
 5694TIP3    H238498   4.234   0.280   0.133 -0.2084 -0.8663  0.0071
 5695TIP3   OH238499   2.743   1.931   2.387 -0.2837 -0.0665  0.4432
 5695TIP3    H138500   2.822   1.937   2.333 -0.2291 -0.8496  0.4192
 5695TIP3    H238501   2.679   1.987   2.344  0.7263  1.8040  1.3105
 5696TIP3   OH238502   6.197   0.677  14.162 -0.6217  0.5852  0.1997
 5696TIP3    H138503   6.118   0.626  14.178 -0.2628 -0.4984 -1.3743
 5696TIP3    H238504   6.165   0.766  14.149 -1.4268  0.4489  1.1254
 5697TIP3   OH238505   1.415   4.197  12.870 -0.0998  0.5005  0.0895
 5697TIP3    H138506   1.434   4.162  12.957 -1.4422 -0.0596  0.1600
 5697TIP3    H238507   1.501   4.223  12.835  0.6919 -1.1675  0.7627
 5698TIP3   OH238508   0.373   5.191  14.231  0.6661 -0.7569  0.5828
 5698TIP3    H138509   0.407   5.117  14.180  0.0791 -0.5523 -0.1205
 5698TIP3    H238510   0.293   5.216  14.185  0.1863 -0.4976  1.5551
 5699TIP3   OH238511   3.813   0.742   0.718  0.1529  0.2362 -0.4128
 5699TIP3    H138512   3.776   0.824   0.750  2.2188  0.7507  0.7557
 5699TIP3    H238513   3.902   0.765   0.692  0.0063 -1.1737 -2.2637
 5700TIP3   OH238514   6.376   4.127  13.932  0.5524  0.8657  0.2864
 5700TIP3    H138515   6.437   4.053  13.925  0.5638  0.7522  1.4252
 5700TIP3    H238516   6.364   4.157  13.842  0.4915 -0.5732 -0.1981
 5701TIP3   OH238517   3.509   4.709   3.613  0.3455  0.0292 -0.9017
 5701TIP3    H138518   3.572   4.648   3.650  0.1955  0.7159  0.5410
 5701TIP3    H238519   3.563   4.776   3.570  0.6458  0.8582  0.7133
 5702TIP3   OH238520   0.021   1.261  13.250 -0.3437  0.2325 -0.2047
 5702TIP3    H138521  -0.037   1.184  13.254 -2.3752  1.7508  0.3695
 5702TIP3    H238522   0.109   1.224  13.243 -1.2450 -2.1501  0.4723
 5703TIP3   OH238523   1.749   6.471   5.677  0.2502  0.0618  0.8462
 5703TIP3    H138524   1.669   6.422   5.698 -0.7498  0.5361 -1.7334
 5703TIP3    H238525   1.718   6.555   5.643  1.7388 -0.8903 -3.0872
 5704TIP3   OH238526   6.701   0.666   5.112 -0.5843  0.0984  0.3030
 5704TIP3    H138527   6.787   0.688   5.149  0.0991 -0.5527 -0.8416
 5704TIP3    H238528   6.663   0.604   5.174 -0.0530  0.0979  0.6295
 5705TIP3   OH238529   0.430   3.760   4.004  0.2905 -0.3632  0.2804
 5705TIP3    H138530   0.346   3.771   3.959  0.6491 -1.2634 -0.6312
 5705TIP3    H238531   0.491   3.815   3.955  0.5802 -0.9706 -0.0430
 5706TIP3   OH238532   2.192   1.149   6.053 -0.0706  0.4642 -0.3356
 5706TIP3    H138533   2.146   1.176   6.132 -1.8090 -0.2937 -1.0653
 5706TIP3    H238534   2.139   1.078   6.017  1.8240 -0.6324 -1.0557
 5707TIP3   OH238535   3.995   4.313  14.682 -0.3058 -0.0005  0.0366
 5707TIP3    H138536   4.065   4.336  14.621  0.0703 -1.6989 -0.1868
 5707TIP3    H238537   3.992   4.218  14.681 -1.0297 -0.0216  1.8498
 5708TIP3   OH238538   0.591   1.993   5.642 -0.0374  0.0290 -0.0921
 5708TIP3    H138539   0.628   2.043   5.715  0.6891 -0.3084 -0.2193
 5708TIP3    H238540   0.665   1.979   5.584 -0.0251 -1.9474  0.3677
 5709TIP3   OH238541   6.519   1.454  13.113  0.6884  0.2270 -0.3215
 5709TIP3    H138542   6.578   1.525  13.140 -1.1998  1.8376 -0.2637
 5709TIP3    H238543   6.473   1.429  13.193  0.8748 -0.6148 -0.4763
 5710TIP3   OH238544   0.058   2.678   6.482 -0.2114 -0.4538 -0.0539
 5710TIP3    H138545   0.088   2.767   6.466  1.2300 -0.7462  0.9200
 5710TIP3    H238546   0.004   2.657   6.406  0.6950  0.7018 -1.0460
 5711TIP3   OH238547   4.591   0.931   4.613 -0.0805 -0.2094 -0.1214
 5711TIP3    H138548   4.600   1.014   4.566 -0.5671 -0.2970 -0.3594
 5711TIP3    H238549   4.499   0.927   4.639  0.0047 -0.5443  0.1376
 5712TIP3   OH238550   0.656   1.254  12.936 -0.1116  0.5153 -0.2637
 5712TIP3    H138551   0.639   1.205  13.017 -1.3032 -1.4274 -1.6329
 5712TIP3    H238552   0.689   1.338  12.965  0.6399 -0.5936  2.2297
 5713TIP3   OH238553   4.683   1.931   0.513 -0.1203 -0.1709 -0.2577
 5713TIP3    H138554   4.637   1.941   0.597 -0.8029 -0.4877 -0.5898
 5713TIP3    H238555   4.687   2.020   0.478  1.0575  0.1105  0.5688
 5714TIP3   OH238556   2.026   1.109  17.125  0.1885 -0.1244  0.7510
 5714TIP3    H138557   2.088   1.164  17.077  0.1804  0.9218  1.9171
 5714TIP3    H238558   2.082   1.051  17.177  0.1899 -0.6616  0.1629
 5715TIP3   OH238559   3.031   0.648   0.700  0.1206 -0.4086 -1.0957
 5715TIP3    H138560   3.088   0.712   0.656  0.1275 -0.5536 -1.2967
 5715TIP3    H238561   3.010   0.584   0.632  0.0227 -0.5603 -0.9217
 5716TIP3   OH238562   2.159   2.006   1.944  0.6250  0.2993 -0.2644
 5716TIP3    H138563   2.250   1.988   1.920  0.8635  1.9577 -0.6411
 5716TIP3    H238564   2.108   1.967   1.873  1.1658  1.6394 -1.4162
 5717TIP3   OH238565   4.728   5.173   5.647 -0.3969  0.1529  0.4175
 5717TIP3    H138566   4.672   5.248   5.628 -0.8272  0.2122  1.8661
 5717TIP3    H238567   4.701   5.144   5.734  1.4250 -0.1719  0.9120
 5718TIP3   OH238568   2.087   5.029  12.164 -0.1101  0.0835  0.3626
 5718TIP3    H138569   1.997   4.995  12.168  0.2097 -0.9790 -0.9767
 5718TIP3    H238570   2.117   5.028  12.254 -1.4753  0.5499  0.8491
 5719TIP3   OH238571   2.855   2.273  10.805  0.3998  0.2625 -0.2066
 5719TIP3    H138572   2.867   2.318  10.888 -1.4700 -0.8085  0.6654
 5719TIP3    H238573   2.764   2.245  10.805  1.2750 -2.8023 -1.0507
 5720TIP3   OH238574   4.723   0.212   2.427 -0.6907  0.5654  0.1271
 5720TIP3    H138575   4.800   0.157   2.438 -1.3347 -0.6351 -1.1774
 5720TIP3    H238576   4.662   0.182   2.494 -0.8896 -0.0554 -0.3270
 5721TIP3   OH238577   2.397   5.054   4.215  0.4999 -0.0128 -0.2394
 5721TIP3    H138578   2.390   5.072   4.309  0.9965  1.5045 -0.4889
 5721TIP3    H238579   2.483   5.087   4.190 -0.0027  0.4450 -1.4133
 5722TIP3   OH238580   0.563   3.434   4.357 -0.0573  0.4505  0.2071
 5722TIP3    H138581   0.513   3.353   4.365 -0.4086  0.7830  1.6785
 5722TIP3    H238582   0.607   3.428   4.273  0.8936 -1.8423  0.8417
 5723TIP3   OH238583   5.428   5.547   0.849  0.0469  0.2082  0.4768
 5723TIP3    H138584   5.400   5.456   0.836  1.0421  0.1019 -1.0714
 5723TIP3    H238585   5.356   5.587   0.897 -0.8676 -1.1375  0.2792
 5724TIP3   OH238586   4.428   5.483  14.019  0.8300 -0.0913  0.5829
 5724TIP3    H138587   4.384   5.432  14.087  0.4494  0.1588  0.5311
 5724TIP3    H238588   4.481   5.420  13.971 -0.6379 -0.6878 -0.3004
 5725TIP3   OH238589   0.449   6.652  12.593  0.1173 -0.6382  0.2382
 5725TIP3    H138590   0.476   6.561  12.586  0.0453 -0.5641 -1.1023
 5725TIP3    H238591   0.505   6.698  12.530  2.0559  0.6775  2.7904
 5726TIP3   OH238592   1.961   0.503   0.474 -0.6360  0.1408  0.2115
 5726TIP3    H138593   2.051   0.475   0.488 -1.2885 -1.6966  0.9727
 5726TIP3    H238594   1.925   0.513   0.562 -1.8607 -1.5892 -0.0475
 5727TIP3   OH238595   0.100   2.980   1.014  0.0527 -0.5688  0.0781
 5727TIP3    H138596   0.108   2.901   0.961 -0.7695 -1.2331  0.9305
 5727TIP3    H238597   0.148   3.047   0.965  1.1607 -1.7029 -0.4158
 5728TIP3   OH238598   1.930   3.713  14.692 -0.4390 -0.1629  0.0256
 5728TIP3    H138599   1.930   3.690  14.599 -1.6093  0.4910 -0.1523
 5728TIP3    H238600   1.957   3.805  14.694  0.2947 -0.3819  0.4003
 5729TIP3   OH238601   4.192   6.626   1.568 -0.1367 -0.0421  0.2617
 5729TIP3    H138602   4.222   6.643   1.479 -2.0861  0.2335 -0.3763
 5729TIP3    H238603   4.267   6.646   1.624  1.7784 -2.1925 -1.4461
 5730TIP3   OH238604   3.681   3.200   2.935 -0.3499 -0.2094  0.2765
 5730TIP3    H138605   3.638   3.285   2.930  0.4050  0.1069 -1.1334
 5730TIP3    H238606   3.770   3.219   2.965 -1.0264 -0.8281  2.8621
 5731TIP3   OH238607   5.010   5.994  11.912  0.1181  0.2543 -0.1932
 5731TIP3    H138608   5.049   6.059  11.854  2.5792 -0.6960  0.3499
 5731TIP3    H238609   5.063   5.999  11.992 -0.4180 -1.5821  0.2879
 5732TIP3   OH238610   2.392   2.186   0.325 -0.1095  0.0196  0.2497
 5732TIP3    H138611   2.384   2.136   0.406  0.4352 -1.1053 -0.3677
 5732TIP3    H238612   2.348   2.269   0.343 -0.4621 -0.4272  1.5132
 5733TIP3   OH238613   4.840   2.678   3.255  0.1943  0.1540 -0.1683
 5733TIP3    H138614   4.873   2.646   3.170 -0.7883  0.0663 -0.5260
 5733TIP3    H238615   4.914   2.726   3.293  0.5918  0.3393 -1.1552
 5734TIP3   OH238616   1.479   4.542  16.561 -0.3603 -0.5331 -0.0183
 5734TIP3    H138617   1.556   4.596  16.542  1.3195 -2.2301  1.8471
 5734TIP3    H238618   1.420   4.601  16.609  0.7097  0.1137  0.5108
 5735TIP3   OH238619   1.095   1.444  11.080 -0.1087 -0.1853  0.5761
 5735TIP3    H138620   1.131   1.468  10.994  2.3219  1.3790  1.9874
 5735TIP3    H238621   1.009   1.484  11.082  0.0795  0.3327 -0.8890
 5736TIP3   OH238622   4.857   6.151   4.239 -0.0856  0.0908 -0.1883
 5736TIP3    H138623   4.855   6.058   4.216  0.0473  0.1355 -0.3834
 5736TIP3    H238624   4.916   6.156   4.314  0.0264  0.0388 -0.2732
 5737TIP3   OH238625   5.949   4.248  13.383 -0.0495 -0.0478  0.0652
 5737TIP3    H138626   5.894   4.320  13.351  0.2775  0.3648  0.4243
 5737TIP3    H238627   6.038   4.281  13.373  0.1960 -1.1127 -1.5066
 5738TIP3   OH238628   3.994   1.567  15.898  0.1687 -0.0069  0.2769
 5738TIP3    H138629   4.019   1.585  15.988  1.8325  0.8395 -0.3229
 5738TIP3    H238630   3.939   1.489  15.903  2.1173 -1.3427  1.7918
 5739TIP3   OH238631   4.188   5.262   2.936 -0.4494 -0.1995 -0.2440
 5739TIP3    H138632   4.195   5.279   3.030 -0.5944  2.0088 -0.5918
 5739TIP3    H238633   4.102   5.223   2.925 -1.4338  1.7445  0.2854
 5740TIP3   OH238634   1.065   6.520  10.687 -0.1914  0.1659 -0.3055
 5740TIP3    H138635   1.148   6.505  10.642 -0.7922 -0.1087 -1.3338
 5740TIP3    H238636   1.053   6.615  10.685 -0.7100  0.0747 -1.6260
 5741TIP3   OH238637   6.581   4.194  11.516  0.0293  0.3067  0.3933
 5741TIP3    H138638   6.669   4.159  11.534  0.6773 -0.6546 -4.0797
 5741TIP3    H238639   6.524   4.117  11.515  0.3376  0.0796 -3.1828
 5742TIP3   OH238640   1.447   3.945  15.963 -0.6024  0.2514 -0.1908
 5742TIP3    H138641   1.525   3.949  15.907  0.9670  2.5003  2.0700
 5742TIP3    H238642   1.378   3.986  15.911  0.3170  0.4376 -1.2861
 5743TIP3   OH238643   1.039   2.703  16.842  0.3117  0.2362 -0.4400
 5743TIP3    H138644   1.073   2.645  16.774 -1.6568 -0.7533 -0.6017
 5743TIP3    H238645   1.044   2.791  16.804  1.3028 -0.0525 -1.0040
 5744TIP3   OH238646   6.246   5.395   1.171 -0.5693  0.3020  0.2024
 5744TIP3    H138647   6.199   5.377   1.089  1.1406 -0.8668 -0.5505
 5744TIP3    H238648   6.225   5.321   1.228 -1.4413  0.9174  0.6954
 5745TIP3   OH238649   0.043   0.605   0.255  0.2559  0.3424 -0.1563
 5745TIP3    H138650   0.137   0.595   0.270  0.4805 -0.0491 -1.7005
 5745TIP3    H238651   0.036   0.624   0.162 -1.0727  2.2884  0.3172
 5746TIP3   OH238652   5.197   1.206   3.383  0.0571  0.0439  0.4438
 5746TIP3    H138653   5.208   1.197   3.288 -0.5104  2.3362  0.1211
 5746TIP3    H238654   5.243   1.131   3.420  0.5716 -0.6997 -1.6304
 5747TIP3   OH238655   3.433   6.129  16.914 -0.2266 -0.2552 -0.2094
 5747TIP3    H138656   3.389   6.202  16.869 -0.6186 -0.0266  0.5374
 5747TIP3    H238657   3.523   6.132  16.880 -0.3610  0.2889 -0.5374
 5748TIP3   OH238658   1.232   0.589  14.650 -0.1998 -0.2812 -0.0801
 5748TIP3    H138659   1.173   0.646  14.601  1.0594 -0.0822 -1.3792
 5748TIP3    H238660   1.225   0.504  14.608  0.4781 -0.2466 -0.2617
 5749TIP3   OH238661   3.389   4.828   2.238 -0.2651 -0.6720  0.0459
 5749TIP3    H138662   3.444   4.759   2.201  2.0652  0.2025  1.7055
 5749TIP3    H238663   3.327   4.850   2.169  1.5143 -1.6829 -1.9180
 5750TIP3   OH238664   4.083   1.099   5.078 -0.0729  0.1351 -0.5841
 5750TIP3    H138665   4.021   1.087   5.006 -2.1659 -1.4941  1.3967
 5750TIP3    H238666   4.127   1.014   5.086 -2.4123 -0.8591  2.3058
 5751TIP3   OH238667   2.417   0.153  11.633  0.0672 -0.1090  0.8385
 5751TIP3    H138668   2.412   0.181  11.724 -0.2167  0.2561  0.7111
 5751TIP3    H238669   2.355   0.081  11.627  1.4899 -1.4175  1.3972
 5752TIP3   OH238670   5.862   5.258  13.537 -0.0973  0.0888  0.2683
 5752TIP3    H138671   5.837   5.168  13.554  0.5590 -0.2107 -0.3165
 5752TIP3    H238672   5.936   5.251  13.475  1.1957  0.9558  1.6861
 5753TIP3   OH238673   5.195   1.359  15.056  0.1662 -0.0225  0.0919
 5753TIP3    H138674   5.184   1.268  15.027  1.6919 -0.0723 -0.3892
 5753TIP3    H238675   5.194   1.355  15.151  1.5953 -0.7400  0.0850
 5754TIP3   OH238676   2.264   0.483   5.429 -0.1768 -0.1102  0.4189
 5754TIP3    H138677   2.223   0.494   5.343 -1.0528  1.9365  1.0592
 5754TIP3    H238678   2.202   0.430   5.479 -0.2033 -0.3262  0.1582
 5755TIP3   OH238679   4.424   4.186  15.590 -0.5908 -1.1170  0.3231
 5755TIP3    H138680   4.414   4.109  15.534  0.2587 -0.2566 -1.0663
 5755TIP3    H238681   4.371   4.254  15.547  0.9290 -0.1422 -0.0842
 5756TIP3   OH238682   6.483   4.240  16.572  0.2828 -0.0879 -0.2925
 5756TIP3    H138683   6.437   4.270  16.651 -0.0958 -0.9111 -0.2004
 5756TIP3    H238684   6.575   4.261  16.589 -0.0105  1.2884 -0.3436
 5757TIP3   OH238685   3.331   0.391   5.629  0.7163 -0.2818 -0.0651
 5757TIP3    H138686   3.326   0.436   5.714 -0.1604 -1.1179  0.3346
 5757TIP3    H238687   3.300   0.456   5.566  1.3955  0.3541  0.2477
 5758TIP3   OH238688   1.969   0.869   3.549 -0.4262  0.0783  1.0286
 5758TIP3    H138689   1.949   0.871   3.455 -3.6038 -0.8676  1.6262
 5758TIP3    H238690   1.958   0.959   3.578 -0.0320  0.2604  0.6266
 5759TIP3   OH238691   4.580   0.340  12.409 -0.1821 -0.0765  0.1109
 5759TIP3    H138692   4.556   0.261  12.458  0.9036 -0.7353 -0.3919
 5759TIP3    H238693   4.647   0.310  12.348  0.6896  1.3627  0.3431
 5760TIP3   OH238694   0.891   0.316  14.117 -0.1586 -0.1204  0.0638
 5760TIP3    H138695   0.965   0.264  14.147 -0.9710 -0.5537  1.3715
 5760TIP3    H238696   0.863   0.364  14.195  0.1676  1.7829 -0.9575
 5761TIP3   OH238697   5.118   2.654  14.995 -0.4901 -0.2260  0.1081
 5761TIP3    H138698   5.081   2.580  15.042 -0.4190 -0.4238 -0.1456
 5761TIP3    H238699   5.147   2.715  15.063  1.1173 -1.2313  0.3464
 5762TIP3   OH238700   0.263   0.285   1.079  0.3421 -0.0698  0.2222
 5762TIP3    H138701   0.291   0.283   0.987 -1.7018 -3.3572 -0.4161
 5762TIP3    H238702   0.295   0.202   1.115  0.7600  1.0047  2.3757
 5763TIP3   OH238703   4.935   0.554   5.800 -0.3101 -0.0215  0.0886
 5763TIP3    H138704   5.007   0.493   5.783  0.4660  1.0560 -0.5508
 5763TIP3    H238705   4.876   0.506   5.858 -0.2898 -1.8070 -1.3150
 5764TIP3   OH238706   4.165   2.180  16.170  0.1547  0.1553  0.1629
 5764TIP3    H138707   4.128   2.257  16.212 -1.3833 -0.5007  0.0632
 5764TIP3    H238708   4.102   2.110  16.189  1.3291 -0.9829 -0.0662
 5765TIP3   OH238709   0.677   2.406   5.592 -0.3237  0.6189 -0.0321
 5765TIP3    H138710   0.626   2.480   5.623  1.0388  1.5900 -0.0284
 5765TIP3    H238711   0.765   2.442   5.577  0.2373 -0.8800 -0.5052
 5766TIP3   OH238712   2.794   1.747   3.034 -1.0752 -0.5041 -0.2034
 5766TIP3    H138713   2.814   1.724   3.125 -0.4027 -0.9684 -0.4739
 5766TIP3    H238714   2.788   1.664   2.988 -0.0486 -0.2181 -0.8758
 5767TIP3   OH238715   3.197   3.414  15.084 -0.0900 -0.5422  0.9690
 5767TIP3    H138716   3.102   3.399  15.082 -0.3755  1.1780 -0.1801
 5767TIP3    H238717   3.213   3.461  15.166 -0.7666  2.1154 -0.3509
 5768TIP3   OH238718   0.107   1.126  12.096  0.3301  0.0583 -0.0992
 5768TIP3    H138719   0.094   1.031  12.089  0.7375  0.0159 -0.3469
 5768TIP3    H238720   0.087   1.146  12.188  0.3178 -0.2811 -0.0255
 5769TIP3   OH238721   5.285   1.300  11.458 -0.6417  0.6774  0.5107
 5769TIP3    H138722   5.362   1.305  11.515  1.3881  0.0861 -2.0980
 5769TIP3    H238723   5.271   1.390  11.428  0.7674  0.3377 -1.2130
 5770TIP3   OH238724   0.801   3.555   3.818 -0.2283  0.1832  0.1754
 5770TIP3    H138725   0.857   3.560   3.896 -0.3817  4.5587  0.1205
 5770TIP3    H238726   0.826   3.631   3.766 -3.2957 -0.1369 -1.8726
 5771TIP3   OH238727   1.554   5.675  16.092  0.3384 -0.3625 -0.1122
 5771TIP3    H138728   1.512   5.732  16.156  0.4278 -0.3559 -0.0608
 5771TIP3    H238729   1.488   5.664  16.023 -0.4869 -1.8861  0.8682
 5772TIP3   OH238730   6.747   4.290  13.557 -0.0994 -0.5433 -0.0421
 5772TIP3    H138731   6.770   4.233  13.483  1.5977 -0.7323  0.6134
 5772TIP3    H238732   6.793   4.372  13.539 -0.8750 -0.0731  0.0772
 5773TIP3   OH238733   3.757   0.769  13.124  0.4660  0.2554 -0.3030
 5773TIP3    H138734   3.837   0.794  13.170  0.4651 -0.5341  0.1509
 5773TIP3    H238735   3.697   0.842  13.138  1.2735  1.0655 -1.0650
 5774TIP3   OH238736   4.205   3.878   5.584  0.2900 -0.5050  0.0221
 5774TIP3    H138737   4.218   3.787   5.610 -0.3233 -0.9972 -1.3354
 5774TIP3    H238738   4.292   3.918   5.590  0.4856 -1.0646  1.0221
 5775TIP3   OH238739   3.574   5.009  15.192  0.0894  0.3443  0.1322
 5775TIP3    H138740   3.609   4.960  15.266  0.7278  0.3282 -0.1773
 5775TIP3    H238741   3.606   5.098  15.206 -1.2071  0.7227  0.7869
 5776TIP3   OH238742   2.744   2.791   0.006 -0.2757  0.5956  0.0122
 5776TIP3    H138743   2.684   2.855  -0.031 -0.7008 -0.8803 -1.9249
 5776TIP3    H238744   2.698   2.755   0.082 -1.0147  0.8708 -0.3044
 5777TIP3   OH238745   5.379   2.310   1.013  0.1259 -0.0313  0.7191
 5777TIP3    H138746   5.361   2.216   1.012 -1.1612  0.1821 -2.0797
 5777TIP3    H238747   5.472   2.317   1.032  0.3409 -1.9178  0.4709
 5778TIP3   OH238748   3.702   5.330   3.947 -0.1285  0.4343  0.3131
 5778TIP3    H138749   3.607   5.345   3.948 -0.3471 -0.5370 -2.2172
 5778TIP3    H238750   3.740   5.417   3.959 -1.3179  0.8297  1.3811
 5779TIP3   OH238751   1.022   3.271  15.875 -0.1603 -0.0504 -0.5376
 5779TIP3    H138752   0.943   3.318  15.850 -1.4657 -0.9093  1.7990
 5779TIP3    H238753   1.059   3.323  15.946  0.1652 -0.8335 -0.1299
 5780TIP3   OH238754   4.906   3.592   2.970 -0.3207  0.4136 -0.5999
 5780TIP3    H138755   4.945   3.546   3.044 -0.5403  0.8322 -0.2212
 5780TIP3    H238756   4.827   3.542   2.949  0.1433 -0.1442 -1.0453
 5781TIP3   OH238757   4.077   3.028   4.587  0.2887 -0.0218 -0.4187
 5781TIP3    H138758   4.166   3.042   4.556 -0.8443  0.6796 -3.5112
 5781TIP3    H238759   4.030   3.109   4.564 -1.2627 -0.5591  0.7365
 5782TIP3   OH238760   1.757   6.320   3.419  0.0255 -0.1441  0.0203
 5782TIP3    H138761   1.731   6.269   3.496 -2.2226  0.6601 -0.1683
 5782TIP3    H238762   1.849   6.340   3.433  0.3102 -2.1640  1.2771
 5783TIP3   OH238763   2.228   4.829   1.930 -0.1579 -0.3582  0.8046
 5783TIP3    H138764   2.252   4.870   1.847  0.0372 -0.4988  0.7912
 5783TIP3    H238765   2.178   4.752   1.905  1.5234 -1.4652  0.7551
 5784TIP3   OH238766   5.778   4.672   1.799 -0.0934 -0.1732  0.2685
 5784TIP3    H138767   5.850   4.614   1.773  0.0602 -0.4856  1.3981
 5784TIP3    H238768   5.820   4.740   1.851 -0.2597  1.0239 -1.1449
 5785TIP3   OH238769   2.357   0.719   5.727  0.6350  0.8046 -0.2645
 5785TIP3    H138770   2.370   0.734   5.633  1.3259 -1.4521 -0.5725
 5785TIP3    H238771   2.444   0.695   5.760  0.2626  0.9176  0.8194
 5786TIP3   OH238772   3.821   0.255   2.892  0.3395  0.1365 -0.6842
 5786TIP3    H138773   3.742   0.295   2.928  0.0364  0.2108 -1.4192
 5786TIP3    H238774   3.867   0.219   2.968 -0.6568 -0.3603 -0.3054
 5787TIP3   OH238775   1.751   1.611   1.790  0.0112 -0.1098 -0.1016
 5787TIP3    H138776   1.805   1.627   1.867  0.7069 -0.1252 -0.5855
 5787TIP3    H238777   1.661   1.612   1.823  0.3220 -0.4361  0.7681
 5788TIP3   OH238778   3.921   3.483   0.321 -0.4578 -0.0830  0.0388
 5788TIP3    H138779   3.826   3.485   0.336 -0.6162  0.6888 -1.0384
 5788TIP3    H238780   3.938   3.394   0.289 -0.6743 -0.5243  1.1445
 5789TIP3   OH238781   0.398   4.576  13.303 -0.3073 -0.4561 -0.4667
 5789TIP3    H138782   0.399   4.483  13.326  0.5670 -0.1554  0.7774
 5789TIP3    H238783   0.449   4.582  13.223  0.6098 -0.8997  0.0839
 5790TIP3   OH238784   4.292   6.478  11.921 -0.0439 -0.6306 -0.6821
 5790TIP3    H138785   4.214   6.510  11.967  0.1163 -0.1961 -0.7157
 5790TIP3    H238786   4.268   6.483  11.828 -0.4230 -1.6479 -0.6539
 5791TIP3   OH238787   2.007   5.227  14.783  0.2090 -0.1322  0.5179
 5791TIP3    H138788   2.040   5.168  14.715  0.1732  0.4698 -0.0193
 5791TIP3    H238789   2.085   5.259  14.829  0.2004 -1.0492  1.1933
 5792TIP3   OH238790   0.270   6.051  12.170 -0.2071  0.3915  0.0626
 5792TIP3    H138791   0.228   6.018  12.090 -1.4047  0.4578  0.6465
 5792TIP3    H238792   0.269   5.977  12.230 -3.0394  1.4500  1.4287
 5793TIP3   OH238793   6.121   5.999   5.850  0.1384 -0.6046  0.1129
 5793TIP3    H138794   6.162   5.990   5.936 -2.1783  0.1876  1.3268
 5793TIP3    H238795   6.153   6.083   5.817 -1.6419  0.7326  1.7073
 5794TIP3   OH238796   3.963   3.254   5.472 -0.3222  0.2483  0.6609
 5794TIP3    H138797   3.905   3.199   5.526  1.0761 -0.6676  1.2729
 5794TIP3    H238798   3.985   3.328   5.529 -0.9265  0.6258  0.4077
 5795TIP3   OH238799   4.946   5.747  14.696  0.1700 -0.1870  0.1323
 5795TIP3    H138800   4.953   5.722  14.789  1.4335  1.9918  0.6826
 5795TIP3    H238801   4.858   5.783  14.687 -0.2875 -1.2627  0.2536
 5796TIP3   OH238802   0.012   5.802   5.713 -0.4425 -0.1303  0.1882
 5796TIP3    H138803   0.048   5.831   5.629 -0.4130 -1.7994 -0.4081
 5796TIP3    H238804  -0.083   5.814   5.703 -0.4458 -0.4018 -0.1208
 5797TIP3   OH238805   5.428   3.574  15.353 -0.1261  0.2380  0.5532
 5797TIP3    H138806   5.406   3.664  15.327 -1.2845 -0.6698 -1.6654
 5797TIP3    H238807   5.351   3.543  15.400 -0.1240  0.0403  0.4232
 5798TIP3   OH238808   5.886   3.368  13.369  0.2842 -0.0348 -0.2645
 5798TIP3    H138809   5.968   3.336  13.408 -0.3405 -0.5775  0.6216
 5798TIP3    H238810   5.874   3.313  13.291 -0.4185 -1.5394  0.8661
 5799TIP3   OH238811   1.617   3.130   3.846 -0.3233  0.4346 -0.3482
 5799TIP3    H138812   1.685   3.153   3.909 -0.5954 -0.3040  0.2163
 5799TIP3    H238813   1.548   3.193   3.861  0.0294  0.8849 -0.5940
 5800TIP3   OH238814   2.199   1.121  14.213  0.0556 -0.5941  0.1677
 5800TIP3    H138815   2.190   1.205  14.258  1.8270  0.0381 -0.5932
 5800TIP3    H238816   2.123   1.116  14.155 -1.5351 -0.8176  2.2473
 5801TIP3   OH238817   1.411   5.418  15.161 -0.3192  0.8339 -0.1232
 5801TIP3    H138818   1.418   5.387  15.251  1.0944 -0.2368 -0.5865
 5801TIP3    H238819   1.340   5.366  15.123  3.1955 -3.2107 -1.4061
 5802TIP3   OH238820   6.249   0.563   4.632  0.1866  0.1925  0.0463
 5802TIP3    H138821   6.309   0.493   4.605 -2.1202 -2.0754  0.5403
 5802TIP3    H238822   6.273   0.583   4.722  1.0993  0.2893 -0.2204
 5803TIP3   OH238823   5.874   3.911  11.401  0.1504  0.3077 -0.3895
 5803TIP3    H138824   5.865   3.859  11.481  3.5287 -2.6773 -1.8399
 5803TIP3    H238825   5.808   3.876  11.342 -0.9699  1.1538  0.3230
 5804TIP3   OH238826   3.788   1.822  12.794 -0.0497 -0.4244  0.4966
 5804TIP3    H138827   3.775   1.821  12.699  2.7719 -0.6063  0.0802
 5804TIP3    H238828   3.837   1.742  12.813 -0.3516 -0.2517  2.0897
 5805TIP3   OH238829   4.490   1.329   2.104 -0.2046  0.0765 -0.3299
 5805TIP3    H138830   4.523   1.272   2.173  0.1640 -0.3889 -0.8902
 5805TIP3    H238831   4.468   1.410   2.149  3.7196  1.1884 -0.2867
 5806TIP3   OH238832   0.916   3.214  16.431  0.5227 -0.4544  0.0438
 5806TIP3    H138833   0.909   3.298  16.477 -1.5049  0.3105 -1.5603
 5806TIP3    H238834   0.840   3.164  16.461 -0.8886  0.0989 -2.4683
 5807TIP3   OH238835   4.083   4.462  13.024  0.3427  0.3201  0.4452
 5807TIP3    H138836   4.019   4.528  12.996 -0.8428 -0.7410  0.6274
 5807TIP3    H238837   4.106   4.488  13.113  0.7771  1.1626  0.0965
 5808TIP3   OH238838   1.843   1.663   4.208  0.4018 -0.0598  0.7906
 5808TIP3    H138839   1.820   1.689   4.297 -1.0133 -0.0928  0.4622
 5808TIP3    H238840   1.775   1.600   4.183  0.1309  0.7760 -0.6847
 5809TIP3   OH238841   0.020   0.154   6.061 -0.0933 -0.1780  0.4704
 5809TIP3    H138842  -0.054   0.209   6.037 -1.0537 -0.8732  1.7284
 5809TIP3    H238843   0.097   0.210   6.051 -0.8121  0.6484 -0.5439
 5810TIP3   OH238844   0.839   3.633   0.726 -0.3285  0.4223  0.8362
 5810TIP3    H138845   0.772   3.694   0.694  1.7166  2.1669 -0.2974
 5810TIP3    H238846   0.893   3.687   0.784  1.4880 -0.3095 -0.1453
 5811TIP3   OH238847   5.829   1.199  12.630 -0.3555  0.0989  0.1533
 5811TIP3    H138848   5.740   1.231  12.614 -0.5660 -0.3247  0.4384
 5811TIP3    H238849   5.865   1.260  12.695 -0.1101  0.8048 -0.6432
 5812TIP3   OH238850   5.544   2.408  11.914  0.0963  0.3964 -0.0660
 5812TIP3    H138851   5.637   2.409  11.937 -0.3434 -1.6441  1.9408
 5812TIP3    H238852   5.517   2.500  11.923  1.8625  1.0069 -0.6012
 5813TIP3   OH238853   6.545   6.689  16.575 -0.3261  0.1286  0.2868
 5813TIP3    H138854   6.552   6.646  16.489 -3.5325  0.0000  0.0263
 5813TIP3    H238855   6.568   6.780  16.558  1.7190 -0.4447 -0.1454
 5814TIP3   OH238856   5.013   3.601  13.562 -0.1507  0.9705 -0.0099
 5814TIP3    H138857   5.072   3.664  13.521 -0.5256  1.0123 -0.4950
 5814TIP3    H238858   5.065   3.561  13.632  0.3505  1.2286 -0.2306
 5815TIP3   OH238859   4.128   5.901   4.547 -0.0055 -0.1849 -0.3129
 5815TIP3    H138860   4.045   5.948   4.548  0.3340  0.4281 -0.6039
 5815TIP3    H238861   4.183   5.947   4.611 -0.4955 -1.7058  1.2171
 5816TIP3   OH238862   3.300   4.702   3.837 -0.2540 -0.4273 -0.0569
 5816TIP3    H138863   3.337   4.760   3.905 -0.7845  0.9313 -0.9139
 5816TIP3    H238864   3.352   4.721   3.759 -4.1559  3.2199 -1.9224
 5817TIP3   OH238865   1.627   6.118  11.323 -0.3719 -0.6626  0.1140
 5817TIP3    H138866   1.702   6.113  11.264 -0.5944  0.1971 -0.2487
 5817TIP3    H238867   1.646   6.193  11.379 -0.7959 -0.6585  0.2516
 5818TIP3   OH238868   3.774   6.366  14.046  0.4238 -0.3412 -0.0217
 5818TIP3    H138869   3.843   6.433  14.038 -0.8608  1.4497  3.1125
 5818TIP3    H238870   3.783   6.333  14.135 -3.3783  0.6780  0.8379
 5819TIP3   OH238871   2.175   3.605  12.666  0.3083 -0.2008 -0.4695
 5819TIP3    H138872   2.234   3.537  12.698  0.7553 -0.1666 -1.2025
 5819TIP3    H238873   2.156   3.658  12.743  1.5470  0.0086 -0.2889
 5820TIP3   OH238874   0.020   1.838   1.859 -0.3582 -0.1743 -0.5576
 5820TIP3    H138875   0.054   1.914   1.813  2.5184 -1.6740 -0.9962
 5820TIP3    H238876   0.006   1.772   1.791 -0.9660 -0.6919  0.0495
 5821TIP3   OH238877   0.058   3.895   4.612 -0.0812 -0.4316  0.3549
 5821TIP3    H138878   0.113   3.895   4.690 -2.0144  0.7457  1.7659
 5821TIP3    H238879  -0.010   3.960   4.631 -0.4475  0.0605 -2.4113
 5822TIP3   OH238880   4.044   4.594   1.749  0.3781 -0.3628 -0.7636
 5822TIP3    H138881   4.117   4.616   1.806 -0.7823  0.9706  0.2510
 5822TIP3    H238882   4.038   4.668   1.689  0.5385 -0.9838 -1.5560
 5823TIP3   OH238883   1.763   1.369   0.981  0.3652 -0.7289  0.2226
 5823TIP3    H138884   1.811   1.296   1.020  0.9053 -0.1044  0.7473
 5823TIP3    H238885   1.687   1.329   0.939  0.7769 -1.6114  0.3149
 5824TIP3   OH238886   2.184   6.782  12.457 -0.7024  0.2994  0.1333
 5824TIP3    H138887   2.142   6.835  12.525 -1.5965 -0.5048  0.2222
 5824TIP3    H238888   2.276   6.780  12.481 -0.3754  3.1073 -0.7191
 5825TIP3   OH238889   6.509   0.593   1.376 -0.4810 -0.3221  0.3168
 5825TIP3    H138890   6.414   0.592   1.368 -0.7198 -1.3461  2.8463
 5825TIP3    H238891   6.529   0.674   1.422 -0.2724 -0.9607  1.3516
 5826TIP3   OH238892   3.679   3.879  14.628  0.1265 -0.1100  0.1333
 5826TIP3    H138893   3.605   3.895  14.687 -1.0496  0.2195 -1.3937
 5826TIP3    H238894   3.733   3.957  14.635 -1.2002  0.9257 -0.9176
 5827TIP3   OH238895   5.395   0.709  15.739 -0.2253  0.1304 -0.3151
 5827TIP3    H138896   5.442   0.692  15.821 -0.4046  0.9672 -0.0263
 5827TIP3    H238897   5.453   0.676  15.671  0.8935  1.3503  0.0230
 5828TIP3   OH238898   5.175   4.765  13.842 -0.0572  0.1635  0.0710
 5828TIP3    H138899   5.123   4.726  13.913 -0.0500  0.4253  0.2191
 5828TIP3    H238900   5.122   4.752  13.763 -0.8497  1.4386  0.3945
 5829TIP3   OH238901   4.167   0.338  12.529 -0.1398 -0.5251 -1.0691
 5829TIP3    H138902   4.134   0.393  12.458 -0.9817  0.6653  0.2266
 5829TIP3    H238903   4.237   0.389  12.569  0.7769 -1.4679 -1.4309
 5830TIP3   OH238904   3.193   0.963   1.967 -0.4848 -0.2099 -0.0195
 5830TIP3    H138905   3.206   1.058   1.967 -0.7291 -0.1697  0.5040
 5830TIP3    H238906   3.259   0.929   1.908  1.1458  0.0912  1.5737
 5831TIP3   OH238907   4.182   4.780  14.266 -0.6705  0.1148  0.0918
 5831TIP3    H138908   4.237   4.766  14.343  2.2444 -0.3879 -1.9844
 5831TIP3    H238909   4.144   4.694  14.248  2.1753 -0.9073 -1.5297
 5832TIP3   OH238910   6.352   5.163   2.184 -0.0298  0.4760 -0.2624
 5832TIP3    H138911   6.319   5.232   2.126  0.3942  0.8307 -0.0891
 5832TIP3    H238912   6.439   5.143   2.150 -0.6769 -0.9342 -1.1258
 5833TIP3   OH238913   6.373   5.100  13.439  0.5562 -0.4267 -0.1091
 5833TIP3    H138914   6.461   5.062  13.429  0.8990  0.6882 -1.3712
 5833TIP3    H238915   6.384   5.191  13.414 -0.5499  0.2156  1.6494
 5834TIP3   OH238916   5.012   0.704  10.610 -0.4378 -0.0844 -0.4164
 5834TIP3    H138917   4.972   0.791  10.615  1.0540  0.7111 -2.0692
 5834TIP3    H238918   5.034   0.683  10.701  1.1405  2.2115 -0.2267
 5835TIP3   OH238919   5.186   2.550   4.453 -0.0384  0.3550 -1.0481
 5835TIP3    H138920   5.271   2.515   4.478  1.1803  2.2194 -2.4199
 5835TIP3    H238921   5.206   2.635   4.414 -2.6488  1.4036 -0.2001
 5836TIP3   OH238922   2.803   0.220  13.869 -0.4907 -0.1163 -0.1332
 5836TIP3    H138923   2.782   0.168  13.791 -1.2039  1.5990 -1.1122
 5836TIP3    H238924   2.724   0.214  13.923  0.4971 -2.4374  1.1443
 5837TIP3   OH238925   4.238   1.747   3.019 -0.0457 -0.2614  0.2548
 5837TIP3    H138926   4.262   1.677   2.959  0.6177  0.3755 -0.2341
 5837TIP3    H238927   4.254   1.828   2.970 -1.5261  0.2202  0.5474
 5838TIP3   OH238928   6.621   3.334   0.261  0.4236 -0.3379  0.4008
 5838TIP3    H138929   6.564   3.259   0.280  1.0482 -1.2266 -1.1548
 5838TIP3    H238930   6.658   3.358   0.347 -1.1381 -0.6792  1.1848
 5839TIP3   OH238931   1.293   1.449  11.326 -0.0262 -0.5984 -0.4182
 5839TIP3    H138932   1.357   1.388  11.290 -0.9982 -2.0639  0.2812
 5839TIP3    H238933   1.220   1.446  11.264  1.0308  1.9682 -1.8471
 5840TIP3   OH238934   4.351   0.150  14.018  0.3671 -0.5733 -0.4586
 5840TIP3    H138935   4.325   0.100  14.095  2.6890  1.2128  1.5697
 5840TIP3    H238936   4.427   0.104  13.983  2.1773  1.1269  1.0972
 5841TIP3   OH238937   5.963   6.275   0.441  0.0722 -0.1940  0.2612
 5841TIP3    H138938   5.882   6.293   0.394  2.0151  1.9603 -2.3774
 5841TIP3    H238939   5.980   6.182   0.427 -2.5042 -0.9620  1.8623
 5842TIP3   OH238940   2.194   5.151   2.398  0.0408 -0.1139  0.1091
 5842TIP3    H138941   2.247   5.185   2.470  1.1756 -0.9503 -0.3193
 5842TIP3    H238942   2.249   5.085   2.357 -1.4692 -1.2342 -0.1461
 5843TIP3   OH238943   0.030   6.238   4.321  0.3056 -0.2137  0.2884
 5843TIP3    H138944  -0.030   6.166   4.339  0.2393 -0.2009  0.1156
 5843TIP3    H238945  -0.012   6.287   4.250  0.5577 -0.2510  0.1144
 5844TIP3   OH238946   5.419   3.421   4.736  0.3772  0.0736  0.6929
 5844TIP3    H138947   5.326   3.403   4.750  0.4340 -0.1680  0.7591
 5844TIP3    H238948   5.431   3.511   4.767 -0.7159  1.6467 -3.1134
 5845TIP3   OH238949   3.609   0.396   0.139  0.5002 -0.8378 -0.3828
 5845TIP3    H138950   3.544   0.464   0.123  1.1566 -0.0444  0.2863
 5845TIP3    H238951   3.624   0.399   0.234  4.2114  1.5114 -0.9414
 5846TIP3   OH238952   2.100   1.302  10.877  0.0923  0.1315  0.0106
 5846TIP3    H138953   2.036   1.233  10.861  0.6741 -0.5114  0.4017
 5846TIP3    H238954   2.078   1.371  10.815 -0.5961 -0.3459 -0.2772
 5847TIP3   OH238955   0.799   0.428   2.049 -0.2060 -0.1451 -0.4645
 5847TIP3    H138956   0.710   0.396   2.038  0.4977 -2.2012 -0.4916
 5847TIP3    H238957   0.841   0.362   2.105 -0.1387  3.4523  3.9507
 5848TIP3   OH238958   1.591   3.833   0.166  0.4438 -0.6141 -0.1275
 5848TIP3    H138959   1.612   3.743   0.191  1.3138 -0.4801 -0.3596
 5848TIP3    H238960   1.616   3.886   0.241 -0.0150 -0.5547 -0.0127
 5849TIP3   OH238961   1.806   1.937   4.125  0.2321 -0.6189  0.4479
 5849TIP3    H138962   1.809   1.842   4.139  0.6188 -0.4428  1.6570
 5849TIP3    H238963   1.896   1.959   4.098  0.2189 -0.5577  0.4546
 5850TIP3   OH238964   2.676   0.281   5.116 -0.0021  0.2980  0.0534
 5850TIP3    H138965   2.770   0.296   5.127 -0.2813  1.3366  1.1999
 5850TIP3    H238966   2.651   0.338   5.043  0.4790 -0.9170 -1.0711
 5851TIP3   OH238967   0.124   3.948   0.273 -0.2225  0.4678  0.5282
 5851TIP3    H138968   0.147   3.884   0.340  1.2969  0.8876  0.4334
 5851TIP3    H238969   0.199   4.008   0.271  0.3916 -0.3199 -2.4701
 5852TIP3   OH238970   3.334   6.706   6.307  0.2998  0.4144 -0.0684
 5852TIP3    H138971   3.327   6.763   6.384  1.8833  1.5898 -0.7562
 5852TIP3    H238972   3.420   6.665   6.316  0.0513 -0.2489 -0.6703
 5853TIP3   OH238973   3.178   1.949  12.196  0.3225  0.2759  0.1197
 5853TIP3    H138974   3.102   1.903  12.232  0.6783 -0.0864  0.4113
 5853TIP3    H238975   3.144   1.996  12.120  0.3013 -1.8950 -1.2573
 5854TIP3   OH238976   3.923   2.347   1.330  0.3925 -0.5464 -0.3377
 5854TIP3    H138977   3.848   2.289   1.314  0.8068 -1.3307  0.5629
 5854TIP3    H238978   3.999   2.295   1.304  0.8046 -0.5806  0.9095
 5855TIP3   OH238979   2.203   5.587  14.999 -0.4131  0.6138 -0.2091
 5855TIP3    H138980   2.299   5.588  14.991 -0.3025  0.7816  1.0433
 5855TIP3    H238981   2.182   5.672  15.036 -0.5849 -1.2191  4.2401
 5856TIP3   OH238982   3.271   4.948  16.386  0.0592 -0.1076  0.3546
 5856TIP3    H138983   3.309   4.981  16.304 -1.2187  2.0994  0.6138
 5856TIP3    H238984   3.248   5.027  16.435 -0.1378 -1.4106  2.4107
 5857TIP3   OH238985   5.945   5.413   4.724 -0.9753  0.0592 -0.2216
 5857TIP3    H138986   5.989   5.472   4.784  0.3385 -1.1126 -0.0133
 5857TIP3    H238987   5.956   5.326   4.762 -2.6544 -0.3751 -0.6610
 5858TIP3   OH238988   0.718   4.042  15.281  0.6226 -0.3984  0.0257
 5858TIP3    H138989   0.694   4.130  15.253 -2.1472 -0.5762  1.5913
 5858TIP3    H238990   0.701   3.988  15.204 -0.6267  0.0419 -0.0324
 5859TIP3   OH238991   2.562   1.723   0.654  0.0716 -0.1715 -0.6563
 5859TIP3    H138992   2.516   1.735   0.737 -1.7103 -1.2193 -1.4685
 5859TIP3    H238993   2.622   1.649   0.670 -2.5280 -2.4752 -1.1804
 5860TIP3   OH238994   4.268   5.805  12.748  0.2519  0.8138  0.2717
 5860TIP3    H138995   4.190   5.848  12.712 -0.0051  0.0106 -0.1440
 5860TIP3    H238996   4.308   5.871  12.804  0.7778  2.1598 -1.6527
 5861TIP3   OH238997   4.695   3.842   0.738 -0.0259  0.0683  0.7324
 5861TIP3    H138998   4.784   3.836   0.702 -1.0623 -1.8457 -1.6804
 5861TIP3    H238999   4.640   3.857   0.661 -1.8881  0.3292  2.1048
 5862TIP3   OH239000   1.408   5.938  10.770 -0.6215 -0.0073 -0.3814
 5862TIP3    H139001   1.403   5.999  10.844 -0.8250  1.9108 -1.9573
 5862TIP3    H239002   1.433   5.854  10.810  2.1002  1.6392  1.5090
 5863TIP3   OH239003   6.083   4.791  12.108 -0.6915  0.6444  0.2169
 5863TIP3    H139004   6.059   4.779  12.200 -0.4522  2.7144  0.5700
 5863TIP3    H239005   6.179   4.783  12.107 -0.7368  0.0270  0.0279
 5864TIP3   OH239006   0.447   3.006   5.296  0.1908  0.3558  0.2932
 5864TIP3    H139007   0.492   2.928   5.331 -1.3984 -0.9514 -0.4896
 5864TIP3    H239008   0.369   2.971   5.253  1.1695  2.0803 -3.0432
 5865TIP3   OH239009   4.857   0.918   2.386  0.2548 -0.0668  0.1819
 5865TIP3    H139010   4.776   0.941   2.430  0.6916 -1.3013  1.6566
 5865TIP3    H239011   4.897   0.851   2.441  0.4488 -2.1957 -2.4640
 5866TIP3   OH239012   5.255   0.519  12.828  0.3276  0.1243 -0.0146
 5866TIP3    H139013   5.282   0.472  12.750 -1.4973 -1.1537  0.1070
 5866TIP3    H239014   5.337   0.543  12.871  1.3203 -2.3610 -0.4329
 5867TIP3   OH239015   1.859   5.538   2.249 -0.6640 -0.4220 -0.3342
 5867TIP3    H139016   1.906   5.621   2.246 -0.2599 -0.6768 -1.9979
 5867TIP3    H239017   1.928   5.472   2.246 -1.0824 -0.8031 -2.6397
 5868TIP3   OH239018   1.231   4.741  13.177 -0.1916 -0.0284 -0.6492
 5868TIP3    H139019   1.263   4.666  13.228  1.6080  1.0391 -0.1448
 5868TIP3    H239020   1.140   4.751  13.203  0.4854  0.0017  1.7872
 5869TIP3   OH239021   3.344   0.485  15.312  0.0608  0.1983 -0.2102
 5869TIP3    H139022   3.342   0.422  15.240 -0.4204  0.6475 -0.5911
 5869TIP3    H239023   3.360   0.431  15.390 -1.6949 -0.5621 -0.3493
 5870TIP3   OH239024   0.517   6.382  12.626 -0.2183  0.4110 -0.5068
 5870TIP3    H139025   0.532   6.402  12.718 -0.6724  0.1169 -0.3661
 5870TIP3    H239026   0.523   6.286  12.621  2.6071  0.5873 -1.2874
 5871TIP3   OH239027   3.407   1.129   0.787  0.4874 -0.1403  0.0209
 5871TIP3    H139028   3.457   1.160   0.712 -1.5425  0.7344 -1.0182
 5871TIP3    H239029   3.374   1.209   0.829  0.1649 -0.6814  0.8097
 5872TIP3   OH239030   4.872   4.255  13.970  0.1491 -0.6204 -0.0329
 5872TIP3    H139031   4.794   4.304  13.998 -0.0564 -1.0992  0.2365
 5872TIP3    H239032   4.937   4.323  13.949  0.0785 -0.2411  0.9530
 5873TIP3   OH239033   6.171   6.416  12.291  1.0005 -0.0987  0.2868
 5873TIP3    H139034   6.259   6.399  12.258  1.1836  0.8354  0.2755
 5873TIP3    H239035   6.153   6.506  12.265  0.2332 -0.1217  0.7258
 5874TIP3   OH239036   4.281   3.822  13.279 -0.2245 -0.0794 -0.2243
 5874TIP3    H139037   4.226   3.781  13.346  1.2893 -0.2164  0.9585
 5874TIP3    H239038   4.306   3.751  13.221 -0.0270 -0.2877  0.1197
 5875TIP3   OH239039   4.568   4.153   5.931 -0.3734  0.6531  0.1841
 5875TIP3    H139040   4.531   4.177   5.846 -0.1562 -0.1017 -0.1316
 5875TIP3    H239041   4.536   4.220   5.991 -0.9747  0.8872 -0.3893
 5876TIP3   OH239042   2.377   6.723   2.587 -0.0958 -0.3266 -0.0839
 5876TIP3    H139043   2.336   6.637   2.592 -1.9559  0.5951  0.9640
 5876TIP3    H239044   2.350   6.768   2.667 -0.8054  1.9237 -1.5128
 5877TIP3   OH239045   3.091   4.256   2.719  0.6454  0.2546  0.2177
 5877TIP3    H139046   3.136   4.307   2.651  1.5961 -1.0881 -0.1898
 5877TIP3    H239047   3.027   4.316   2.756  2.2037  1.9486  0.2081
 5878TIP3   OH239048   6.313   6.265  12.690 -0.1407 -0.2486  0.9580
 5878TIP3    H139049   6.347   6.179  12.662 -1.0030 -0.0851 -0.6225
 5878TIP3    H239050   6.243   6.285  12.628 -1.4647  0.5813  2.6793
 5879TIP3   OH239051   6.021   4.501   5.755  0.1561 -0.4517 -0.3761
 5879TIP3    H139052   6.076   4.570   5.791  0.8541 -0.3839 -1.5321
 5879TIP3    H239053   6.083   4.434   5.726 -0.2688  0.1339 -2.7755
 5880TIP3   OH239054   5.284   6.571  11.563  0.2631 -0.0747 -0.5412
 5880TIP3    H139055   5.332   6.584  11.644  0.1804  1.3454 -0.7129
 5880TIP3    H239056   5.192   6.573  11.588  0.2495 -2.6159 -0.2389
 5881TIP3   OH239057   5.689   6.260   2.028 -0.3257  0.6923  0.3340
 5881TIP3    H139058   5.654   6.180   1.989  0.5691  1.1184 -1.4274
 5881TIP3    H239059   5.618   6.323   2.022 -1.1260 -0.0317  1.9813
 5882TIP3   OH239060   4.676   3.603   5.377  0.4063  0.3114  0.6092
 5882TIP3    H139061   4.627   3.554   5.311  0.9218  1.7995 -0.9201
 5882TIP3    H239062   4.614   3.614   5.449 -0.7230  0.0605 -0.2932
 5883TIP3   OH239063   1.380   1.468  12.989 -0.1631 -0.1345  0.1439
 5883TIP3    H139064   1.376   1.540  12.925  0.5952 -0.8116 -0.6807
 5883TIP3    H239065   1.356   1.391  12.938 -0.1965 -0.5855  0.8479
 5884TIP3   OH239066   3.222   2.332   2.614 -0.3005 -0.3852 -0.3998
 5884TIP3    H139067   3.132   2.328   2.585  0.2126  0.1395 -2.0824
 5884TIP3    H239068   3.223   2.400   2.682 -1.0322  0.1067 -0.8834
 5885TIP3   OH239069   2.647   3.692  13.601 -0.6212  0.4287  0.0251
 5885TIP3    H139070   2.665   3.603  13.629  0.4266  0.7798  0.4722
 5885TIP3    H239071   2.614   3.683  13.511 -1.0800 -0.4437  0.2718
 5886TIP3   OH239072   5.425   4.828  12.917  0.7985 -0.5343 -0.2929
 5886TIP3    H139073   5.436   4.860  12.828 -1.2424 -0.3121 -0.4837
 5886TIP3    H239074   5.408   4.907  12.969  0.5241 -0.8121  0.0394
 5887TIP3   OH239075   5.595   4.209  17.007 -0.2258 -0.1817  0.0557
 5887TIP3    H139076   5.681   4.207  17.049 -0.7886 -0.1122  1.2229
 5887TIP3    H239077   5.590   4.296  16.967  0.0598 -0.0086  0.3950
 5888TIP3   OH239078   3.319   6.344   1.491 -0.0476 -0.2989  0.2168
 5888TIP3    H139079   3.235   6.336   1.446  0.6983  1.5473 -1.6094
 5888TIP3    H239080   3.378   6.288   1.442  0.0263 -0.8000  0.8761
 5889TIP3   OH239081   5.221   1.097   6.656  0.6225 -0.1851 -0.3729
 5889TIP3    H139082   5.174   1.150   6.591  0.6884 -1.2565 -1.3200
 5889TIP3    H239083   5.300   1.147   6.675  0.6086  0.1373 -1.1397
 5890TIP3   OH239084   5.743   4.864   3.763 -0.7624  0.4258  0.0088
 5890TIP3    H139085   5.657   4.905   3.757 -0.1886  1.5561 -0.6600
 5890TIP3    H239086   5.772   4.855   3.672  0.7386  2.0449  0.2994
 5891TIP3   OH239087   4.873   0.491   0.227  0.2080  0.1335  0.5712
 5891TIP3    H139088   4.826   0.408   0.242  0.2269 -0.1338 -0.7519
 5891TIP3    H239089   4.903   0.485   0.136 -0.9753  2.1719  0.0042
 5892TIP3   OH239090   2.061   4.340   7.094  0.2004 -0.0136 -0.5800
 5892TIP3    H139091   2.105   4.318   7.012  1.7588 -1.9078  0.7245
 5892TIP3    H239092   2.128   4.327   7.162 -1.3902  0.3852  1.1113
 5893TIP3   OH239093   0.435   6.513  16.404 -0.0544  0.0473  0.2721
 5893TIP3    H139094   0.444   6.608  16.416  0.6995 -0.0687  0.6831
 5893TIP3    H239095   0.430   6.502  16.309  0.9312  0.4223  0.1659
 5894TIP3   OH239096   4.158   3.671   2.210  0.3095 -0.4457  0.1719
 5894TIP3    H139097   4.143   3.763   2.189  1.0420 -0.2432  0.5246
 5894TIP3    H239098   4.087   3.647   2.269  1.1959  0.4213  1.6105
 5895TIP3   OH239099   5.383   1.120   2.030  0.6271  0.0985  0.3015
 5895TIP3    H139100   5.316   1.078   2.085 -1.1842  0.9224 -1.2191
 5895TIP3    H239101   5.385   1.067   1.951  1.4147  0.3748  0.1365
 5896TIP3   OH239102   6.460   3.967  10.779 -0.1503 -0.1691  0.0001
 5896TIP3    H139103   6.550   3.988  10.805  0.0781 -0.9088 -0.1898
 5896TIP3    H239104   6.469   3.890  10.723 -0.8865 -0.1255 -0.1756
 5897TIP3   OH239105   2.485   4.690  13.147 -0.1843  0.5133 -0.2588
 5897TIP3    H139106   2.487   4.664  13.055 -0.4979 -0.1256 -0.0876
 5897TIP3    H239107   2.556   4.754  13.155 -0.2947  0.7359 -0.9912
 5898TIP3   OH239108   3.552   3.865  12.127  0.2034 -0.0706  0.5330
 5898TIP3    H139109   3.646   3.878  12.136  0.3672 -1.4076  0.8515
 5898TIP3    H239110   3.541   3.831  12.038 -0.0206  0.5143  0.3396
 5899TIP3   OH239111   3.430   3.063  14.768 -0.8546 -0.0653 -0.0625
 5899TIP3    H139112   3.403   3.124  14.836  0.0588 -1.0114  1.1803
 5899TIP3    H239113   3.425   2.977  14.810 -0.0683 -0.6440 -1.1209
 5900TIP3   OH239114   2.255   4.496  14.439 -0.2639  0.2275 -0.4366
 5900TIP3    H139115   2.191   4.519  14.372  0.7941  3.7235 -0.3739
 5900TIP3    H239116   2.220   4.534  14.520 -0.2683 -1.7230  0.5043
 5901TIP3   OH239117   5.142   6.553  15.436  0.2000 -0.2719  0.0764
 5901TIP3    H139118   5.127   6.459  15.422  1.3708 -0.4268 -0.2073
 5901TIP3    H239119   5.132   6.592  15.349 -0.0533 -0.1589  0.1531
 5902TIP3   OH239120   1.977   6.651   1.773  0.7944  0.2257 -0.1145
 5902TIP3    H139121   1.888   6.635   1.804  1.0939  0.8261  1.0491
 5902TIP3    H239122   1.967   6.722   1.709  0.3545 -0.1972 -0.5318
 5903TIP3   OH239123   2.238   5.796  14.697 -0.1740 -0.1356 -0.1745
 5903TIP3    H139124   2.199   5.809  14.784  1.0468  1.6911  0.1274
 5903TIP3    H239125   2.171   5.827  14.636  0.3365  2.0267  0.3001
 5904TIP3   OH239126   0.768   1.591   3.407  0.0958  0.0087  0.1932
 5904TIP3    H139127   0.702   1.527   3.379  0.3485 -0.4423  0.6256
 5904TIP3    H239128   0.832   1.540   3.456  0.7297  0.4625 -0.1477
 5905TIP3   OH239129   5.867   1.208   5.770 -0.0088  0.0648 -0.0420
 5905TIP3    H139130   5.801   1.142   5.748  2.0237 -1.7451 -0.9461
 5905TIP3    H239131   5.865   1.269   5.697 -2.0969  1.2143  0.9279
 5906TIP3   OH239132   3.345   6.118   2.624  0.1627 -0.5196  0.2206
 5906TIP3    H139133   3.371   6.027   2.637 -0.8896 -1.0776 -1.3317
 5906TIP3    H239134   3.276   6.113   2.558 -0.2365  1.3685  0.4747
 5907TIP3   OH239135   6.033   4.378   2.589 -0.1234 -0.1290 -0.0047
 5907TIP3    H139136   6.020   4.465   2.552 -0.6105 -0.4866 -0.6793
 5907TIP3    H239137   5.972   4.374   2.663 -1.3359 -0.5197 -1.0178
 5908TIP3   OH239138   0.386   2.802   0.994  0.5539 -0.1891 -0.4420
 5908TIP3    H139139   0.330   2.753   0.934  1.8230 -1.0933 -0.9218
 5908TIP3    H239140   0.389   2.749   1.073 -1.9334  1.4915  0.8534
 5909TIP3   OH239141   0.875   6.359   5.825  0.2119  0.7042  0.6582
 5909TIP3    H139142   0.790   6.331   5.859  0.5854 -0.9146  0.2811
 5909TIP3    H239143   0.926   6.382   5.903 -0.5163  1.5731  0.8923
 5910TIP3   OH239144   0.343   5.215   3.005  0.3686  0.2583  0.1114
 5910TIP3    H139145   0.275   5.208   2.938  1.4873  1.1453 -1.1458
 5910TIP3    H239146   0.325   5.297   3.050 -0.1825 -0.1682  0.6663
 5911TIP3   OH239147   1.024   5.433   0.779 -0.7574  0.6995  0.0470
 5911TIP3    H139148   0.949   5.397   0.826 -0.2046 -0.2741  0.2005
 5911TIP3    H239149   1.000   5.524   0.760 -1.3677  0.8208  1.3869
 5912TIP3   OH239150   6.432   2.296  16.790 -0.0807 -0.3361  0.2033
 5912TIP3    H139151   6.412   2.252  16.707 -0.6940 -0.2927  0.3229
 5912TIP3    H239152   6.527   2.309  16.789 -0.1698  0.2210 -0.7629
 5913TIP3   OH239153   6.721   1.396  12.248 -0.4224  0.5498 -0.3803
 5913TIP3    H139154   6.650   1.447  12.287 -0.6934 -1.1967  1.4982
 5913TIP3    H239155   6.768   1.359  12.323  1.0347 -0.2225 -1.6578
 5914TIP3   OH239156   4.505   5.579  15.923  0.2863 -0.6434 -0.1153
 5914TIP3    H139157   4.440   5.509  15.926 -0.2902 -0.0908  0.5572
 5914TIP3    H239158   4.540   5.582  16.012  0.4314 -0.1950 -0.1874
 5915TIP3   OH239159   5.840   6.092  12.707  0.7253  0.3159  0.2965
 5915TIP3    H139160   5.842   5.997  12.719 -1.1815  0.3728  1.2580
 5915TIP3    H239161   5.880   6.127  12.786  2.3862  0.2895 -0.5300
 5916TIP3   OH239162   1.740   5.244  15.973 -0.3377 -0.4708 -0.0440
 5916TIP3    H139163   1.825   5.229  15.932  0.0398 -1.3534  1.0163
 5916TIP3    H239164   1.707   5.156  15.993 -1.1942 -0.1116  0.1601
 5917TIP3   OH239165   5.331   1.829   3.110  0.3265 -0.7299 -0.2319
 5917TIP3    H139166   5.259   1.789   3.063 -0.1917 -0.0331 -0.0291
 5917TIP3    H239167   5.305   1.920   3.123  1.5153 -0.3090 -0.7223
 5918TIP3   OH239168   5.302   4.197   2.265  0.3444 -0.0088  0.4787
 5918TIP3    H139169   5.381   4.194   2.320  0.4888 -0.7674  0.2346
 5918TIP3    H239170   5.336   4.190   2.175  0.1903  2.2196  0.2151
 5919TIP3   OH239171   4.497   3.875   6.130  0.3596 -0.1290  0.3354
 5919TIP3    H139172   4.539   3.939   6.188  0.9225 -0.1587 -0.0284
 5919TIP3    H239173   4.495   3.794   6.182 -0.2824  0.1633  0.7667
 5920TIP3   OH239174   6.309   0.711   3.479 -0.8427  0.2831 -0.0527
 5920TIP3    H139175   6.270   0.624   3.470  1.0303 -0.6778  0.6844
 5920TIP3    H239176   6.244   0.771   3.443 -4.0523 -0.9647  3.3103
 5921TIP3   OH239177   4.299   0.693  12.843 -0.0317 -0.3156 -0.0427
 5921TIP3    H139178   4.272   0.683  12.751 -2.5077  0.7701  0.5218
 5921TIP3    H239179   4.387   0.656  12.846  0.0355 -0.5072 -2.8280
 5922TIP3   OH239180   6.110   2.022   4.008  0.2587 -0.0138 -0.5677
 5922TIP3    H139181   6.058   1.947   4.037 -0.4716  0.7311  0.0662
 5922TIP3    H239182   6.189   2.019   4.063  1.5685 -1.9413 -2.4583
 5923TIP3   OH239183   1.915   1.477   2.976  0.2397  0.2073 -0.6757
 5923TIP3    H139184   1.856   1.402   2.984 -1.5212  1.6874  0.4467
 5923TIP3    H239185   1.861   1.547   2.941  1.4247  1.4887 -0.0014
 5924TIP3   OH239186   0.923   1.572  16.183  0.2991 -0.2932  0.1840
 5924TIP3    H139187   0.883   1.590  16.268  1.0158 -2.2998  0.9727
 5924TIP3    H239188   0.978   1.649  16.166 -1.4640  1.0859  0.5189
 5925TIP3   OH239189   6.770   4.290  16.631  0.0511 -0.6643  0.0177
 5925TIP3    H139190   6.779   4.195  16.637  0.6951 -0.6313 -0.4024
 5925TIP3    H239191   6.859   4.322  16.620 -0.0886  0.0519  0.9001
 5926TIP3   OH239192   1.694   3.200   1.798 -0.0147 -0.3726  0.1810
 5926TIP3    H139193   1.729   3.119   1.836 -1.2370 -0.6551  0.7274
 5926TIP3    H239194   1.681   3.258   1.874 -0.2578 -0.0927 -0.0736
 5927TIP3   OH239195   6.597   5.046  11.381 -0.1932 -0.3542  0.2617
 5927TIP3    H139196   6.515   5.006  11.410 -0.1342 -1.0300 -0.4661
 5927TIP3    H239197   6.645   4.974  11.339  0.7206  0.0569  0.5761
 5928TIP3   OH239198   0.331   0.667  15.767 -0.0081  0.3894 -0.2230
 5928TIP3    H139199   0.350   0.736  15.831  0.2636 -0.6799  0.8578
 5928TIP3    H239200   0.240   0.643  15.785  0.7132 -1.3783  1.1778
 5929TIP3   OH239201   0.987   1.285  16.260 -0.1894 -0.2139  0.1853
 5929TIP3    H139202   1.057   1.236  16.218  0.0902 -0.8551  1.3871
 5929TIP3    H239203   0.958   1.348  16.193  1.1143 -0.3534 -0.5147
 5930TIP3   OH239204   4.995   0.603  13.367  0.3594  0.5790 -0.2233
 5930TIP3    H139205   4.928   0.603  13.435  2.9500 -1.3553  2.4524
 5930TIP3    H239206   4.979   0.682  13.316 -1.2308  2.4348  3.0587
 5931TIP3   OH239207   3.204   0.920  11.262 -0.2166 -0.5669  0.1293
 5931TIP3    H139208   3.292   0.949  11.238  0.0306 -0.0604  1.5932
 5931TIP3    H239209   3.148   0.996  11.245 -0.5593 -1.2270 -1.8040
 5932TIP3   OH239210   2.121   0.270   2.807 -0.0258  0.5059  0.2066
 5932TIP3    H139211   2.104   0.249   2.716  1.6752  1.0042 -0.2484
 5932TIP3    H239212   2.036   0.296   2.842 -1.1549 -1.9901 -0.5823
 5933TIP3   OH239213   0.958   5.573   2.490 -0.1304  0.5210  0.3442
 5933TIP3    H139214   0.983   5.484   2.464 -0.3441 -0.3145  2.8534
 5933TIP3    H239215   1.038   5.624   2.481  0.5172 -0.3955  0.8625
 5934TIP3   OH239216   0.723   6.408   3.801  0.4783  0.0179  0.2073
 5934TIP3    H139217   0.783   6.477   3.774  0.5402 -0.9356 -2.2369
 5934TIP3    H239218   0.697   6.365   3.720 -2.0441 -0.8167  1.3857
 5935TIP3   OH239219   2.237   3.326   3.942  0.2865 -0.1211 -0.5921
 5935TIP3    H139220   2.258   3.263   4.011  0.8506  2.2774  1.4838
 5935TIP3    H239221   2.321   3.344   3.900 -0.1056 -1.8173 -2.1589
 5936TIP3   OH239222   2.121   5.744  16.162  0.2936  0.4635  0.6958
 5936TIP3    H139223   2.184   5.816  16.170  1.9995 -0.7842 -0.9738
 5936TIP3    H239224   2.106   5.737  16.067  0.5007 -1.6513  0.8034
 5937TIP3   OH239225   2.708   3.130   3.936 -0.0593  0.4083 -0.2631
 5937TIP3    H139226   2.751   3.213   3.957 -0.8705  0.8052 -0.1498
 5937TIP3    H239227   2.769   3.063   3.967 -1.1300  0.9631  3.2950
 5938TIP3   OH239228   0.986   3.814  13.732 -0.4481  0.1499 -0.0547
 5938TIP3    H139229   0.931   3.805  13.655 -1.2362 -0.5811  0.5813
 5938TIP3    H239230   0.936   3.869  13.792  0.8731  2.0979 -0.6964
 5939TIP3   OH239231   6.133   3.204   1.321 -0.5897  0.8465 -0.4896
 5939TIP3    H139232   6.040   3.185   1.310 -0.5740 -1.0380  2.1340
 5939TIP3    H239233   6.150   3.185   1.414  2.5176  0.7031 -1.0490
 5940TIP3   OH239234   1.383   2.284  15.860 -0.2831 -0.1772  0.3498
 5940TIP3    H139235   1.289   2.295  15.874 -0.2733  0.5555 -0.1497
 5940TIP3    H239236   1.415   2.371  15.837  0.3149 -0.6463 -0.6329
 5941TIP3   OH239237   1.008   5.258   4.671 -0.1577 -0.2221  0.2224
 5941TIP3    H139238   0.928   5.206   4.667  0.0891 -0.6066  0.2317
 5941TIP3    H239239   0.979   5.346   4.696 -0.8593  0.2546 -2.1444
 5942TIP3   OH239240   0.649   5.516   5.944  0.1044 -0.7052  0.0585
 5942TIP3    H139241   0.572   5.460   5.939  0.6103 -1.4094  0.0770
 5942TIP3    H239242   0.648   5.565   5.862  1.0015 -2.5171 -1.0691
 5943TIP3   OH239243   3.714   4.166  12.092 -0.4184  0.1186  0.3442
 5943TIP3    H139244   3.705   4.183  12.186 -1.2612  0.6437  0.1807
 5943TIP3    H239245   3.637   4.209  12.053 -2.1201 -3.2804 -0.2059
 5944TIP3   OH239246   5.614   3.670   3.076 -0.0010  0.8833 -0.3900
 5944TIP3    H139247   5.567   3.727   3.015  0.1130  0.1454 -1.1750
 5944TIP3    H239248   5.552   3.657   3.148 -0.5449  0.8902 -0.8514
 5945TIP3   OH239249   5.753   4.024  13.048  0.8505 -0.3023 -0.2694
 5945TIP3    H139250   5.809   4.021  13.125  0.1596  2.0490  0.3498
 5945TIP3    H239251   5.674   4.070  13.077  0.0140 -0.6104 -2.0093
 5946TIP3   OH239252   3.643   5.836   3.452 -0.2042 -0.4119 -0.4625
 5946TIP3    H139253   3.663   5.929   3.451 -1.1435 -0.2076 -0.5696
 5946TIP3    H239254   3.696   5.798   3.382 -1.3451  0.3552 -1.7546
 5947TIP3   OH239255   2.578   1.852  13.430 -0.0353 -0.2251 -0.3548
 5947TIP3    H139256   2.549   1.778  13.483 -0.3287  0.1495  0.0054
 5947TIP3    H239257   2.612   1.812  13.350  1.5026 -0.8499  0.6057
 5948TIP3   OH239258   5.846   4.029   6.221  0.0039 -0.3876 -0.1872
 5948TIP3    H139259   5.754   4.037   6.244  0.3443 -0.7861  1.3623
 5948TIP3    H239260   5.847   3.973   6.143 -1.1692  1.0507 -1.2540
 5949TIP3   OH239261   1.934   3.432   1.405  0.8802 -0.1736 -0.4724
 5949TIP3    H139262   1.902   3.401   1.490 -0.9147  0.4372 -0.9198
 5949TIP3    H239263   1.860   3.422   1.346  1.8294  0.3014 -1.7743
 5950TIP3   OH239264   5.485   0.719   4.428  0.1804  0.6399 -0.2643
 5950TIP3    H139265   5.458   0.628   4.420 -0.7967  0.9491 -0.5057
 5950TIP3    H239266   5.404   0.767   4.446  0.6436  1.5068 -0.4571
 5951TIP3   OH239267   3.179   0.087   1.430  0.4212  0.4008  0.0067
 5951TIP3    H139268   3.096   0.051   1.399  0.7695 -1.2940  0.9561
 5951TIP3    H239269   3.226   0.012   1.467  1.7633  1.5918  0.8141
 5952TIP3   OH239270   4.935   2.934   6.345 -0.1183 -0.0433  0.4833
 5952TIP3    H139271   4.947   3.025   6.317 -0.0200  0.4277  2.0033
 5952TIP3    H239272   4.847   2.911   6.317 -0.1378  0.5155  0.0847
 5953TIP3   OH239273   6.553   1.817  14.061 -0.3526  0.3079  0.3686
 5953TIP3    H139274   6.634   1.869  14.068 -1.3980  2.0448 -0.3281
 5953TIP3    H239275   6.569   1.742  14.119  1.8749  0.4641  0.0193
 5954TIP3   OH239276   4.110   2.924   4.287 -0.1002  0.1979 -0.0422
 5954TIP3    H139277   4.104   3.016   4.314 -1.1920 -0.1766  1.0802
 5954TIP3    H239278   4.077   2.875   4.363  1.7747 -1.1979 -0.1096
 5955TIP3   OH239279   3.098   6.122  16.594 -0.5201  0.0062 -0.5319
 5955TIP3    H139280   3.164   6.189  16.577 -1.2685  1.5006  2.1262
 5955TIP3    H239281   3.147   6.048  16.629 -0.2365  1.2183  1.7041
 5956TIP3   OH239282   5.214   4.403  12.996 -0.5409 -0.2022  0.6087
 5956TIP3    H139283   5.183   4.333  12.939 -0.8113 -0.6671  1.3078
 5956TIP3    H239284   5.243   4.357  13.076  0.6650  0.3542  0.4995
 5957TIP3   OH239285   4.741   1.895   1.473 -0.0395  0.3119 -0.2325
 5957TIP3    H139286   4.750   1.855   1.386  2.1233  0.7328 -0.2403
 5957TIP3    H239287   4.752   1.988   1.457 -0.9602  0.5267  0.3440
 5958TIP3   OH239288   1.904   5.118  12.725  0.5628 -0.1104 -0.1410
 5958TIP3    H139289   1.941   5.105  12.638  0.9260 -1.1106  0.1501
 5958TIP3    H239290   1.896   5.029  12.761  0.3895  0.2916  0.8328
 5959TIP3   OH239291   2.192   1.324  14.670 -0.0173 -0.3214  0.4823
 5959TIP3    H139292   2.122   1.263  14.695 -2.4220  1.1835 -2.3744
 5959TIP3    H239293   2.166   1.408  14.708 -0.8810  0.7207 -2.3190
 5960TIP3   OH239294   1.921   1.196  16.737  0.0339 -0.2981 -0.2586
 5960TIP3    H139295   1.969   1.142  16.674  0.3697  0.0965 -0.3422
 5960TIP3    H239296   1.979   1.271  16.753  1.4437 -2.0155  3.0479
 5961TIP3   OH239297   0.461   5.769  15.595 -0.3437  0.3568  0.8361
 5961TIP3    H139298   0.477   5.853  15.553  1.6370  0.2867  1.3829
 5961TIP3    H239299   0.528   5.763  15.663 -1.2136 -1.1326  1.5925
 5962TIP3   OH239300   1.772   1.235   5.056 -0.1974  0.0071  0.5262
 5962TIP3    H139301   1.783   1.144   5.029 -0.0265  0.6946 -1.8561
 5962TIP3    H239302   1.678   1.253   5.043 -0.1943  0.2267  0.7998
 5963TIP3   OH239303   6.509   5.375  15.560 -0.0153 -0.3325 -0.0350
 5963TIP3    H139304   6.481   5.293  15.520 -1.5699 -0.2027  0.7757
 5963TIP3    H239305   6.540   5.351  15.647 -1.3110  0.0367  0.5439
 5964TIP3   OH239306   2.511   3.422   1.831 -0.2559 -0.2685  0.1269
 5964TIP3    H139307   2.565   3.480   1.885 -1.5410  0.4965  0.6145
 5964TIP3    H239308   2.473   3.480   1.764 -1.4828 -0.5418  0.5648
 5965TIP3   OH239309   6.122   5.433   0.050 -0.0902 -0.0697 -0.1364
 5965TIP3    H139310   6.201   5.379   0.055 -0.2072 -0.2912 -0.6492
 5965TIP3    H239311   6.143   5.499  -0.017 -0.6763 -0.6943 -0.9440
 5966TIP3   OH239312   0.634   0.347   0.823  0.7114  0.1820  0.2555
 5966TIP3    H139313   0.641   0.323   0.915 -1.0843  2.4929  1.0714
 5966TIP3    H239314   0.690   0.425   0.815  3.2477 -1.7385 -1.3582
 5967TIP3   OH239315   5.789   4.846   4.890 -0.0334  0.3319  0.3879
 5967TIP3    H139316   5.733   4.789   4.837  2.0592 -1.0372 -0.4065
 5967TIP3    H239317   5.821   4.913   4.829  1.5480 -0.6339  0.1407
 5968TIP3   OH239318   2.563   2.317   4.524  0.7916  0.5788 -0.2174
 5968TIP3    H139319   2.602   2.242   4.480 -0.6299 -0.5824  0.4354
 5968TIP3    H239320   2.488   2.341   4.469  0.3876  0.6010  0.3385
 5969TIP3   OH239321   6.519   0.983  15.176 -0.0532  0.3172 -0.0259
 5969TIP3    H139322   6.569   1.060  15.204 -3.4814  2.3012  0.9991
 5969TIP3    H239323   6.531   0.979  15.081  0.0134  2.2456 -0.1176
 5970TIP3   OH239324   0.621   6.389   5.081  0.5098 -0.1797  0.3787
 5970TIP3    H139325   0.699   6.367   5.030  1.5241 -0.2281  1.9036
 5970TIP3    H239326   0.642   6.474   5.120 -0.2443 -0.1490  0.7176
 5971TIP3   OH239327   3.331   4.098  15.169  0.9387  0.6800 -0.0304
 5971TIP3    H139328   3.420   4.133  15.169  0.6371  1.4601  1.0876
 5971TIP3    H239329   3.291   4.134  15.091  1.7182  0.0079 -0.7551
 5972TIP3   OH239330   2.538   1.288  13.500 -0.1063  0.0072  0.1989
 5972TIP3    H139331   2.495   1.341  13.567 -1.8320 -1.1632  0.0508
 5972TIP3    H239332   2.631   1.290  13.524 -0.6760 -0.2542  2.5329
 5973TIP3   OH239333   5.390   4.018   1.689 -0.0434 -0.4308 -0.1809
 5973TIP3    H139334   5.335   4.037   1.613 -0.5966  1.8224  0.7296
 5973TIP3    H239335   5.477   4.001   1.651 -0.5565 -0.4568 -1.3873
 5974TIP3   OH239336   3.049   6.401   0.696 -0.6088  0.2852 -0.4234
 5974TIP3    H139337   3.080   6.350   0.771 -0.3576  0.1908 -0.5930
 5974TIP3    H239338   3.049   6.492   0.728 -1.4638  0.1379  0.0168
 5975TIP3   OH239339   1.811   4.357  13.437  0.1286  0.6070  0.1577
 5975TIP3    H139340   1.870   4.282  13.427  0.0467  0.6221 -0.4614
 5975TIP3    H239341   1.724   4.321  13.420  0.0208  0.7064  0.4992
 5976TIP3   OH239342   0.872   3.231  12.615 -0.0371 -0.3070  0.3259
 5976TIP3    H139343   0.807   3.192  12.674 -0.4882  0.3804  0.2879
 5976TIP3    H239344   0.823   3.253  12.536  0.8888 -2.6510 -0.9269
 5977TIP3   OH239345   0.711   2.684   3.687 -0.0759 -0.1908 -0.5979
 5977TIP3    H139346   0.661   2.631   3.626  1.5925 -0.5226 -1.7145
 5977TIP3    H239347   0.703   2.773   3.653  1.1044 -0.4179 -1.4913
 5978TIP3   OH239348   3.733   4.065   0.127  0.4170  0.2743  0.5292
 5978TIP3    H139349   3.805   4.008   0.100 -0.6226 -0.2888 -1.1494
 5978TIP3    H239350   3.662   4.044   0.066 -1.5471  0.0218  2.8378
 5979TIP3   OH239351   1.202   3.688  12.370  0.5978 -0.2387  0.0945
 5979TIP3    H139352   1.210   3.593  12.365  0.2266 -0.3831  1.8782
 5979TIP3    H239353   1.271   3.714  12.432  1.4101  0.7617 -1.2212
 5980TIP3   OH239354   5.349   5.065  13.005 -0.1576 -0.2586  0.6543
 5980TIP3    H139355   5.421   5.117  12.970 -1.4078  2.0405  1.4354
 5980TIP3    H239356   5.336   5.098  13.094 -2.1654 -0.6414  0.5275
 5981TIP3   OH239357   4.630   3.396   4.677 -0.2200 -0.3878  0.2416
 5981TIP3    H139358   4.687   3.472   4.686  0.6686 -1.1804  1.5601
 5981TIP3    H239359   4.542   3.432   4.669  0.2412  0.7888  0.4730
 5982TIP3   OH239360   0.024   1.648  13.921  0.8485 -0.3413 -0.6714
 5982TIP3    H139361  -0.032   1.570  13.923  0.8386 -0.3459 -1.1187
 5982TIP3    H239362   0.013   1.687  14.008 -1.0401  0.4912 -1.2342
 5983TIP3   OH239363   0.293   1.031  13.516  0.4676  0.2881 -0.3731
 5983TIP3    H139364   0.337   1.116  13.522  0.4517  0.2852 -0.2337
 5983TIP3    H239365   0.246   1.022  13.598  2.0057 -0.7073  0.4077
 5984TIP3   OH239366   0.694   5.869   1.014  0.6043 -0.0500  0.1598
 5984TIP3    H139367   0.760   5.834   1.074 -0.4682  0.2157  1.5266
 5984TIP3    H239368   0.627   5.801   1.010  1.8187 -1.1747 -2.7568
 5985TIP3   OH239369   0.332   3.632   4.682  0.3460  0.3395 -0.0444
 5985TIP3    H139370   0.348   3.605   4.773 -0.5623 -0.9746 -0.2591
 5985TIP3    H239371   0.306   3.551   4.637  0.8397  0.9693 -1.4908
 5986TIP3   OH239372   6.557   6.279  14.440  0.1385 -0.1388 -0.1818
 5986TIP3    H139373   6.514   6.364  14.431 -0.4325 -0.0649  2.7040
 5986TIP3    H239374   6.541   6.235  14.356 -2.4896  1.2746 -0.4836
 5987TIP3   OH239375   3.427   2.481  16.747  0.0485 -0.4449  0.0984
 5987TIP3    H139376   3.486   2.516  16.814 -0.1481  1.2482 -0.5857
 5987TIP3    H239377   3.479   2.415  16.701  1.2492  0.6783 -0.1790
 5988TIP3   OH239378   3.204   5.268  12.749 -0.1658  0.1193  0.9261
 5988TIP3    H139379   3.187   5.207  12.822 -1.2815 -1.8794 -0.9552
 5988TIP3    H239380   3.117   5.294  12.719  0.3028  1.8549  1.0294
 5989TIP3   OH239381   1.578   0.243  15.879 -0.0598 -0.6705 -0.2386
 5989TIP3    H139382   1.484   0.234  15.870  0.1418 -2.1259 -1.1326
 5989TIP3    H239383   1.596   0.215  15.969 -0.2582 -2.6294 -0.7792
 5990TIP3   OH239384   0.715   6.369   4.061 -0.6828  0.6951  0.3875
 5990TIP3    H139385   0.794   6.384   4.113  0.1934 -1.4935 -0.2551
 5990TIP3    H239386   0.736   6.404   3.974 -1.3925  2.4771  0.9178
 5991TIP3   OH239387   4.357   1.946   5.481 -0.1021 -0.0033 -0.0258
 5991TIP3    H139388   4.287   1.883   5.466 -2.2962  2.3675 -0.0744
 5991TIP3    H239389   4.348   1.970   5.573 -0.1359  1.1782 -0.3251
 5992TIP3   OH239390   6.273   3.741   4.610  0.5696  0.3436  0.5526
 5992TIP3    H139391   6.197   3.734   4.667 -0.1605  0.0193 -0.4417
 5992TIP3    H239392   6.259   3.822   4.561  0.2630 -0.3171 -0.4752
 5993TIP3   OH239393   2.853   2.055  13.936  0.1673 -0.1896 -0.0407
 5993TIP3    H139394   2.872   1.986  13.999 -1.7533 -1.6024 -0.9613
 5993TIP3    H239395   2.829   2.009  13.856 -0.2779  1.5547 -0.9461
 5994TIP3   OH239396   5.102   3.472  14.473  0.5700 -0.0074  0.7916
 5994TIP3    H139397   5.073   3.381  14.479 -0.0127  0.2955  2.9081
 5994TIP3    H239398   5.042   3.512  14.410  0.5199 -0.9575  0.2218
 5995TIP3   OH239399   2.887   6.199   1.794  0.4993  0.2931 -0.0129
 5995TIP3    H139400   2.968   6.249   1.802  0.0938  1.1305 -0.9177
 5995TIP3    H239401   2.817   6.265   1.798 -0.0808 -0.2856 -0.3518
 5996TIP3   OH239402   4.027   3.545  14.700 -0.4156  0.3849 -0.0188
 5996TIP3    H139403   4.080   3.527  14.623 -0.1927  0.5185  0.1007
 5996TIP3    H239404   4.072   3.498  14.771 -1.4758 -1.0144 -0.2574
 5997TIP3   OH239405   3.468   2.704  11.790 -0.6930  0.5428 -0.5004
 5997TIP3    H139406   3.417   2.633  11.828 -1.0328  0.9802 -0.1219
 5997TIP3    H239407   3.446   2.780  11.845 -0.5052  0.9815 -1.0320
 5998TIP3   OH239408   3.724   0.039  12.070 -0.2467 -0.8923  0.3791
 5998TIP3    H139409   3.747  -0.042  12.025  1.3671  0.1502 -0.7112
 5998TIP3    H239410   3.806   0.087  12.077 -1.3709  1.1244  0.0440
 5999TIP3   OH239411   3.619   0.151  11.669 -0.5072 -0.2813  0.0786
 5999TIP3    H139412   3.688   0.088  11.646 -0.1451  0.0423  0.2845
 5999TIP3    H239413   3.616   0.212  11.596 -0.1728  0.0497  0.3422
 6000TIP3   OH239414   1.564   1.916   3.688 -0.2419  0.0784 -0.0762
 6000TIP3    H139415   1.579   1.909   3.783  0.4104  1.8146 -0.0310
 6000TIP3    H239416   1.499   1.848   3.669 -0.7803  0.0697  1.7067
 6001TIP3   OH239417   0.451   4.522   2.366  0.3139  0.1864  0.0268
 6001TIP3    H139418   0.534   4.565   2.347  1.0470 -0.4079  1.7686
 6001TIP3    H239419   0.418   4.493   2.281  2.4173 -0.5025 -0.5728
 6002TIP3   OH239420   1.202   0.802  13.825 -0.5023 -0.3528  0.0836
 6002TIP3    H139421   1.159   0.720  13.849 -0.5953  0.0272  1.2788
 6002TIP3    H239422   1.202   0.853  13.906  1.4856 -0.0255 -0.1079
 6003TIP3   OH239423   3.940   1.048   1.240  0.1675  0.0006 -0.3214
 6003TIP3    H139424   3.961   1.138   1.211 -0.4135 -0.1898 -1.3731
 6003TIP3    H239425   3.947   0.996   1.160 -0.0529 -0.8038  0.1839
 6004TIP3   OH239426   6.185   0.925  16.415 -0.3658  0.2950 -0.2876
 6004TIP3    H139427   6.241   1.003  16.411 -1.4942  1.0889 -0.6883
 6004TIP3    H239428   6.216   0.877  16.492 -2.5113  3.3213  2.5828
 6005TIP3   OH239429   1.646   2.532  13.916 -0.2718 -0.2237 -1.0988
 6005TIP3    H139430   1.588   2.597  13.877  0.4931  2.8416  2.5724
 6005TIP3    H239431   1.591   2.483  13.977 -0.0727 -0.6436 -1.2536
 6006TIP3   OH239432   0.095   0.841  12.199  1.0852  0.2830  0.0648
 6006TIP3    H139433   0.143   0.811  12.276  1.0253 -1.2267 -0.4769
 6006TIP3    H239434   0.003   0.831  12.223  1.0528 -2.2215 -0.9443
 6007TIP3   OH239435   3.018   4.235   3.585 -0.2624  0.1610 -0.0375
 6007TIP3    H139436   3.072   4.297   3.536  0.5074 -0.4484  0.0248
 6007TIP3    H239437   3.080   4.187   3.640 -1.1266  0.8492  1.5708
 6008TIP3   OH239438   5.292   1.695   0.662 -0.2346 -0.0595 -0.9026
 6008TIP3    H139439   5.210   1.658   0.696  0.6596 -1.4582 -0.2322
 6008TIP3    H239440   5.303   1.653   0.576 -1.3197  1.7671 -1.9730
 6009TIP3   OH239441   3.858   3.997  13.803 -0.4391  0.0691  0.2465
 6009TIP3    H139442   3.871   4.044  13.886  0.3285  0.7121 -0.2358
 6009TIP3    H239443   3.925   3.929  13.804  2.0428  2.4258 -1.5449
 6010TIP3   OH239444   1.858   4.558   2.625 -0.8576 -0.3448 -0.4049
 6010TIP3    H139445   1.821   4.620   2.688  0.3767 -0.0088 -0.0097
 6010TIP3    H239446   1.782   4.506   2.596 -1.5689  0.0479  0.7183
 6011TIP3   OH239447   6.055   2.420   5.307  0.1576 -0.2987  0.0386
 6011TIP3    H139448   5.963   2.410   5.330  0.4377 -2.3802  0.2985
 6011TIP3    H239449   6.091   2.477   5.375 -0.7190 -0.2574  0.4686
 6012TIP3   OH239450   6.699   2.737   4.189  0.3035 -0.5313 -0.5974
 6012TIP3    H139451   6.626   2.795   4.167  0.7140  0.5655  0.8396
 6012TIP3    H239452   6.773   2.773   4.140  0.1391 -0.9886 -1.1913
 6013TIP3   OH239453   4.890   2.591   4.293 -0.2322  0.0353  0.2402
 6013TIP3    H139454   4.811   2.566   4.246 -0.3005 -1.5606  1.2043
 6013TIP3    H239455   4.907   2.519   4.354  1.4785  0.7494  0.6455
 6014TIP3   OH239456   6.724   1.867  17.044 -0.4990  0.1853  0.5199
 6014TIP3    H139457   6.651   1.874  17.105  0.1978  0.8055  1.2947
 6014TIP3    H239458   6.742   1.773  17.040 -1.7708 -0.0449 -0.2123
 6015TIP3   OH239459   3.673   5.885   4.172  0.2356  0.0691  0.0151
 6015TIP3    H139460   3.609   5.946   4.136  1.4430  0.7255 -1.0911
 6015TIP3    H239461   3.639   5.798   4.150 -0.4541  0.4070 -0.2574
 6016TIP3   OH239462   1.167   1.364   2.492 -0.1402  0.0818  0.2996
 6016TIP3    H139463   1.144   1.274   2.467  0.6352  0.3382 -1.4044
 6016TIP3    H239464   1.086   1.399   2.529 -1.7689  0.0439 -2.9897
 6017TIP3   OH239465   3.218   0.236  11.951 -0.9077 -0.3496  0.0074
 6017TIP3    H139466   3.232   0.238  11.857 -1.9687  0.8570 -0.1339
 6017TIP3    H239467   3.296   0.276  11.988 -0.3714 -1.0641 -0.3327
 6018TIP3   OH239468   1.767   6.305   2.596  0.3681 -0.3796  0.4170
 6018TIP3    H139469   1.740   6.334   2.509 -0.5693 -0.5687  0.6391
 6018TIP3    H239470   1.824   6.375   2.628 -0.5886  0.4688  0.3034
 6019TIP3   OH239471   1.923   1.094  15.754  0.8886  0.3504  0.7524
 6019TIP3    H139472   2.002   1.041  15.760  2.0601  2.0266  0.5716
 6019TIP3    H239473   1.940   1.169  15.811 -0.1305  1.2597 -0.1176
 6020TIP3   OH239474   0.971   1.745  12.062 -0.5636 -0.3411 -0.4585
 6020TIP3    H139475   1.036   1.733  11.992  0.8650  0.1996  0.7614
 6020TIP3    H239476   0.984   1.671  12.120  0.2277  0.7523  0.7730
 6021TIP3   OH239477   6.462   2.382   4.827  0.0604 -0.0914  0.4000
 6021TIP3    H139478   6.444   2.296   4.789 -1.0691 -0.2827  1.3491
 6021TIP3    H239479   6.405   2.387   4.903  0.6759  1.1984  0.7868
 6022TIP3   OH239480   1.929   3.822  14.966  0.2990 -0.0983  0.3273
 6022TIP3    H139481   1.843   3.789  14.944 -0.1107  2.0848 -1.4897
 6022TIP3    H239482   1.959   3.766  15.038  0.2233 -5.2024 -3.3891
 6023TIP3   OH239483   6.500   5.221  12.579 -0.9190  0.5177  0.3114
 6023TIP3    H139484   6.584   5.195  12.543 -0.9488  0.9793 -0.1062
 6023TIP3    H239485   6.441   5.150  12.556 -1.0199  0.9807 -0.8976
 6024TIP3   OH239486   3.729   6.557   0.732  0.3969  0.0458 -0.1572
 6024TIP3    H139487   3.688   6.562   0.646  0.1863  1.7150  0.0133
 6024TIP3    H239488   3.784   6.636   0.736  0.7042 -0.2229  1.0824
 6025TIP3   OH239489   2.365   3.604  13.142 -0.1493 -0.0768 -0.6713
 6025TIP3    H139490   2.323   3.656  13.211 -0.0898  0.0281 -0.7124
 6025TIP3    H239491   2.335   3.515  13.158  1.0760 -0.3065  0.4129
 6026TIP3   OH239492   5.116   1.623  14.650  0.0067  0.3259 -0.2746
 6026TIP3    H139493   5.205   1.620  14.614  0.3493  0.0387  0.5877
 6026TIP3    H239494   5.104   1.539  14.694 -0.5780  0.4834 -0.1208
 6027TIP3   OH239495   0.264   1.726  17.116  0.5224  0.1285  0.0487
 6027TIP3    H139496   0.311   1.792  17.167  0.4017 -0.3904  0.8474
 6027TIP3    H239497   0.248   1.655  17.179 -1.1581  0.2303 -0.2468
 6028TIP3   OH239498   4.260   3.618   5.734 -0.0708 -0.2796 -0.3683
 6028TIP3    H139499   4.275   3.524   5.730 -1.9428 -0.6825  1.3119
 6028TIP3    H239500   4.335   3.653   5.782 -0.2443 -1.1598  0.5607
 6029TIP3   OH239501   1.802   4.309  15.257  0.1155  0.0416 -0.3087
 6029TIP3    H139502   1.787   4.401  15.236  0.1768  0.0084 -0.4958
 6029TIP3    H239503   1.721   4.265  15.229  0.5984 -0.1546 -1.4263
 6030TIP3   OH239504   4.133   6.267   0.002  0.0179  0.1993  0.1400
 6030TIP3    H139505   4.216   6.277   0.049 -0.2821  1.7260  0.3985
 6030TIP3    H239506   4.153   6.210  -0.072  0.5506 -2.0397  1.9725
 6031TIP3   OH239507   4.496   3.941   4.102 -0.4686  0.9390  0.2007
 6031TIP3    H139508   4.414   3.893   4.108 -1.1912  2.1705  0.2373
 6031TIP3    H239509   4.564   3.873   4.105 -1.4528 -0.0181  1.0021
 6032TIP3   OH239510   5.470   3.823   6.528  0.4466 -0.2446 -0.3148
 6032TIP3    H139511   5.560   3.799   6.508  0.4346 -0.8538  0.3481
 6032TIP3    H239512   5.477   3.909   6.569  0.7673 -0.4587  0.0873
 6033TIP3   OH239513   5.465   6.280  13.639  0.4531  0.0042  0.7665
 6033TIP3    H139514   5.429   6.263  13.552  0.9775 -0.4952  0.6457
 6033TIP3    H239515   5.497   6.371  13.634 -0.4912  0.3385  0.7766
 6034TIP3   OH239516   4.773   0.879   3.451  0.5033 -0.0954  0.1253
 6034TIP3    H139517   4.825   0.801   3.429  0.0550 -0.9705  2.0184
 6034TIP3    H239518   4.733   0.857   3.536 -1.0519  1.5006 -0.1714
 6035TIP3   OH239519   4.030   1.251   0.221  0.2238 -0.0824 -0.4511
 6035TIP3    H139520   4.043   1.290   0.307 -1.3700  1.3173 -0.8107
 6035TIP3    H239521   3.935   1.255   0.207  0.4323 -0.5261 -2.1587
 6036TIP3   OH239522   4.819   1.130   5.180 -0.1151 -0.6412  0.1693
 6036TIP3    H139523   4.734   1.123   5.136 -0.7677 -0.2561  1.3590
 6036TIP3    H239524   4.871   1.058   5.143 -1.2274 -1.3817  0.0372
 6037TIP3   OH239525   0.666   1.386   0.422  0.3986  0.0176  0.2939
 6037TIP3    H139526   0.710   1.402   0.338 -0.0572  1.6783  0.3539
 6037TIP3    H239527   0.591   1.445   0.421  0.6357  0.3791  2.0718
 6038TIP3   OH239528   3.869   6.564  12.189 -0.7726 -0.4905 -0.4323
 6038TIP3    H139529   3.823   6.510  12.124  0.2952 -2.8439  0.6912
 6038TIP3    H239530   3.801   6.589  12.252 -1.1844 -1.0148 -0.6621
 6039TIP3   OH239531   4.537   0.523   5.139  0.6685  0.5028 -0.0779
 6039TIP3    H139532   4.467   0.588   5.153  0.3423 -0.1180  1.3019
 6039TIP3    H239533   4.491   0.445   5.108  0.8861  0.4622 -0.2939
 6040TIP3   OH239534   6.568   5.427  16.988 -0.2975 -0.3293  0.1209
 6040TIP3    H139535   6.507   5.403  17.057  1.5077 -1.8547  1.2257
 6040TIP3    H239536   6.632   5.484  17.031  0.7510 -1.1562 -0.3234
 6041TIP3   OH239537   3.926   6.181   5.916 -0.2930  0.4608 -0.0995
 6041TIP3    H139538   3.853   6.231   5.952 -1.4394 -0.7220 -0.7257
 6041TIP3    H239539   3.930   6.103   5.971 -0.2510 -0.0240 -0.7858
 6042TIP3   OH239540   0.447   3.304  13.728 -0.2736  0.6481 -0.6021
 6042TIP3    H139541   0.462   3.210  13.725 -0.9598  0.5398 -0.6695
 6042TIP3    H239542   0.452   3.333  13.637  0.6738  0.7948 -0.5061
 6043TIP3   OH239543   1.522   1.298   5.306 -0.0587  0.1927  0.2225
 6043TIP3    H139544   1.494   1.303   5.397 -0.6211 -1.5073  0.1493
 6043TIP3    H239545   1.499   1.384   5.269 -0.9914  0.4307  1.3512
 6044TIP3   OH239546   5.131   0.426   6.025 -0.6192 -0.8226 -0.6049
 6044TIP3    H139547   5.095   0.393   5.942 -0.6557 -0.3222 -0.7901
 6044TIP3    H239548   5.054   0.445   6.078 -0.6246 -0.0317 -0.8918
 6045TIP3   OH239549   3.000   3.846  14.537  0.5049  0.1610 -0.3866
 6045TIP3    H139550   2.956   3.930  14.550 -1.1153 -0.8101  0.5519
 6045TIP3    H239551   2.942   3.782  14.578  1.7329 -1.4202 -1.0711
 6046TIP3   OH239552   1.660   5.468  15.076 -0.5836  0.3699  0.1437
 6046TIP3    H139553   1.680   5.418  14.997 -0.2087  1.0229 -0.1732
 6046TIP3    H239554   1.573   5.437  15.102 -1.5162  1.4667 -1.5670
 6047TIP3   OH239555   0.816   6.332   4.901  0.3702 -0.0701  0.4353
 6047TIP3    H139556   0.834   6.341   4.808  1.9354  1.2289  0.8335
 6047TIP3    H239557   0.862   6.252   4.927 -1.3926 -1.2934 -0.2242
 6048TIP3   OH239558   1.191   0.252  13.365 -0.4289  0.3647  0.2652
 6048TIP3    H139559   1.134   0.177  13.376  0.3605 -0.1370  0.9448
 6048TIP3    H239560   1.279   0.216  13.365 -0.0381  1.2991  0.6811
 6049TIP3   OH239561   2.073   4.884   3.991 -0.4281 -0.4928 -0.3924
 6049TIP3    H139562   2.052   4.854   3.902  2.1521 -1.0385 -0.8431
 6049TIP3    H239563   2.073   4.980   3.984  2.3094 -0.5469 -1.6379
 6050TIP3   OH239564   2.445   6.248  11.711  0.4069  0.1830 -0.7314
 6050TIP3    H139565   2.535   6.252  11.742 -0.0487  1.3834  0.4881
 6050TIP3    H239566   2.426   6.336  11.680 -0.1711 -0.2107 -1.5356
 6051TIP3   OH239567   3.162   2.815  14.408 -0.2778 -0.1720 -0.0552
 6051TIP3    H139568   3.172   2.899  14.453  2.8735 -1.6199  2.0823
 6051TIP3    H239569   3.242   2.806  14.356 -0.0860 -2.3373  0.5655
 6052TIP3   OH239570   0.027   5.332   0.414 -0.0330  0.3464 -0.5660
 6052TIP3    H139571   0.123   5.328   0.422  0.0813  1.8560 -1.1236
 6052TIP3    H239572   0.008   5.423   0.394 -1.5562 -0.0479 -0.9850
 6053TIP3   OH239573   4.888   0.297   2.782 -0.0719  0.1297 -0.8491
 6053TIP3    H139574   4.925   0.221   2.737 -0.0108  0.5347 -1.4731
 6053TIP3    H239575   4.809   0.262   2.825 -0.9700  0.0816 -2.5119
 6054TIP3   OH239576   4.638   4.105  16.541  0.3208  0.0827 -0.1795
 6054TIP3    H139577   4.727   4.071  16.536  0.3964 -0.2979  2.9854
 6054TIP3    H239578   4.584   4.036  16.502  0.9482 -1.8235  2.1673
 6055TIP3   OH239579   1.596   1.570  13.179  0.4390  0.5172 -0.1714
 6055TIP3    H139580   1.626   1.480  13.188  0.7618  0.7377  1.0300
 6055TIP3    H239581   1.600   1.587  13.085 -0.4746 -0.9937 -0.4897
 6056TIP3   OH239582   4.419   5.762   1.981 -0.0551  0.0830 -0.4602
 6056TIP3    H139583   4.346   5.699   1.980  0.2344 -0.2661  0.1107
 6056TIP3    H239584   4.398   5.822   2.052  0.7458 -0.6675  0.4327
 6057TIP3   OH239585   1.819   1.748   5.623 -0.1233  0.0472  0.7136
 6057TIP3    H139586   1.815   1.668   5.572 -1.1118  0.4869  0.0776
 6057TIP3    H239587   1.904   1.786   5.603 -0.0464 -0.3551  0.2780
 6058TIP3   OH239588   4.741   3.858   0.375  0.1021  0.2741  0.6200
 6058TIP3    H139589   4.659   3.898   0.404 -0.5517 -0.3623 -0.3204
 6058TIP3    H239590   4.797   3.932   0.350 -0.7091  0.6529 -0.0828
 6059TIP3   OH239591   3.008   1.783  13.536 -0.2661  0.4810  0.5319
 6059TIP3    H139592   3.063   1.755  13.609  1.1875  1.5427 -0.1332
 6059TIP3    H239593   2.994   1.703  13.485 -1.4096 -0.2931  2.0235
 6060TIP3   OH239594   2.149   6.282   4.492 -0.3592 -0.1181  0.3375
 6060TIP3    H139595   2.168   6.201   4.445  0.2853  0.4178 -0.3290
 6060TIP3    H239596   2.189   6.270   4.578  1.3668  0.2418 -0.4044
 6061TIP3   OH239597   6.042   1.760   4.086 -0.3604 -0.4732  0.1319
 6061TIP3    H139598   6.078   1.711   4.012  0.5781  0.1086  0.1935
 6061TIP3    H239599   5.970   1.706   4.118  0.9935 -2.0828  0.5409
 6062TIP3   OH239600   3.976   5.103   2.929 -1.1118 -0.5350  0.5989
 6062TIP3    H139601   3.910   5.101   2.860 -1.6214  0.1690  1.0636
 6062TIP3    H239602   4.051   5.058   2.891 -1.3346 -0.0159 -0.4869
 6063TIP3   OH239603   3.304   6.470   6.565 -0.0544 -0.3766  0.0299
 6063TIP3    H139604   3.365   6.482   6.491  0.9992 -0.4118  0.8854
 6063TIP3    H239605   3.228   6.429   6.525 -0.1632  1.0636 -1.3490
 6064TIP3   OH239606   1.247   5.347  14.671 -0.3600 -0.0210  0.1003
 6064TIP3    H139607   1.330   5.321  14.712 -0.2158 -1.8960 -1.2795
 6064TIP3    H239608   1.180   5.318  14.733 -0.0114  1.1036  1.0187
 6065TIP3   OH239609   3.759   5.063  16.679 -0.3513 -0.1145  0.0575
 6065TIP3    H139610   3.708   5.142  16.660 -0.2500 -0.3115 -1.0789
 6065TIP3    H239611   3.716   4.995  16.627 -0.0959 -0.6934  0.6023
 6066TIP3   OH239612   5.927   3.616  13.273 -0.3987  0.0291 -0.7284
 6066TIP3    H139613   5.925   3.523  13.297  0.0938 -0.2690 -1.8066
 6066TIP3    H239614   6.017   3.643  13.291 -0.6025  0.3484 -0.2063
 6067TIP3   OH239615   6.106   2.130   5.279 -0.8393 -0.3305 -0.4713
 6067TIP3    H139616   6.052   2.118   5.201 -0.3420 -0.7722 -0.7436
 6067TIP3    H239617   6.092   2.222   5.303 -1.2579 -0.2848 -0.8780
 6068TIP3   OH239618   3.576   3.861  11.837  0.2102 -0.0220  0.1124
 6068TIP3    H139619   3.575   3.941  11.785 -0.7909  0.7696  1.3227
 6068TIP3    H239620   3.488   3.825  11.828  0.2082 -0.1913  0.7929
 6069TIP3   OH239621   2.360   1.396   1.919 -0.0516  0.0881  0.6008
 6069TIP3    H139622   2.291   1.351   1.967  0.1674  1.6731  2.4215
 6069TIP3    H239623   2.442   1.363   1.957  0.1768 -0.2934 -0.1993
 6070TIP3   OH239624   3.582   1.156  12.471  0.3681  0.0360 -0.1199
 6070TIP3    H139625   3.505   1.132  12.419  0.8461  0.0195 -0.8336
 6070TIP3    H239626   3.622   1.228  12.422  1.0673 -0.2732 -0.0133
 6071TIP3   OH239627   0.192   2.494  16.102 -0.0948  0.1584 -0.0604
 6071TIP3    H139628   0.279   2.455  16.093  0.1630  0.9313 -1.0581
 6071TIP3    H239629   0.131   2.423  16.085  0.3435 -0.3757  0.5827
 6072TIP3   OH239630   1.612   1.831   4.612  0.4463 -0.4507 -0.8149
 6072TIP3    H139631   1.577   1.896   4.673 -1.0419 -1.0705 -0.9903
 6072TIP3    H239632   1.550   1.830   4.539  1.1268 -1.1733 -1.4059
 6073TIP3   OH239633   6.432   5.804   3.702 -0.5395  0.0541 -0.3991
 6073TIP3    H139634   6.407   5.807   3.609  0.9055  0.5440 -0.7891
 6073TIP3    H239635   6.449   5.711   3.718  1.0193  0.1906 -1.1425
 6074TIP3   OH239636   2.797   3.101  16.033  0.1545 -0.1796  0.4187
 6074TIP3    H139637   2.873   3.158  16.020  0.1857  0.0923  1.6473
 6074TIP3    H239638   2.724   3.162  16.042 -0.0458 -0.3970  0.2340
 6075TIP3   OH239639   3.508   6.334   2.194 -0.5748 -0.3109  0.5064
 6075TIP3    H139640   3.472   6.403   2.138 -1.4855  0.2575  1.7687
 6075TIP3    H239641   3.602   6.349   2.192 -0.6420 -0.0030 -0.5003
 6076TIP3   OH239642   4.299   2.117   0.947  0.4157 -0.4349  0.6185
 6076TIP3    H139643   4.361   2.189   0.936 -0.0040 -0.0626  0.6828
 6076TIP3    H239644   4.304   2.068   0.865 -0.7626  0.8183 -0.2243
 6077TIP3   OH239645   4.740   5.574   1.242  0.5389 -0.0643 -0.2870
 6077TIP3    H139646   4.798   5.648   1.225  0.9998 -0.1581  0.8251
 6077TIP3    H239647   4.799   5.500   1.254  0.1134 -0.4703 -0.7365
 6078TIP3   OH239648   5.489   4.177  13.304  0.2639 -0.0775  0.3138
 6078TIP3    H139649   5.579   4.191  13.273  0.8530  1.9028  2.7406
 6078TIP3    H239650   5.484   4.226  13.386 -2.6948 -1.1429  0.8399
 6079TIP3   OH239651   3.406   5.630  13.364  0.0644  0.0494  0.6066
 6079TIP3    H139652   3.422   5.650  13.272  1.1739 -0.8125  0.6039
 6079TIP3    H239653   3.423   5.536  13.372 -1.5444 -0.1957  1.3706
 6080TIP3   OH239654   4.037   2.332   4.765  0.4050 -0.6766  0.1310
 6080TIP3    H139655   4.005   2.255   4.718  2.0534 -1.8412  0.8642
 6080TIP3    H239656   4.108   2.366   4.711 -0.8364  0.8207 -0.5888
 6081TIP3   OH239657   4.748   3.890   1.015 -0.1690 -0.0449  0.0171
 6081TIP3    H139658   4.843   3.894   1.028 -0.1767 -1.6543  0.6036
 6081TIP3    H239659   4.737   3.873   0.922  0.1252 -0.1428 -0.0009
 6082TIP3   OH239660   2.891   4.381  15.398 -0.7417 -0.0850  0.3918
 6082TIP3    H139661   2.816   4.323  15.410 -1.0354  0.4405  1.1467
 6082TIP3    H239662   2.871   4.429  15.318 -2.0065  1.2096  1.4428
 6083TIP3   OH239663   5.723   6.713  10.909  0.2114 -0.0300 -0.0714
 6083TIP3    H139664   5.749   6.638  10.855 -2.2045  0.4449 -1.9651
 6083TIP3    H239665   5.760   6.789  10.863 -0.1255  0.2212  0.0744
 6084TIP3   OH239666   0.133   0.330   4.602 -0.0738 -0.7353  0.2957
 6084TIP3    H139667   0.187   0.268   4.553  2.1529  0.6579  0.9230
 6084TIP3    H239668   0.131   0.295   4.691 -1.7777 -1.7586 -0.1171
 6085TIP3   OH239669   3.859   5.000  15.121  0.8010 -0.9000 -0.0393
 6085TIP3    H139670   3.803   4.923  15.132 -0.5322  0.2333  1.4595
 6085TIP3    H239671   3.798   5.071  15.100  2.1540 -0.5339 -2.8571
 6086TIP3   OH239672   4.666   1.875   2.656 -0.1942  0.2312  0.4753
 6086TIP3    H139673   4.665   1.781   2.637  0.1917 -0.1664  2.3146
 6086TIP3    H239674   4.755   1.903   2.636  0.0030 -0.0358  0.9571
 6087TIP3   OH239675   0.337   2.100  13.516  0.0243 -0.0555  0.1077
 6087TIP3    H139676   0.279   2.134  13.584  0.1913 -0.0898  0.2682
 6087TIP3    H239677   0.283   2.097  13.437 -0.3543 -0.6350  0.3893
 6088TIP3   OH239678   6.668   0.856   0.103 -0.4912 -0.2111 -0.0308
 6088TIP3    H139679   6.739   0.828   0.045 -0.5491 -1.1056  0.3205
 6088TIP3    H239680   6.590   0.857   0.048 -0.1187  1.3817 -0.5766
 6089TIP3   OH239681   5.426   0.210  13.750  0.3444 -0.6895 -0.2080
 6089TIP3    H139682   5.490   0.281  13.739  0.6462 -0.6039  1.9068
 6089TIP3    H239683   5.452   0.144  13.686  3.0919 -1.0151  1.1489
 6090TIP3   OH239684   1.674   3.200   4.730 -0.6100  0.8017  0.7924
 6090TIP3    H139685   1.735   3.174   4.798  0.7032  2.1107  0.1388
 6090TIP3    H239686   1.587   3.177   4.765  0.1716 -0.1722  2.1233
 6091TIP3   OH239687   2.660   2.839   1.321  0.1517  0.1529 -0.4290
 6091TIP3    H139688   2.685   2.754   1.357 -0.4702 -0.9148 -2.4097
 6091TIP3    H239689   2.608   2.817   1.244 -1.6483  2.3510  0.1341
 6092TIP3   OH239690   5.540   4.581   3.045 -0.3159  0.4663 -0.3259
 6092TIP3    H139691   5.488   4.661   3.041  0.6683  1.0420 -2.0111
 6092TIP3    H239692   5.583   4.576   2.960  1.2137 -0.7983  0.4955
 6093TIP3   OH239693   5.327   4.033   6.013  0.9310 -0.2101 -0.1356
 6093TIP3    H139694   5.310   4.042   5.920  0.9610 -0.6942 -0.1920
 6093TIP3    H239695   5.360   4.118   6.041  0.2525  0.1473 -0.4244
 6094TIP3   OH239696   4.881   0.327  14.988 -0.2264 -0.4530 -1.0965
 6094TIP3    H139697   4.959   0.273  14.979 -0.5939 -1.3889  0.9372
 6094TIP3    H239698   4.898   0.404  14.934  1.9930 -0.7569 -0.8632
 6095TIP3   OH239699   1.627   3.981  12.345  0.6020 -0.0389  0.3959
 6095TIP3    H139700   1.638   4.014  12.255  2.7346  0.3748  0.7846
 6095TIP3    H239701   1.656   3.890  12.341  0.1305 -0.1990  0.5559
 6096TIP3   OH239702   6.581   3.722  16.892 -0.0257  0.3345 -0.3588
 6096TIP3    H139703   6.618   3.734  16.804  0.9124 -1.6121 -0.2591
 6096TIP3    H239704   6.487   3.722  16.878  0.1370 -2.8944 -1.8280
 6097TIP3   OH239705   0.946   0.060  11.526  0.8783 -0.1016  0.0381
 6097TIP3    H139706   0.862   0.087  11.564  0.9604  0.4862 -0.1990
 6097TIP3    H239707   0.957   0.116  11.450  0.5546 -1.5160 -1.0804
 6098TIP3   OH239708   1.154   5.833   1.791  0.1764  0.0307 -0.5267
 6098TIP3    H139709   1.085   5.787   1.839 -0.0869  1.8455  0.9102
 6098TIP3    H239710   1.235   5.787   1.814  0.1421  1.2401  2.2264
 6099TIP3   OH239711   1.374   3.902   3.964  0.4867 -0.4379  1.0106
 6099TIP3    H139712   1.466   3.919   3.944  0.1584  0.7768  0.4357
 6099TIP3    H239713   1.343   3.848   3.891  0.5129 -0.0542  0.7130
 6100TIP3   OH239714   0.213   1.866   1.335 -0.5946  0.2649 -0.2142
 6100TIP3    H139715   0.266   1.945   1.320 -0.6564  0.2129 -0.7053
 6100TIP3    H239716   0.123   1.898   1.337 -0.6027  0.2397 -0.1781
 6101TIP3   OH239717   5.512   3.843   2.462  0.3617  0.0620  0.6808
 6101TIP3    H139718   5.443   3.901   2.430 -0.8001 -1.0953  1.0271
 6101TIP3    H239719   5.585   3.856   2.401 -1.1983 -0.8118 -1.4570
 6102TIP3   OH239720   5.985   1.687  11.842 -0.2165 -0.2614 -0.6874
 6102TIP3    H139721   6.065   1.637  11.858 -0.1371 -0.6170 -2.1139
 6102TIP3    H239722   5.937   1.636  11.776 -1.5280  0.0473 -0.0057
 6103TIP3   OH239723   5.049   4.284  13.673 -0.0564 -0.3708  0.1703
 6103TIP3    H139724   5.130   4.313  13.630  1.6416  1.0400  4.1093
 6103TIP3    H239725   5.062   4.190  13.687  0.6339 -0.2741  0.2078
 6104TIP3   OH239726   5.968   6.219  12.234  0.3015  0.1289 -0.0669
 6104TIP3    H139727   6.051   6.263  12.254  0.5193 -1.2056  2.2291
 6104TIP3    H239728   5.912   6.287  12.199  1.1224  1.9037  1.9780
 6105TIP3   OH239729   6.279   0.410  16.459  0.6531 -0.1708 -0.3204
 6105TIP3    H139730   6.274   0.475  16.388  1.9785 -0.8028 -1.0130
 6105TIP3    H239731   6.371   0.413  16.487 -0.5651  2.5800  3.7772
 6106TIP3   OH239732   1.248   6.013  13.530  0.0917  0.6899  0.1108
 6106TIP3    H139733   1.271   6.081  13.595 -2.3814  1.5863  0.1028
 6106TIP3    H239734   1.256   6.057  13.446 -1.2425  0.8996  0.0883
 6107TIP3   OH239735   6.615   3.321   3.302  0.2844 -0.5829 -0.3126
 6107TIP3    H139736   6.564   3.271   3.366 -0.7306 -0.6639 -1.1662
 6107TIP3    H239737   6.580   3.409   3.308  1.8101 -0.0387  0.9131
 6108TIP3   OH239738   4.831   0.203   0.703 -0.0387  0.4860 -0.1633
 6108TIP3    H139739   4.761   0.237   0.646 -1.2233 -0.6833  0.5736
 6108TIP3    H239740   4.835   0.110   0.683 -1.1963 -0.1624  2.3824
 6109TIP3   OH239741   0.087   5.928  13.408  0.5792  0.5599  0.0332
 6109TIP3    H139742   0.136   5.851  13.436 -0.8631 -0.4658 -0.1818
 6109TIP3    H239743   0.097   5.930  13.313  1.4833  1.2617  0.1333
 6110TIP3   OH239744   2.480   0.999   6.627 -0.3633 -0.4083  0.2540
 6110TIP3    H139745   2.433   0.964   6.703 -0.0704  0.0580  0.6479
 6110TIP3    H239746   2.570   0.968   6.639  0.2405  1.7115  1.3827
 6111TIP3   OH239747   6.501   2.231  16.263 -0.2884  0.1020 -0.1782
 6111TIP3    H139748   6.575   2.178  16.232 -0.7046  0.1461 -1.2628
 6111TIP3    H239749   6.479   2.287  16.188 -0.9462  0.6052  0.3927
 6112TIP3   OH239750   3.243   6.630  14.462 -0.3664 -1.0182  0.5097
 6112TIP3    H139751   3.331   6.594  14.449  0.3227  1.2332 -1.4543
 6112TIP3    H239752   3.247   6.674  14.546  0.7605  0.0725 -0.1048
 6113TIP3   OH239753   2.957   5.597  11.663 -0.5192 -0.8787 -0.0815
 6113TIP3    H139754   2.985   5.688  11.662 -1.0839 -0.7045 -0.7991
 6113TIP3    H239755   2.924   5.581  11.574 -0.4294 -1.7770  0.0418
 6114TIP3   OH239756   2.319   4.986   5.333  0.0810  0.5826 -0.1128
 6114TIP3    H139757   2.336   4.938   5.414 -1.8715  3.0793  1.8686
 6114TIP3    H239758   2.406   4.999   5.295  0.8085 -2.9084  0.1538
 6115TIP3   OH239759   0.686   4.906   6.424  0.3804  0.0742 -0.3757
 6115TIP3    H139760   0.775   4.890   6.454  0.4235 -0.0063 -0.5480
 6115TIP3    H239761   0.651   4.819   6.404  0.8607  0.2422 -2.0130
 6116TIP3   OH239762   3.899   4.783   4.653 -0.1488  0.4430 -0.4100
 6116TIP3    H139763   3.993   4.773   4.638 -0.3330  0.4484 -1.5873
 6116TIP3    H239764   3.864   4.807   4.568 -1.0979  1.3320  0.2220
 6117TIP3   OH239765   3.788   3.802   4.605  0.3849 -0.9320 -0.4577
 6117TIP3    H139766   3.779   3.783   4.511 -3.7030  0.0570 -0.3865
 6117TIP3    H239767   3.828   3.889   4.608 -0.8853 -0.2970 -1.3594
 6118TIP3   OH239768   2.055   3.973  14.642  0.1173  0.3007  0.3325
 6118TIP3    H139769   1.969   4.015  14.650  1.2154  2.1681  2.8505
 6118TIP3    H239770   2.115   4.045  14.623  1.1852 -0.9604 -1.1224
 6119TIP3   OH239771   2.309   0.085  13.933  0.7947 -0.0482 -0.6508
 6119TIP3    H139772   2.358   0.004  13.948  0.5463 -0.2315 -0.8202
 6119TIP3    H239773   2.294   0.086  13.839 -0.4209 -0.5167 -0.4657
 6120TIP3   OH239774   4.954   6.700  12.843 -0.4741  0.4464  0.6078
 6120TIP3    H139775   5.005   6.663  12.770 -2.0224 -1.1852  0.3071
 6120TIP3    H239776   4.905   6.772  12.803 -1.0090 -0.1830  0.1111
 6121TIP3   OH239777   1.172   0.037   3.413 -0.2514  0.4298 -0.0483
 6121TIP3    H139778   1.200   0.076   3.331  1.6915 -1.2760 -0.2405
 6121TIP3    H239779   1.237  -0.031   3.431 -0.0373  1.4542  3.4203
 6122TIP3   OH239780   4.761   1.571   0.463 -0.1243 -0.2077  0.4681
 6122TIP3    H139781   4.811   1.616   0.532  0.4615 -1.1545  0.6711
 6122TIP3    H239782   4.826   1.551   0.396 -0.4035 -0.6386  0.3260
 6123TIP3   OH239783   5.621   1.948   0.143 -0.2081 -0.0021  0.5213
 6123TIP3    H139784   5.531   1.927   0.116  0.4516 -0.6990 -1.2096
 6123TIP3    H239785   5.644   2.025   0.091 -0.3070  1.0745  2.0490
 6124TIP3   OH239786   3.183   1.014   6.025 -0.2103  0.5235 -0.1589
 6124TIP3    H139787   3.252   1.067   5.985  1.3669 -1.5625 -0.3302
 6124TIP3    H239788   3.202   1.017   6.118  1.5278 -1.8924 -0.3955
 6125TIP3   OH239789   5.971   0.739  17.096  0.0784 -0.1555  0.1529
 6125TIP3    H139790   6.062   0.752  17.123  0.4931 -1.3273 -0.6521
 6125TIP3    H239791   5.937   0.828  17.084  1.5815  0.2744 -1.0505
 6126TIP3   OH239792   3.294   3.877  11.776  0.6506 -0.3404 -0.0335
 6126TIP3    H139793   3.250   3.957  11.805 -0.0990 -0.7095 -0.1506
 6126TIP3    H239794   3.230   3.808  11.790  1.7011 -1.0969  1.1164
 6127TIP3   OH239795   5.593   0.449  12.526  0.6659 -0.1176  0.6036
 6127TIP3    H139796   5.630   0.385  12.466  0.6068 -0.1200  0.5694
 6127TIP3    H239797   5.661   0.516  12.535  0.3753  0.2731 -0.0643
 6128TIP3   OH239798   2.849   3.731   1.903 -0.1757  0.0789  0.3184
 6128TIP3    H139799   2.940   3.736   1.873  0.0627 -1.2060  0.8060
 6128TIP3    H239800   2.855   3.694   1.991 -0.9436  2.7829  1.5932
 6129TIP3   OH239801   5.676   5.051   0.350  0.0594  0.1302 -0.3433
 6129TIP3    H139802   5.671   4.957   0.334 -2.5510  0.1884 -0.0121
 6129TIP3    H239803   5.612   5.090   0.290 -0.3260  1.5014  0.9176
 6130TIP3   OH239804   6.185   4.978   5.154  0.1600  0.4061  0.1541
 6130TIP3    H139805   6.195   5.070   5.129  0.9056  1.3985  3.8904
 6130TIP3    H239806   6.092   4.969   5.175  0.2437  0.5207  0.5747
 6131TIP3   OH239807   0.401   4.385   3.388 -0.3126  0.3766  0.5293
 6131TIP3    H139808   0.459   4.434   3.329 -2.9037  0.2202 -2.2813
 6131TIP3    H239809   0.456   4.363   3.463  3.6095 -0.7998 -2.5214
 6132TIP3   OH239810   5.314   2.308  16.644  0.9371  0.3018  1.1140
 6132TIP3    H139811   5.320   2.373  16.714 -0.7616 -0.2509  1.8183
 6132TIP3    H239812   5.285   2.358  16.567 -2.6301  0.1129  2.2147
 6133TIP3   OH239813   6.316   2.312  17.141  0.2838  0.4497  0.0135
 6133TIP3    H139814   6.308   2.380  17.074  0.5364  0.9634  0.5055
 6133TIP3    H239815   6.227   2.277  17.150 -0.0953  1.5613  0.6423
 6134TIP3   OH239816   1.589   0.978  13.650 -0.2074 -0.2102  0.3017
 6134TIP3    H139817   1.508   1.020  13.677 -1.0471 -1.7191  0.1806
 6134TIP3    H239818   1.574   0.951  13.559  0.2686 -0.8931  0.4174
 6135TIP3   OH239819   6.407   5.959  11.455  0.3275  0.5084  0.7199
 6135TIP3    H139820   6.361   6.021  11.398  0.2484 -0.8738 -0.7495
 6135TIP3    H239821   6.498   5.961  11.424  0.1147 -0.8615  0.0030
 6136TIP3   OH239822   1.139   0.867   2.480  0.1196 -0.2397 -0.1672
 6136TIP3    H139823   1.152   0.879   2.386  0.8472  0.8035  0.0486
 6136TIP3    H239824   1.063   0.809   2.487  3.0490 -4.4510 -1.4454
 6137TIP3   OH239825   5.688   3.368   3.007  0.4729  0.2897  0.4119
 6137TIP3    H139826   5.661   3.455   3.039 -1.7889 -0.3009  0.2508
 6137TIP3    H239827   5.684   3.376   2.911  1.3125  0.3279  0.3844
 6138TIP3   OH239828   3.425   5.329   3.925 -0.3734 -0.3529  0.4319
 6138TIP3    H139829   3.360   5.394   3.899 -0.7593 -0.2712  1.5942
 6138TIP3    H239830   3.463   5.299   3.842 -1.7783 -0.2902 -0.2560
 6139TIP3   OH239831   1.220   1.002   5.231  0.5504  0.4305  0.1293
 6139TIP3    H139832   1.283   1.017   5.302  1.1046 -0.8629 -0.0830
 6139TIP3    H239833   1.266   0.946   5.169 -1.3865 -1.9392  0.7751
 6140TIP3   OH239834   5.638   6.065   5.288  0.1541  0.6360  0.0842
 6140TIP3    H139835   5.591   6.081   5.206  0.4456 -1.0991 -0.4453
 6140TIP3    H239836   5.574   6.086   5.356 -0.7044  0.3434 -0.6160
 6141TIP3   OH239837   3.845   2.518  13.561 -0.2603 -0.0773 -0.2554
 6141TIP3    H139838   3.782   2.571  13.513 -0.1590 -1.3283 -1.8218
 6141TIP3    H239839   3.887   2.463  13.494  0.6456 -1.1045  1.1103
 6142TIP3   OH239840   6.629   2.596   0.808  0.0973 -0.0890 -0.8436
 6142TIP3    H139841   6.701   2.645   0.848  0.1484  0.7875 -1.9694
 6142TIP3    H239842   6.660   2.574   0.720 -0.3541 -1.2008 -0.7319
 6143TIP3   OH239843   6.675   4.352   5.223  0.3190 -0.5082  0.2850
 6143TIP3    H139844   6.704   4.262   5.237  0.4053 -0.1494  2.6572
 6143TIP3    H239845   6.585   4.343   5.193  0.2618 -1.4008  0.6932
 6144TIP3   OH239846   3.173   5.514   3.553 -0.5382  0.5351  0.0285
 6144TIP3    H139847   3.261   5.551   3.556 -0.5750  0.8679 -2.4457
 6144TIP3    H239848   3.116   5.589   3.572 -0.3536  0.5144  0.6960
 6145TIP3   OH239849   2.709   5.680  16.783  0.4410 -0.1037  0.1611
 6145TIP3    H139850   2.704   5.655  16.690 -0.4689 -2.5782  0.8243
 6145TIP3    H239851   2.651   5.756  16.790 -1.3389 -1.3228 -0.8800
 6146TIP3   OH239852   4.266   5.586  16.227  0.2123 -0.0187  0.0101
 6146TIP3    H139853   4.299   5.662  16.181 -1.6905  0.9779  0.2360
 6146TIP3    H239854   4.328   5.516  16.207  1.0288  1.1517 -1.6038
 6147TIP3   OH239855   4.721   1.240   0.209  0.1375 -1.3776 -0.2323
 6147TIP3    H139856   4.696   1.158   0.166  0.7979 -1.4341 -0.5044
 6147TIP3    H239857   4.637   1.280   0.233 -0.2178 -1.7127 -0.8795
 6148TIP3   OH239858   6.133   6.068   1.197 -0.0184  0.5345  0.6301
 6148TIP3    H139859   6.094   6.155   1.192 -1.3336  0.0121  1.3845
 6148TIP3    H239860   6.197   6.066   1.126 -1.4377  1.4014 -0.7163
 6149TIP3   OH239861   2.245   3.958   2.628 -0.6151 -0.1165 -0.0387
 6149TIP3    H139862   2.188   3.888   2.660 -0.0628 -0.7244 -0.3808
 6149TIP3    H239863   2.218   4.035   2.678 -1.7788 -0.3816 -0.2263
 6150TIP3   OH239864   1.809   5.360  16.496  0.8927 -0.1975 -0.0026
 6150TIP3    H139865   1.771   5.380  16.410  0.0283  0.6619  0.5744
 6150TIP3    H239866   1.826   5.445  16.536  1.1566 -0.5964  0.7466
 6151TIP3   OH239867   3.872   4.691   5.956 -0.1753  0.0969 -0.0184
 6151TIP3    H139868   3.801   4.662   5.899 -0.3090 -0.6036  0.4920
 6151TIP3    H239869   3.922   4.612   5.973 -0.4783  0.1774  1.3030
 6152TIP3   OH239870   1.919   1.230   2.418  0.1562  0.8206  0.0377
 6152TIP3    H139871   1.846   1.178   2.384  1.7603 -1.2396 -0.3844
 6152TIP3    H239872   1.960   1.267   2.341  0.8936  0.1298  0.0950
 6153TIP3   OH239873   5.838   2.740  16.612 -0.9102 -0.2579  0.0169
 6153TIP3    H139874   5.851   2.658  16.659 -1.6717  0.3735  1.3497
 6153TIP3    H239875   5.750   2.768  16.636 -0.8464  0.7025 -0.8288
 6154TIP3   OH239876   2.075   0.167   5.746 -0.0588  0.7927  0.0892
 6154TIP3    H139877   2.114   0.082   5.765 -0.2573  1.2313  2.7007
 6154TIP3    H239878   1.981   0.153   5.756 -0.0333  1.5136  1.5532
 6155TIP3   OH239879   5.625   3.259  16.597 -0.3999  0.3827 -0.6338
 6155TIP3    H139880   5.558   3.198  16.626  0.0715  0.6300  1.0144
 6155TIP3    H239881   5.601   3.343  16.636 -0.0960  0.8731 -1.4751
 6156TIP3   OH239882   3.448   3.990   5.447 -0.3784  0.0432  0.5095
 6156TIP3    H139883   3.414   4.076   5.475 -0.1236 -0.5631  2.7165
 6156TIP3    H239884   3.506   3.963   5.517 -0.9386 -2.2421  0.1134
 6157TIP3   OH239885   6.198   2.499   1.127 -0.2164  0.2047 -0.4086
 6157TIP3    H139886   6.214   2.590   1.100 -1.2796  1.1271  1.8589
 6157TIP3    H239887   6.282   2.469   1.162  1.1117 -0.9397 -4.3697
 6158TIP3   OH239888   2.656   0.816  12.270  0.1063  0.1694  0.8166
 6158TIP3    H139889   2.665   0.756  12.345  0.7402 -1.0908 -0.2495
 6158TIP3    H239890   2.712   0.890  12.292  0.5656 -0.3562  1.4453
 6159TIP3   OH239891   2.364   2.794  17.203  0.2604 -0.6087  0.2140
 6159TIP3    H139892   2.329   2.776  17.116  0.2502  0.2217  0.0470
 6159TIP3    H239893   2.423   2.868  17.191  0.2192 -0.4531  0.9215
 6160TIP3   OH239894   4.877   3.017  13.988 -0.0481  0.2943  0.3051
 6160TIP3    H139895   4.930   3.060  13.920 -0.2542 -0.5893 -0.4191
 6160TIP3    H239896   4.919   2.932  14.001 -0.9667 -0.1865  0.1309
 6161TIP3   OH239897   3.789   5.003   0.810 -0.4749 -0.2588 -0.0803
 6161TIP3    H139898   3.800   5.095   0.833 -1.4949 -0.2556  0.4344
 6161TIP3    H239899   3.878   4.967   0.809 -0.0888  0.6995 -0.1564
 6162TIP3   OH239900   2.552   1.965  14.449 -0.3324  0.7370 -0.6525
 6162TIP3    H139901   2.644   1.972  14.424 -0.5225  2.5904 -0.9197
 6162TIP3    H239902   2.523   2.056  14.459 -1.9403  0.1599  0.1394
 6163TIP3   OH239903   5.766   5.124  12.181  0.3422  0.2357 -0.1648
 6163TIP3    H139904   5.761   5.042  12.230 -1.6794  1.0103  0.9734
 6163TIP3    H239905   5.830   5.177  12.229  1.9820 -0.7929 -1.1468
 6164TIP3   OH239906   6.373   3.386  13.282 -0.5770 -0.4429 -0.2989
 6164TIP3    H139907   6.401   3.429  13.201 -1.3702 -1.2131 -0.9888
 6164TIP3    H239908   6.349   3.297  13.255 -0.2840 -0.8889  0.8823
 6165TIP3   OH239909   5.297   1.716   4.925 -0.3144 -0.2956 -0.2545
 6165TIP3    H139910   5.304   1.783   4.992 -0.9299  0.2320 -0.7089
 6165TIP3    H239911   5.331   1.758   4.845 -1.6152 -0.1888 -0.7629
 6166TIP3   OH239912   1.197   6.392  11.217 -0.2619  0.4017 -0.3261
 6166TIP3    H139913   1.245   6.435  11.287  1.6188 -0.9235 -0.7814
 6166TIP3    H239914   1.259   6.330  11.179 -1.2529  1.0261 -3.1162
 6167TIP3   OH239915   2.507   5.861   5.166  0.5498 -0.1267 -0.2887
 6167TIP3    H139916   2.583   5.915   5.144  0.9068  0.5075  2.3411
 6167TIP3    H239917   2.432   5.911   5.134  1.0699  0.3523 -0.7921
 6168TIP3   OH239918   1.320   1.795   0.686 -0.1726 -0.5644 -0.0534
 6168TIP3    H139919   1.367   1.761   0.762 -0.2635  0.0163  0.2675
 6168TIP3    H239920   1.368   1.762   0.610  0.9220  0.2563  0.2737
 6169TIP3   OH239921   0.589   1.827   4.620  0.1341  0.0358  0.5386
 6169TIP3    H139922   0.609   1.735   4.601 -1.2372 -0.1777  0.1016
 6169TIP3    H239923   0.669   1.874   4.596 -0.5629 -0.5408 -3.2682
 6170TIP3   OH239924   3.909   5.790   4.046  0.4566 -0.7143 -0.2974
 6170TIP3    H139925   3.889   5.713   3.993  1.1212  0.3422 -2.0909
 6170TIP3    H239926   3.833   5.799   4.104 -0.3672 -1.7327 -1.1965
 6171TIP3   OH239927   0.847   2.212  16.486 -0.3971  0.0588 -0.2190
 6171TIP3    H139928   0.929   2.163  16.491 -1.0064 -0.9590 -0.1040
 6171TIP3    H239929   0.814   2.212  16.576 -1.7077 -1.6093 -0.6690
 6172TIP3   OH239930   3.051   3.196   1.590  0.3797  0.2224 -0.3591
 6172TIP3    H139931   3.060   3.276   1.539  1.5108  1.3163  1.5195
 6172TIP3    H239932   2.967   3.205   1.634 -0.5246 -0.6530 -1.8436
 6173TIP3   OH239933   3.609   6.545  16.969  0.0273 -0.3916  0.2591
 6173TIP3    H139934   3.574   6.632  16.989 -0.6792 -0.8090  0.8659
 6173TIP3    H239935   3.564   6.519  16.889  1.4762  0.4895 -0.8861
 6174TIP3   OH239936   1.728   1.671   1.111  0.0050  0.4810  0.3325
 6174TIP3    H139937   1.760   1.606   1.048  0.4651  0.2143  0.8353
 6174TIP3    H239938   1.741   1.755   1.068 -1.9865  0.1748 -0.9478
 6175TIP3   OH239939   3.358   6.517   5.426  0.2289  0.1105 -0.4418
 6175TIP3    H139940   3.271   6.518   5.385  0.4616 -0.4962 -0.9619
 6175TIP3    H239941   3.414   6.565   5.365  0.7266 -1.4045 -1.1997
 6176TIP3   OH239942   6.431   0.090  13.499 -0.3129  0.0530 -0.1714
 6176TIP3    H139943   6.354   0.146  13.487 -0.4828 -0.2453 -0.5060
 6176TIP3    H239944   6.492   0.143  13.549 -0.9936  0.0606  0.6613
 6177TIP3   OH239945   6.024   0.860   5.393 -0.9010  0.0903 -0.1762
 6177TIP3    H139946   5.993   0.793   5.454 -0.8933  0.5850  0.3809
 6177TIP3    H239947   6.004   0.825   5.306 -2.4875  0.1244  0.1572
 6178TIP3   OH239948   5.008   0.599   3.027 -0.4621 -0.0213 -0.1870
 6178TIP3    H139949   5.103   0.589   3.015 -0.0833  1.1996  1.4807
 6178TIP3    H239950   5.001   0.662   3.099 -2.5399 -1.2672  0.7249
 6179TIP3   OH239951   4.177   3.379  14.889  0.2454 -0.4444 -0.6004
 6179TIP3    H139952   4.187   3.332  14.806  0.4394 -1.1536 -0.1807
 6179TIP3    H239953   4.262   3.369  14.932  0.7110  1.3738 -1.0516
 6180TIP3   OH239954   1.138   6.714  13.314  0.1151 -0.2891  0.0991
 6180TIP3    H139955   1.106   6.742  13.400 -1.8563  0.7914 -0.9518
 6180TIP3    H239956   1.083   6.638  13.292  0.7906 -0.7263 -0.1063
 6181TIP3   OH239957   3.022   0.565  13.353  0.0588 -0.2183 -0.1424
 6181TIP3    H139958   2.952   0.609  13.305 -0.0257 -0.5231 -0.2977
 6181TIP3    H239959   3.026   0.477  13.316  0.3318 -0.2949  0.0614
 6182TIP3   OH239960   4.872   4.502   3.206  0.2483  0.4173  0.7473
 6182TIP3    H139961   4.904   4.412   3.215 -0.6705 -0.3242 -2.6011
 6182TIP3    H239962   4.855   4.530   3.296  2.1514 -2.1391  1.9891
 6183TIP3   OH239963   3.613   3.932   5.661 -0.1158 -0.0573 -0.9616
 6183TIP3    H139964   3.613   3.887   5.745  0.4588 -0.7554 -1.3410
 6183TIP3    H239965   3.620   4.025   5.684  0.2306 -0.2585 -0.2518
 6184TIP3   OH239966   1.595   6.660   4.876 -0.1274 -0.3553  0.0671
 6184TIP3    H139967   1.645   6.682   4.954 -1.1619  2.0420  0.0675
 6184TIP3    H239968   1.645   6.699   4.804  0.9215 -2.6987 -0.5617
 6185TIP3   OH239969   1.656   5.743  13.882  0.3199  0.0773 -0.1829
 6185TIP3    H139970   1.713   5.734  13.806 -1.4872 -0.9184 -1.4402
 6185TIP3    H239971   1.639   5.654  13.911  0.2297  0.4121  0.8231
 6186TIP3   OH239972   2.428   2.484   4.294 -0.4555 -0.2463 -0.2540
 6186TIP3    H139973   2.382   2.410   4.256 -2.8503  1.1458 -0.1717
 6186TIP3    H239974   2.475   2.524   4.221 -1.2044 -0.3815 -0.8172
 6187TIP3   OH239975   4.441   4.328  11.709  0.5124  0.2411 -0.7641
 6187TIP3    H139976   4.409   4.326  11.619 -0.1904  1.3594 -0.5469
 6187TIP3    H239977   4.366   4.354  11.761  1.1798  0.6203  0.0307
 6188TIP3   OH239978   3.581   5.809  10.516 -0.6458 -0.5486  0.2349
 6188TIP3    H139979   3.542   5.834  10.432 -2.4259 -1.2803  0.8343
 6188TIP3    H239980   3.644   5.741  10.494 -0.4141 -0.0593 -0.6254
 6189TIP3   OH239981   3.323   0.676   5.225  0.3401 -0.2672  0.1740
 6189TIP3    H139982   3.335   0.666   5.131  0.7690 -0.2477  0.2251
 6189TIP3    H239983   3.410   0.661   5.262  0.4670  1.1372  0.4584
 6190TIP3   OH239984   0.129   2.221  13.637 -0.4880  0.0925  0.7366
 6190TIP3    H139985   0.051   2.178  13.602 -0.8599  0.6863  0.8316
 6190TIP3    H239986   0.111   2.231  13.730  0.3011 -1.0523  1.0230
 6191TIP3   OH239987   2.542   3.058  13.353  0.2046 -0.4916 -0.0143
 6191TIP3    H139988   2.477   3.028  13.416 -0.1208  0.2921  0.0184
 6191TIP3    H239989   2.529   3.002  13.276  0.2390 -1.0796  0.4092
 6192TIP3   OH239990   3.487   3.209   0.828  0.1195  0.1925  0.0818
 6192TIP3    H139991   3.570   3.202   0.874 -0.2367  1.3910  0.9527
 6192TIP3    H239992   3.421   3.188   0.894 -0.4451  2.6917  0.3907
 6193TIP3   OH239993   5.996   0.017  14.793 -0.5612  0.4041 -0.1900
 6193TIP3    H139994   6.031   0.092  14.840 -1.9975  1.0065 -0.0408
 6193TIP3    H239995   6.039   0.020  14.708 -0.5469  1.3653 -0.1561
 6194TIP3   OH239996   3.213   4.421  14.480  0.0211 -0.1225  0.3286
 6194TIP3    H139997   3.262   4.502  14.463 -0.1679 -0.3850 -1.5483
 6194TIP3    H239998   3.126   4.451  14.505  0.1546  0.2775  0.3309
 6195TIP3   OH239999   2.185   4.530   1.248 -0.5292 -0.1021 -0.3673
 6195TIP3    H140000   2.262   4.564   1.294 -1.1235 -0.3004  0.7759
 6195TIP3    H240001   2.174   4.441   1.283 -0.1769 -0.7641 -1.8869
 6196TIP3   OH240002   1.761   2.695  10.911  0.0362  0.1810 -0.0057
 6196TIP3    H140003   1.819   2.753  10.862  0.1068  0.2758  0.1866
 6196TIP3    H240004   1.677   2.699  10.866  0.4422 -0.7022 -0.8602
 6197TIP3   OH240005   1.988   6.000   5.591  0.0170  0.1157 -0.1597
 6197TIP3    H140006   2.035   5.934   5.541 -2.1247 -1.8242  0.2691
 6197TIP3    H240007   2.024   6.084   5.562  1.7988 -1.1836 -1.7605
 6198TIP3   OH240008   6.254   5.594  10.987 -0.5314  0.4616 -0.0632
 6198TIP3    H140009   6.336   5.578  10.940  0.0719  0.2547  1.0579
 6198TIP3    H240010   6.274   5.667  11.046 -0.7389 -0.5292  1.2420
 6199TIP3   OH240011   4.770   3.170  14.432  0.0637 -0.2967  0.2902
 6199TIP3    H140012   4.769   3.167  14.337  1.1286  1.9573  0.1735
 6199TIP3    H240013   4.686   3.209  14.456  0.2668  0.1888  0.2145
 6200TIP3   OH240014   4.401   1.046   6.061 -0.3813 -0.1019  0.2232
 6200TIP3    H140015   4.368   1.132   6.086  1.4239  0.3334  1.2232
 6200TIP3    H240016   4.388   0.991   6.139  2.0864  0.3483  1.0157
 6201TIP3   OH240017   6.161   5.456  15.199 -0.3613  0.6467  0.1934
 6201TIP3    H140018   6.132   5.539  15.237  1.6815  1.3925  0.1815
 6201TIP3    H240019   6.170   5.474  15.106 -1.3242 -0.0025 -0.0278
 6202TIP3   OH240020   5.782   5.674  15.797  0.0979  0.4524 -0.1459
 6202TIP3    H140021   5.740   5.758  15.778 -0.6181  0.2466  0.5177
 6202TIP3    H240022   5.836   5.691  15.874  1.2013  0.6978 -0.9533
 6203TIP3   OH240023   5.791   3.502  16.381  0.6239  0.2146 -0.2195
 6203TIP3    H140024   5.847   3.495  16.303 -1.5846 -3.2533 -1.6143
 6203TIP3    H240025   5.813   3.424  16.432 -1.8946 -0.4294 -0.0897
 6204TIP3   OH240026   2.994   5.258  11.406  0.1063  0.5337 -0.6110
 6204TIP3    H140027   3.016   5.256  11.499  0.4569 -1.8749 -0.7323
 6204TIP3    H240028   2.900   5.278  11.405 -0.1410 -0.5280  0.3099
 6205TIP3   OH240029   4.032   5.997  12.198 -0.0065  0.4019  0.6385
 6205TIP3    H140030   4.074   6.046  12.127  0.3894 -0.1000  0.5327
 6205TIP3    H240031   3.959   5.951  12.155  1.7814 -1.9532  0.0763
 6206TIP3   OH240032   5.609   3.917  16.968  0.0455  0.1898 -0.3980
 6206TIP3    H140033   5.695   3.919  16.925 -0.3533 -1.3499 -1.3270
 6206TIP3    H240034   5.572   4.003  16.951 -0.3421 -0.5771 -3.7032
 6207TIP3   OH240035   2.704   0.014   0.955  0.9757 -0.5076  0.6399
 6207TIP3    H140036   2.709  -0.081   0.954  1.0802 -0.5242  2.1709
 6207TIP3    H240037   2.708   0.038   1.048 -2.0892  0.8291  0.4832
 6208TIP3   OH240038   0.246   1.468  13.147 -0.4495 -0.4396  0.2107
 6208TIP3    H140039   0.305   1.467  13.072 -0.3911 -1.9536  0.2546
 6208TIP3    H240040   0.218   1.377  13.157 -0.8615 -0.1686  1.7060
 6209TIP3   OH240041   1.447   2.781   5.541 -0.1810 -0.8015  0.1942
 6209TIP3    H140042   1.495   2.729   5.476  1.3896 -0.6556  1.2157
 6209TIP3    H240043   1.510   2.796   5.611 -0.6877  2.1765  0.0855
 6210TIP3   OH240044   2.440   3.374  15.515  0.3645  0.4576 -0.9383
 6210TIP3    H140045   2.353   3.394  15.481 -0.7688 -0.5774  1.2620
 6210TIP3    H240046   2.450   3.279  15.504 -0.3634 -0.0432  2.2325
 6211TIP3   OH240047   2.054   3.133   5.586 -0.2060  0.0288  0.4071
 6211TIP3    H140048   2.024   3.205   5.642 -0.8563  0.0053  0.0848
 6211TIP3    H240049   2.008   3.056   5.618  0.4616 -0.2492  0.7252
 6212TIP3   OH240050   5.374   2.284  11.734  0.3728  0.2175  0.2631
 6212TIP3    H140051   5.433   2.341  11.783 -0.3237  0.6799  0.5666
 6212TIP3    H240052   5.385   2.312  11.643 -0.0483  0.9251  0.4224
 6213TIP3   OH240053   0.141   3.404   5.295 -0.2649 -0.1811 -0.3136
 6213TIP3    H140054   0.186   3.339   5.350 -0.3222 -1.1590 -1.3985
 6213TIP3    H240055   0.120   3.475   5.355  0.5140 -0.8131  0.7365
 6214TIP3   OH240056   5.948   5.553   6.037 -0.0147  0.6127  0.5834
 6214TIP3    H140057   6.017   5.589   6.093  1.7748  0.8560 -1.6946
 6214TIP3    H240058   5.928   5.623   5.975 -1.6506  0.1929  0.6025
 6215TIP3   OH240059   3.408   2.149   5.725 -0.1034  0.8691 -0.8693
 6215TIP3    H140060   3.402   2.239   5.692  0.5152  0.3153 -2.5389
 6215TIP3    H240061   3.407   2.159   5.821 -0.0974  2.6396 -1.0279
 6216TIP3   OH240062   5.871   0.554   4.615 -0.3942  0.0588  0.0992
 6216TIP3    H140063   5.964   0.567   4.635 -0.6496  0.0385  1.3065
 6216TIP3    H240064   5.871   0.524   4.524  0.9667 -2.1189  0.7560
 6217TIP3   OH240065   5.512   6.527  14.933 -0.2209 -0.3204 -0.6154
 6217TIP3    H140066   5.491   6.574  14.853 -1.0405  1.0249  0.3722
 6217TIP3    H240067   5.591   6.570  14.966 -0.9886  0.4003  0.3039
 6218TIP3   OH240068   3.134   0.432   2.019  0.2333  0.8851  0.0037
 6218TIP3    H140069   3.152   0.520   2.052  1.3386  0.6894 -0.0637
 6218TIP3    H240070   3.166   0.433   1.929  0.2648  0.4088  0.0078
 6219TIP3   OH240071   3.675   4.034  14.271  0.0158  0.2686  0.1609
 6219TIP3    H140072   3.718   4.104  14.223  1.1047 -0.3100  0.2691
 6219TIP3    H240073   3.615   4.079  14.331  0.7696  1.1123  0.2981
 6220TIP3   OH240074   1.188   1.260  14.842 -0.4238  0.7486  0.0024
 6220TIP3    H140075   1.264   1.297  14.797 -0.5832 -0.9781 -1.7493
 6220TIP3    H240076   1.188   1.168  14.818 -1.8671  0.2704  1.7065
 6221TIP3   OH240077   3.835   5.280   5.762  0.3388  0.0341  0.2256
 6221TIP3    H140078   3.749   5.251   5.792 -0.3672  2.5699  0.7519
 6221TIP3    H240079   3.886   5.291   5.842  0.4323  0.6953  0.0796
 6222TIP3   OH240080   4.733   1.969  13.999 -0.4237 -0.0799 -0.4329
 6222TIP3    H140081   4.662   1.929  13.948  0.2771 -2.0560  0.1136
 6222TIP3    H240082   4.801   1.903  14.001  0.5522  0.9549  0.9737
 6223TIP3   OH240083   0.620   5.377   1.464 -0.9243  0.9993  0.3644
 6223TIP3    H140084   0.659   5.450   1.417 -0.5502  2.0803  2.2941
 6223TIP3    H240085   0.687   5.308   1.462 -0.6550  1.2751 -0.0812
 6224TIP3   OH240086   5.497   4.828   2.868  0.7773  0.2495 -0.4770
 6224TIP3    H140087   5.486   4.922   2.880  2.0240  0.2460  0.8066
 6224TIP3    H240088   5.446   4.808   2.790  1.1435  2.1353 -1.2340
 6225TIP3   OH240089   2.000   4.267  14.120 -0.0239 -0.5055 -0.2242
 6225TIP3    H140090   2.045   4.351  14.132  0.0976 -0.2244 -2.4268
 6225TIP3    H240091   2.037   4.210  14.188  0.7617  0.8651  0.5251
 6226TIP3   OH240092   5.305   3.178   6.246 -0.7651 -0.4151  0.7473
 6226TIP3    H140093   5.360   3.189   6.323  0.6809 -0.5273 -0.2590
 6226TIP3    H240094   5.299   3.083   6.235 -1.6101 -0.4133  1.1720
 6227TIP3   OH240095   4.492   0.362   1.096 -0.1028  0.0069 -0.3871
 6227TIP3    H140096   4.550   0.342   1.023 -1.1896  0.0296 -1.2675
 6227TIP3    H240097   4.460   0.277   1.126  1.2129 -0.0927  0.8125
 6228TIP3   OH240098   4.615   0.824  16.887  0.4865 -0.4215 -0.8108
 6228TIP3    H140099   4.666   0.778  16.955  0.8459 -0.7652 -1.3066
 6228TIP3    H240100   4.601   0.911  16.923  0.8088 -0.5534 -0.3549
 6229TIP3   OH240101   0.187   4.738   0.075  0.5650  0.3541 -0.2358
 6229TIP3    H140102   0.115   4.703   0.128  0.0435 -1.0189 -1.7672
 6229TIP3    H240103   0.266   4.718   0.125 -0.1024  1.6305  1.3394
 6230TIP3   OH240104   0.560   6.172   2.870 -0.4293  0.2035  0.0630
 6230TIP3    H140105   0.583   6.240   2.807  1.0805 -0.2497  0.0922
 6230TIP3    H240106   0.626   6.104   2.857 -1.2404 -0.7493  0.8209
 6231TIP3   OH240107   5.406   5.714   2.389 -0.1946  0.1333 -0.2701
 6231TIP3    H140108   5.329   5.710   2.445  0.4720  0.0079  0.6380
 6231TIP3    H240109   5.413   5.626   2.352  0.4705 -0.3340  0.9424
 6232TIP3   OH240110   2.773   0.462  16.884  0.1996 -0.3315  0.3093
 6232TIP3    H140111   2.840   0.480  16.818  0.7970  0.8871  1.2408
 6232TIP3    H240112   2.777   0.367  16.895  2.2521 -0.2088  0.8353
 6233TIP3   OH240113   0.257   3.391  14.812  0.2764 -0.6150 -0.4908
 6233TIP3    H140114   0.212   3.307  14.820  2.9906 -2.2247 -1.3781
 6233TIP3    H240115   0.285   3.412  14.901  0.0554 -0.9290 -0.3469
 6234TIP3   OH240116   2.906   0.493   0.024 -0.4402  0.2635 -0.0070
 6234TIP3    H140117   2.855   0.523  -0.052 -3.5739  0.6582  2.1892
 6234TIP3    H240118   2.968   0.565   0.039 -0.5424  0.6954 -1.4927
 6235TIP3   OH240119   1.685   6.059   2.977 -0.3075  0.5006 -0.2408
 6235TIP3    H140120   1.729   6.119   3.037 -0.8890  0.2725  0.4337
 6235TIP3    H240121   1.699   5.972   3.016 -0.2881  0.3013 -0.6909
 6236TIP3   OH240122   4.891   5.315  15.339 -0.4127  0.8271 -0.0585
 6236TIP3    H140123   4.874   5.400  15.300 -0.4037  0.1141 -1.6419
 6236TIP3    H240124   4.806   5.271  15.337  0.0282  0.0153 -1.1934
 6237TIP3   OH240125   4.652   1.556  14.467 -0.3316  0.4379 -0.0702
 6237TIP3    H140126   4.588   1.551  14.396 -0.4282 -0.9637  0.1112
 6237TIP3    H240127   4.725   1.502  14.438  0.6332  1.7298 -0.1090
 6238TIP3   OH240128   5.714   5.026  10.597 -0.4513  0.1495 -0.0362
 6238TIP3    H140129   5.707   4.966  10.671 -0.1018 -1.0621 -0.9790
 6238TIP3    H240130   5.664   4.985  10.527  0.0557  0.7989 -0.7866
 6239TIP3   OH240131   5.508   4.578   5.017  0.0460  0.0506  0.3713
 6239TIP3    H140132   5.594   4.541   5.036 -0.4557 -1.8004 -0.8907
 6239TIP3    H240133   5.524   4.642   4.948  0.5466  0.4463  0.8454
 6240TIP3   OH240134   6.373   5.947  14.963  0.2296  0.1073  0.1368
 6240TIP3    H140135   6.409   5.951  15.052 -0.5179 -0.5145  0.4740
 6240TIP3    H240136   6.337   6.035  14.949  0.1135  0.1297  0.5473
 6241TIP3   OH240137   4.043   3.003   2.052 -0.4591  0.0260  0.0844
 6241TIP3    H140138   3.989   2.925   2.038 -2.0129  1.4809 -2.3792
 6241TIP3    H240139   4.015   3.064   1.984  1.2777  2.4562  1.4699
 6242TIP3   OH240140   4.062   6.445  16.127 -0.4774 -0.4560 -0.1850
 6242TIP3    H140141   4.003   6.382  16.167  0.0171 -1.9228 -1.7050
 6242TIP3    H240142   4.104   6.489  16.201 -1.2267 -1.5179  0.8990
 6243TIP3   OH240143   6.557   3.463   2.299 -0.3212  0.2511 -0.5891
 6243TIP3    H140144   6.465   3.441   2.314  0.0779 -0.3920  1.0012
 6243TIP3    H240145   6.586   3.399   2.234 -0.6466 -0.3920 -0.1102
 6244TIP3   OH240146   4.801   3.434  13.625  0.3247  0.2030 -0.2256
 6244TIP3    H140147   4.885   3.452  13.583  1.4284 -2.6234  0.6373
 6244TIP3    H240148   4.810   3.472  13.712  1.6888 -2.1767  0.7209
 6245TIP3   OH240149   4.214   4.125   5.017  0.0556  0.4844  0.8846
 6245TIP3    H140150   4.265   4.178   4.955  0.0021 -0.2516  0.2002
 6245TIP3    H240151   4.266   4.124   5.097  0.6431  0.5670  0.5087
 6246TIP3   OH240152   1.047   3.271   0.487 -0.3182  0.5799 -0.9124
 6246TIP3    H140153   1.042   3.240   0.578 -0.2772 -3.4536 -2.1992
 6246TIP3    H240154   0.960   3.307   0.470  0.1115  2.7703  1.1128
 6247TIP3   OH240155   6.070   5.714  10.708  0.1117 -0.3689  0.1094
 6247TIP3    H140156   6.147   5.703  10.652  0.4129 -2.0096  0.8216
 6247TIP3    H240157   6.000   5.739  10.647  0.9890  0.2510 -0.6598
 6248TIP3   OH240158   4.887   6.123   0.632  0.3552 -0.2742  0.7392
 6248TIP3    H140159   4.917   6.037   0.604  0.8036  0.1617 -0.1240
 6248TIP3    H240160   4.962   6.181   0.617 -0.0126  0.3102  1.1135
 6249TIP3   OH240161   0.142   5.542   0.628  0.4443 -0.6134 -0.4615
 6249TIP3    H140162   0.117   5.518   0.717 -0.9503  0.9193 -0.4194
 6249TIP3    H240163   0.201   5.472   0.600  0.1516 -1.5966  1.3211
 6250TIP3   OH240164   2.872   2.050   3.941 -0.1168 -0.1340  0.3228
 6250TIP3    H140165   2.879   2.044   3.846  2.0448 -1.5059  0.5071
 6250TIP3    H240166   2.807   1.984   3.964  1.4582 -1.8722 -0.0310
 6251TIP3   OH240167   6.299   5.790   1.420  0.4392  0.5668 -0.0769
 6251TIP3    H140168   6.335   5.872   1.455  1.5889  0.1952 -0.3641
 6251TIP3    H240169   6.261   5.816   1.336 -0.7342  1.1211  0.6188
 6252TIP3   OH240170   1.164   5.767  13.685 -0.1440  0.0150  0.5343
 6252TIP3    H140171   1.237   5.767  13.747  0.8780 -2.7034 -0.5891
 6252TIP3    H240172   1.203   5.795  13.602 -0.2111 -2.0775 -0.2213
 6253TIP3   OH240173   5.195   3.726  12.187  0.0079  1.0240  0.1941
 6253TIP3    H140174   5.214   3.817  12.211  1.4360  0.2986  1.9598
 6253TIP3    H240175   5.199   3.726  12.091 -0.8259  2.9823  0.1242
 6254TIP3   OH240176   3.420   1.742   0.749 -0.2156 -0.1801 -0.1538
 6254TIP3    H140177   3.453   1.771   0.664 -1.0071  3.3157  0.6480
 6254TIP3    H240178   3.344   1.687   0.728 -0.8482  1.2404 -1.7192
 6255TIP3   OH240179   5.548   0.517  16.793 -0.0180  0.3763 -0.7350
 6255TIP3    H140180   5.556   0.542  16.701  0.9545  0.1224 -0.7231
 6255TIP3    H240181   5.588   0.589  16.841 -1.0668  0.7956 -0.4653
 6256TIP3   OH240182   0.152   6.424   0.642 -0.3132 -0.4200  0.1684
 6256TIP3    H140183   0.070   6.398   0.683 -0.5481  0.5692  0.3383
 6256TIP3    H240184   0.220   6.394   0.703 -0.6777  1.5916  1.6477
 6257TIP3   OH240185   3.949   4.028   5.209  0.4938  0.3353 -0.0936
 6257TIP3    H140186   3.926   3.939   5.181  2.5080 -0.2257 -0.0128
 6257TIP3    H240187   3.924   4.032   5.301 -1.6291  0.5934 -0.6465
 6258TIP3   OH240188   5.221   0.830  16.079 -0.1480  0.2888 -0.1723
 6258TIP3    H140189   5.221   0.877  16.162 -0.5792 -0.1352  0.0673
 6258TIP3    H240190   5.148   0.769  16.085  0.6534 -0.6988 -0.3215
 6259TIP3   OH240191   0.178   4.039   5.559 -0.1516 -0.2525  0.3182
 6259TIP3    H140192   0.137   3.956   5.585  0.4814 -0.3675  0.9702
 6259TIP3    H240193   0.233   4.062   5.634  0.7811  0.0265 -0.4493
 6260TIP3   OH240194   6.047   0.933  12.225 -0.3592  0.4695 -0.1375
 6260TIP3    H140195   6.139   0.909  12.214 -0.5427  0.4818 -1.7204
 6260TIP3    H240196   6.001   0.850  12.231 -0.4540  0.4599 -1.0564
 6261TIP3   OH240197   5.773   2.541  12.030  0.4608 -0.3059 -0.4885
 6261TIP3    H140198   5.738   2.612  12.083 -0.3708 -0.5506 -0.6951
 6261TIP3    H240199   5.819   2.585  11.958  0.2750  0.0280 -0.4055
 6262TIP3   OH240200   0.305   5.898   3.354 -0.0827  0.5259 -0.1034
 6262TIP3    H140201   0.366   5.950   3.406 -0.8146 -1.8226  3.2951
 6262TIP3    H240202   0.219   5.919   3.389 -0.8111  0.3635 -1.7259
 6263TIP3   OH240203   5.730   6.049   5.558 -0.0956  0.2213  0.5552
 6263TIP3    H140204   5.729   5.993   5.635 -1.0142 -0.9601 -0.2957
 6263TIP3    H240205   5.665   6.116   5.576 -2.1286 -1.4860 -0.1990
 6264TIP3   OH240206   6.380   0.867   4.135 -0.2686 -0.1884  0.6256
 6264TIP3    H140207   6.366   0.950   4.180  0.6427 -0.5038  1.5301
 6264TIP3    H240208   6.293   0.830   4.125 -0.7105  1.0420 -0.1050
 6265TIP3   OH240209   5.205   1.101   4.287  0.3008 -0.1951  0.6928
 6265TIP3    H140210   5.210   1.090   4.382  1.2341  1.3873  0.8464
 6265TIP3    H240211   5.160   1.184   4.274  1.1147  0.1301 -0.2179
 6266TIP3   OH240212   6.749   3.556   0.741  0.6003  0.0740 -0.0696
 6266TIP3    H140213   6.704   3.640   0.736  1.5445  0.6472  0.7131
 6266TIP3    H240214   6.693   3.502   0.797  0.5436  0.5534  0.3380
 6267TIP3   OH240215   0.442   3.973  16.418  0.3790  0.1671 -0.5452
 6267TIP3    H140216   0.365   4.021  16.388 -0.6416 -0.4132  1.0620
 6267TIP3    H240217   0.414   3.882  16.422  0.8290  0.0817  1.0206
 6268TIP3   OH240218   2.402   4.010   5.051  0.4528  0.0348  0.0124
 6268TIP3    H140219   2.423   4.097   5.085 -0.7085  0.6694 -0.8809
 6268TIP3    H240220   2.311   4.017   5.021 -0.3782 -2.0506  1.8371
 6269TIP3   OH240221   2.774   0.296   2.976 -0.0141 -0.4518  0.3882
 6269TIP3    H140222   2.792   0.355   3.049  1.9228  1.0466 -1.2458
 6269TIP3    H240223   2.847   0.234   2.977 -0.6220 -1.1689  0.4579
 6270TIP3   OH240224   5.459   3.865  11.872  0.0021 -0.5252 -0.2427
 6270TIP3    H140225   5.508   3.783  11.867  0.7671  0.0246 -2.2326
 6270TIP3    H240226   5.493   3.917  11.800 -3.0054  0.1672 -1.2080
 6271TIP3   OH240227   1.704   4.549   2.085 -0.2571  0.3826  0.1142
 6271TIP3    H140228   1.610   4.559   2.100 -0.6424 -1.3201 -1.0925
 6271TIP3    H240229   1.713   4.464   2.042  2.0674 -0.6257  2.4478
 6272TIP3   OH240230   1.114   2.265   6.272  0.4431  0.4731  0.4407
 6272TIP3    H140231   1.107   2.180   6.229  0.5224  0.4053  0.5632
 6272TIP3    H240232   1.024   2.297   6.277  0.4155  0.4070  0.3756
 6273TIP3   OH240233   5.182   2.214   0.262  0.3540  0.1006 -0.0050
 6273TIP3    H140234   5.151   2.156   0.193  0.6364 -0.6374  0.4778
 6273TIP3    H240235   5.274   2.189   0.275  0.2801  0.1713  0.6923
 6274TIP3   OH240236   4.479   2.546  16.649  0.4499 -0.3121 -0.0551
 6274TIP3    H140237   4.480   2.493  16.569  1.4620 -0.5280  0.0925
 6274TIP3    H240238   4.406   2.512  16.700 -0.3484 -0.0195 -0.9973
 6275TIP3   OH240239   3.457   3.655   1.995  0.3746  0.0568 -0.0722
 6275TIP3    H140240   3.450   3.742   1.957  1.6679 -0.2234 -0.9641
 6275TIP3    H240241   3.370   3.637   2.030 -0.1806  1.2771 -0.8145
 6276TIP3   OH240242   5.695   3.506   1.030  0.8203  0.1859  0.1256
 6276TIP3    H140243   5.649   3.554   0.961  0.8868 -0.0307 -0.0724
 6276TIP3    H240244   5.786   3.535   1.022  0.5717  1.2558  1.0718
 6277TIP3   OH240245   4.242   3.278   6.015  0.1921 -0.2772  0.1688
 6277TIP3    H140246   4.186   3.337   6.064 -1.5172 -1.7785  0.0618
 6277TIP3    H240247   4.327   3.283   6.059 -0.5154  0.6372  1.4438
 6278TIP3   OH240248   4.178   0.628  10.960  0.0594 -0.1668  0.1074
 6278TIP3    H140249   4.254   0.586  11.000  1.2852  0.0564 -1.8985
 6278TIP3    H240250   4.181   0.718  10.991 -0.7266 -0.7212  1.8533
 6279TIP3   OH240251   3.305   3.269   5.747  0.2600  0.0347 -0.1967
 6279TIP3    H140252   3.334   3.334   5.811 -2.9486  2.1602 -0.7861
 6279TIP3    H240253   3.379   3.259   5.688  2.1231  0.3972  1.9966
 6280TIP3   OH240254   6.306   1.013   5.122 -0.2507  0.3718  0.5716
 6280TIP3    H140255   6.297   1.061   5.204  1.3477  0.3443  0.7850
 6280TIP3    H240256   6.341   1.078   5.061 -0.1144  0.0299  0.2880
 6281TIP3   OH240257   2.379   1.571  14.593 -0.4016  0.1922  0.3951
 6281TIP3    H140258   2.297   1.553  14.546  0.3726  0.2536 -0.9863
 6281TIP3    H240259   2.447   1.562  14.528  0.5631  1.8258  1.1330
 6282TIP3   OH240260   2.975   1.221   5.208 -0.0547 -0.0812  0.4202
 6282TIP3    H140261   2.893   1.185   5.242 -1.3876  0.8992 -1.6392
 6282TIP3    H240262   2.951   1.306   5.172  1.5019 -0.4860 -1.7326
 6283TIP3   OH240263   4.173   5.868   5.130 -0.0511  0.2805  0.1630
 6283TIP3    H140264   4.183   5.895   5.222 -1.7750  0.1710  0.4033
 6283TIP3    H240265   4.103   5.924   5.096  0.1813 -0.0814 -0.9291
 6284TIP3   OH240266   4.862   4.629   4.931  0.4050  0.1812  0.0892
 6284TIP3    H140267   4.837   4.617   4.839 -0.3607 -1.1332  0.4529
 6284TIP3    H240268   4.791   4.681   4.968  1.1820  1.5236 -0.2755
 6285TIP3   OH240269   3.345   5.037   3.582  0.0816  0.2965  0.3365
 6285TIP3    H140270   3.381   4.996   3.503  0.7215 -0.4885  1.0310
 6285TIP3    H240271   3.284   5.103   3.549  0.6459  0.2514 -0.8231
 6286TIP3   OH240272   6.022   3.139  11.512  0.1297  0.6463 -0.3842
 6286TIP3    H140273   5.947   3.079  11.514 -1.3011  2.2703 -2.2891
 6286TIP3    H240274   6.054   3.133  11.422  2.2381  0.0917  0.3713
 6287TIP3   OH240275   0.690   4.762  12.658 -0.0238 -0.5487  0.0929
 6287TIP3    H140276   0.780   4.794  12.662  0.2202 -1.2033  0.0449
 6287TIP3    H240277   0.643   4.825  12.604  0.6775 -0.8075 -0.8215
 6288TIP3   OH240278   6.608   5.599  13.262 -0.1934 -0.7542  0.3091
 6288TIP3    H140279   6.626   5.685  13.300 -0.5547 -1.1080  1.2923
 6288TIP3    H240280   6.680   5.584  13.201  0.7405 -0.4615  1.3291
 6289TIP3   OH240281   4.163   0.502   3.623 -0.2861 -0.1218 -0.0910
 6289TIP3    H140282   4.203   0.436   3.680 -0.9588 -1.7529 -1.4534
 6289TIP3    H240283   4.072   0.504   3.650 -0.6714 -1.1118 -1.2741
 6290TIP3   OH240284   6.523   0.299   3.616  0.2438  0.3003 -0.2182
 6290TIP3    H140285   6.465   0.360   3.662 -0.6918 -1.9806  1.7501
 6290TIP3    H240286   6.606   0.346   3.607 -0.7491  2.2093  0.3614
 6291TIP3   OH240287   1.922   3.239  14.426  0.0291  0.5416  0.8376
 6291TIP3    H140288   1.939   3.330  14.454 -0.6702  0.9604 -0.1005
 6291TIP3    H240289   1.915   3.191  14.509  1.9229  1.0452  1.3412
 6292TIP3   OH240290   4.242   5.866   0.304 -0.2566  0.1752 -0.1801
 6292TIP3    H140291   4.251   5.961   0.309 -3.6270  0.4903  1.6299
 6292TIP3    H240292   4.203   5.851   0.218 -2.1034  0.7453  0.5094
 6293TIP3   OH240293   6.101   2.235   3.348 -0.0687 -0.3426  0.0565
 6293TIP3    H140294   6.018   2.280   3.363 -0.4858 -1.7961  2.4125
 6293TIP3    H240295   6.099   2.211   3.255 -1.8591  0.4201 -0.1297
 6294TIP3   OH240296   4.081   4.474  14.982 -0.4773  0.5886 -0.0521
 6294TIP3    H140297   3.986   4.469  14.994 -0.2844  0.9663  1.8705
 6294TIP3    H240298   4.114   4.503  15.067  1.5788 -1.8381  0.0349
 6295TIP3   OH240299   4.363   0.022   0.922 -0.5058 -0.1098  0.5760
 6295TIP3    H140300   4.395   0.053   1.007 -0.2400  1.9389 -0.2343
 6295TIP3    H240301   4.443  -0.004   0.874 -0.2391  2.4282 -0.4446
 6296TIP3   OH240302   4.467   5.832  11.219 -0.2657 -0.2965 -0.0040
 6296TIP3    H140303   4.561   5.846  11.216 -0.4786  0.9423 -1.1483
 6296TIP3    H240304   4.442   5.856  11.308  0.1678  1.5371 -0.3581
 6297TIP3   OH240305   0.595   5.670  16.798  0.3785 -0.0150  0.1038
 6297TIP3    H140306   0.574   5.615  16.724  1.4054 -0.5143  0.1761
 6297TIP3    H240307   0.591   5.612  16.874  3.0373 -0.4150  0.0090
 6298TIP3   OH240308   5.743   0.965  11.234 -0.4597 -0.1813 -0.2898
 6298TIP3    H140309   5.736   0.992  11.143  1.2248  0.6116 -0.1839
 6298TIP3    H240310   5.821   0.910  11.238 -1.0561 -1.0089  0.4995
 6299TIP3   OH240311   0.315   3.110   6.002  0.1898 -0.0228 -0.1317
 6299TIP3    H140312   0.286   3.108   6.094  1.9441  1.2030  0.4613
 6299TIP3    H240313   0.274   3.188   5.966 -0.4056 -0.4418 -0.3770
 6300TIP3   OH240314   6.129   1.191   6.521 -0.0523 -0.5923  0.5063
 6300TIP3    H140315   6.183   1.268   6.503 -0.5574 -0.0293  1.3673
 6300TIP3    H240316   6.188   1.129   6.562 -0.1601  0.2277  1.9439
 6301TIP3   OH240317   6.232   5.229  13.964 -0.6956  0.1662  0.3450
 6301TIP3    H140318   6.289   5.155  13.943 -0.6351 -0.2245  1.8538
 6301TIP3    H240319   6.278   5.306  13.929  0.8647 -0.1145  1.7479
 6302TIP3   OH240320   1.782   5.654   0.477 -0.7199  0.3322  0.6842
 6302TIP3    H140321   1.712   5.630   0.416 -0.8359 -1.3811  1.4556
 6302TIP3    H240322   1.738   5.707   0.543 -1.3133 -0.7746  1.1910
 6303TIP3   OH240323   3.263   6.105   3.834 -0.4715  0.0325 -0.4644
 6303TIP3    H140324   3.339   6.161   3.819  0.5041 -0.7455  1.3409
 6303TIP3    H240325   3.202   6.159   3.884  0.4645 -0.4479  1.2702
 6304TIP3   OH240326   1.183   4.492   1.283  0.2610 -0.0289  0.3692
 6304TIP3    H140327   1.158   4.555   1.215  0.3865  1.4581  1.6616
 6304TIP3    H240328   1.102   4.475   1.332  0.4346 -0.0985  0.6350
 6305TIP3   OH240329   5.196   4.363   5.720 -0.7785 -0.2261  0.8368
 6305TIP3    H140330   5.288   4.374   5.693 -0.8622 -0.6636  0.3676
 6305TIP3    H240331   5.181   4.435   5.782  0.2535 -0.9159  1.9093
 6306TIP3   OH240332   5.885   5.598  14.274  0.1011 -0.1963  0.3809
 6306TIP3    H140333   5.865   5.557  14.189  2.0236  0.6584 -0.5181
 6306TIP3    H240334   5.905   5.689  14.252 -0.1359  0.2138  1.8642
 6307TIP3   OH240335   2.803   2.631   5.438 -0.3813 -0.1787 -0.0304
 6307TIP3    H140336   2.795   2.539   5.413  0.8067 -0.8154  1.8244
 6307TIP3    H240337   2.778   2.633   5.531 -0.5338  1.3828 -0.0986
 6308TIP3   OH240338   0.462   3.461   5.230  0.0128 -0.6576 -1.0239
 6308TIP3    H140339   0.418   3.445   5.147  0.2740 -2.5228 -0.8264
 6308TIP3    H240340   0.390   3.473   5.293 -0.1923 -0.6137 -1.2638
 6309TIP3   OH240341   5.895   1.058   3.913  0.0825  0.4419 -0.5986
 6309TIP3    H140342   5.902   1.019   3.826  1.3814  0.2880 -0.4358
 6309TIP3    H240343   5.837   0.999   3.961  0.5479 -0.2763 -0.9169
 6310TIP3   OH240344   4.766   2.951  16.880  0.1737  0.2014 -0.0759
 6310TIP3    H140345   4.802   2.992  16.801 -0.6792  1.4899  0.1996
 6310TIP3    H240346   4.689   3.003  16.902  0.0462 -0.5181  1.2665
 6311TIP3   OH240347   0.688   6.168   5.936 -0.5418  0.3518 -0.1996
 6311TIP3    H140348   0.648   6.082   5.931  0.7959 -0.3052  0.2340
 6311TIP3    H240349   0.646   6.210   6.012 -1.3531  0.1804 -0.5478
 6312TIP3   OH240350   5.845   3.914   5.412 -0.7030  0.2407 -0.9785
 6312TIP3    H140351   5.760   3.955   5.404 -0.0030  1.7701 -0.7077
 6312TIP3    H240352   5.905   3.972   5.364  0.4823  0.1087  0.3188
 6313TIP3   OH240353   2.094   4.161   3.939  0.1794  0.2463 -0.2192
 6313TIP3    H140354   2.135   4.128   3.859  1.2011 -0.5785  0.6257
 6313TIP3    H240355   2.165   4.166   4.003 -0.4274  1.8473  0.3710
 6314TIP3   OH240356   6.004   1.862  16.289 -0.0209  0.4553  0.1364
 6314TIP3    H140357   6.002   1.862  16.193 -0.1450  0.2130  0.1415
 6314TIP3    H240358   6.094   1.886  16.311  0.6360 -1.7499 -0.0457
 6315TIP3   OH240359   6.438   6.143   1.025  0.4106 -0.2660  0.1587
 6315TIP3    H140360   6.454   6.232   0.995 -0.8869  0.6699  2.0787
 6315TIP3    H240361   6.486   6.137   1.107  0.0867 -1.1580  0.2874
 6316TIP3   OH240362   2.971   2.800   4.868  0.1590  0.0725 -0.2559
 6316TIP3    H140363   3.017   2.787   4.951 -0.9413 -1.5144  0.1324
 6316TIP3    H240364   2.951   2.894   4.866  1.3167  0.3467  0.6641
 6317TIP3   OH240365   5.515   0.944  13.265  0.4466 -0.0279 -0.5064
 6317TIP3    H140366   5.494   0.882  13.334  1.1110  1.3267  0.9408
 6317TIP3    H240367   5.449   0.928  13.197  0.1680 -1.7868  0.1562
 6318TIP3   OH240368   0.733   4.428  16.496  0.1626 -0.1574 -0.3649
 6318TIP3    H140369   0.661   4.478  16.457 -0.2209  0.1226  0.6854
 6318TIP3    H240370   0.694   4.385  16.572  0.8803 -0.7764 -0.3401
 6319TIP3   OH240371   5.058   1.913  13.530  0.4838  0.0480 -0.6924
 6319TIP3    H140372   5.135   1.903  13.586  2.6114  0.3418 -3.4729
 6319TIP3    H240373   5.056   1.833  13.478 -0.7872  0.2956 -1.0340
 6320TIP3   OH240374   2.814   3.389   3.341 -0.7927  0.6804  0.3286
 6320TIP3    H140375   2.790   3.417   3.252  1.5634  0.9374 -0.2656
 6320TIP3    H240376   2.792   3.463   3.396  0.4369  1.6829 -0.4867
 6321TIP3   OH240377   4.369   0.224  16.272 -0.0306  0.3276 -0.0723
 6321TIP3    H140378   4.338   0.314  16.259 -4.1238 -0.8375  0.8701
 6321TIP3    H240379   4.352   0.181  16.189 -0.2104 -0.1528  0.2121
 6322TIP3   OH240380   4.252   6.155  16.129  0.2096 -0.2394  0.4458
 6322TIP3    H140381   4.222   6.214  16.199  0.4503 -0.2726  0.5752
 6322TIP3    H240382   4.267   6.072  16.173  2.2901  0.2664  0.7272
 6323TIP3   OH240383   3.081   0.533  15.411 -0.4456  0.3718  0.0968
 6323TIP3    H140384   3.101   0.602  15.474 -1.3504  1.5878 -0.9280
 6323TIP3    H240385   3.158   0.528  15.355 -1.0564  1.7676 -0.9007
 6324TIP3   OH240386   5.362   2.851  16.115  0.6343 -0.0637 -0.1928
 6324TIP3    H140387   5.389   2.806  16.195 -0.1944  1.8689  1.2217
 6324TIP3    H240388   5.443   2.860  16.064  1.1451 -1.4179  0.3542
 6325TIP3   OH240389   1.683   0.546  11.768  0.3809  0.3296 -0.5465
 6325TIP3    H140390   1.749   0.583  11.827  2.0427 -1.0255 -1.5052
 6325TIP3    H240391   1.621   0.502  11.825 -1.3928  4.0615  0.6132
 6326TIP3   OH240392   0.054   4.271   4.162 -0.4338  0.3004 -0.2241
 6326TIP3    H140393   0.016   4.244   4.246  0.5916 -2.4484 -0.5749
 6326TIP3    H240394   0.026   4.203   4.101  3.6823 -0.9624 -0.8342
 6327TIP3   OH240395   2.531   4.587  14.232  0.1781 -0.1067  0.3212
 6327TIP3    H140396   2.437   4.579  14.212  0.3843  0.9272 -1.1576
 6327TIP3    H240397   2.537   4.565  14.325 -1.5884  0.1226  0.5235
 6328TIP3   OH240398   3.890   2.839   1.791  0.0411 -0.0553  0.1638
 6328TIP3    H140399   3.879   2.817   1.884  0.5283 -0.5214  0.1124
 6328TIP3    H240400   3.815   2.799   1.748 -0.7913  1.1155  0.5084
 6329TIP3   OH240401   0.462   4.270  13.424 -0.7096  0.7253  0.0208
 6329TIP3    H140402   0.540   4.240  13.378 -0.4881  0.1853  0.7338
 6329TIP3    H240403   0.405   4.193  13.426  0.0344  0.1936  2.2385
 6330TIP3   OH240404   0.490   3.865   5.837  0.7607 -0.0156 -0.1791
 6330TIP3    H140405   0.467   3.778   5.804  0.4416  0.0067 -0.0218
 6330TIP3    H240406   0.529   3.849   5.923 -0.5934  0.0822  0.4831
 6331TIP3   OH240407   3.324   1.497  11.985 -0.0428  1.0229 -0.1143
 6331TIP3    H140408   3.238   1.531  12.008 -1.1590 -1.0031 -1.2207
 6331TIP3    H240409   3.347   1.543  11.904 -1.3718 -0.5267 -1.3937
 6332TIP3   OH240410   1.667   0.421   2.501  0.3789  1.0477  0.4652
 6332TIP3    H140411   1.680   0.362   2.575  0.0246  1.0089  0.4970
 6332TIP3    H240412   1.729   0.391   2.435 -1.5960 -1.0046 -0.5086
 6333TIP3   OH240413   1.223   2.041  13.855  1.1206 -0.1257  0.4237
 6333TIP3    H140414   1.145   2.097  13.856 -0.7999 -2.7229 -0.0814
 6333TIP3    H240415   1.254   2.047  13.764 -1.0090 -2.3998 -0.5060
 6334TIP3   OH240416   6.063   5.813   5.669 -0.3377 -0.1401 -0.1839
 6334TIP3    H140417   6.121   5.829   5.594  1.6462 -1.9543  0.9092
 6334TIP3    H240418   6.090   5.877   5.734  0.7508 -1.2336  0.4676
 6335TIP3   OH240419   0.101   5.445   3.922  0.1732  0.5785 -0.0804
 6335TIP3    H140420   0.085   5.359   3.961  0.2410  0.6775  0.1650
 6335TIP3    H240421   0.180   5.432   3.870 -0.6575  0.1030 -1.2570
 6336TIP3   OH240422   4.300   1.010  14.008  0.3513  0.7661  0.7765
 6336TIP3    H140423   4.239   1.031  13.937  2.2495  1.7701 -0.6012
 6336TIP3    H240424   4.280   0.918  14.029  0.3551  0.1476 -1.7024
 6337TIP3   OH240425   2.605   4.295  12.806 -0.3506 -0.3610 -0.1868
 6337TIP3    H140426   2.563   4.277  12.722 -0.1225  0.9874 -0.6098
 6337TIP3    H240427   2.551   4.250  12.870  0.2467 -2.5227 -1.1819
 6338TIP3   OH240428   2.845   1.899   0.224 -0.1664 -0.0512  0.0347
 6338TIP3    H140429   2.780   1.962   0.193 -1.6303 -2.0566 -1.1246
 6338TIP3    H240430   2.825   1.887   0.317  0.6986  1.8216  0.4868
 6339TIP3   OH240431   2.828   0.864  16.048  0.3427  0.0209 -0.2628
 6339TIP3    H140432   2.832   0.771  16.026 -2.3259 -0.2637  0.2376
 6339TIP3    H240433   2.817   0.866  16.143  1.1082  0.8726 -0.1817
 6340TIP3   OH240434   3.734   4.830   6.168 -0.2329  0.1166  0.2144
 6340TIP3    H140435   3.785   4.806   6.091  1.4353  0.0122  1.3269
 6340TIP3    H240436   3.787   4.896   6.213 -0.3363 -1.0876  2.1916
 6341TIP3   OH240437   1.163   2.366  16.643  0.1903  0.4607 -0.5937
 6341TIP3    H140438   1.210   2.303  16.698 -0.4786 -0.2327 -0.8119
 6341TIP3    H240439   1.171   2.331  16.555 -2.4026 -0.7213 -0.3999
 6342TIP3   OH240440   5.798   4.940  11.516 -0.1256 -0.0440 -0.3373
 6342TIP3    H140441   5.772   4.864  11.568  0.0640 -1.2365 -1.9500
 6342TIP3    H240442   5.754   5.014  11.559 -0.7981 -1.1326  0.9000
 6343TIP3   OH240443   3.690   6.391   4.929 -0.0206 -0.8768 -0.1021
 6343TIP3    H140444   3.616   6.428   4.978 -0.9351 -1.6763 -0.8755
 6343TIP3    H240445   3.667   6.298   4.918  0.5576 -0.8692 -1.3523
 6344TIP3   OH240446   1.722   1.095  16.221 -0.5835 -0.1512 -0.1559
 6344TIP3    H140447   1.693   1.010  16.187  0.2530  0.1670 -1.6927
 6344TIP3    H240448   1.700   1.158  16.152  0.0012  0.6867  0.4060
 6345TIP3   OH240449   1.728   5.907  11.677  0.4975  0.1719  0.2679
 6345TIP3    H140450   1.805   5.948  11.718  0.0072  3.3840 -1.8647
 6345TIP3    H240451   1.756   5.817  11.660  3.4103  0.9567  0.5357
 6346TIP3   OH240452   3.441   2.341   6.055  0.2896 -0.4331 -0.5460
 6346TIP3    H140453   3.526   2.329   6.098  0.7426 -1.5145 -1.6992
 6346TIP3    H240454   3.463   2.374   5.968 -0.5460  0.4045 -0.4476
 6347TIP3   OH240455   6.761   0.391   0.994 -0.2710  0.5575  0.3747
 6347TIP3    H140456   6.855   0.376   0.993 -0.1038  1.6156  0.3482
 6347TIP3    H240457   6.744   0.444   0.916 -0.8732  0.4465  0.4257
 6348TIP3   OH240458   0.041   4.687  13.112  0.3377  0.4112 -0.3966
 6348TIP3    H140459   0.131   4.691  13.080  0.3280  0.2332 -0.4453
 6348TIP3    H240460   0.007   4.603  13.081  0.1265  0.5149 -0.4545
 6349TIP3   OH240461   1.121   2.087   6.503  0.1685 -0.2974  0.1773
 6349TIP3    H140462   1.142   2.054   6.590 -0.5162 -1.6917 -0.1563
 6349TIP3    H240463   1.031   2.057   6.487  0.4939 -0.5818 -1.2424
 6350TIP3   OH240464   2.009   0.625   5.557  0.0779 -0.3714 -0.1518
 6350TIP3    H140465   2.093   0.635   5.512  0.4300  0.3163  0.6399
 6350TIP3    H240466   1.991   0.531   5.554  0.3421 -0.3843 -1.2728
 6351TIP3   OH240467   5.640   2.972  13.161  0.1442  0.4100 -0.2434
 6351TIP3    H140468   5.599   2.963  13.075  2.3055 -0.2080 -1.2396
 6351TIP3    H240469   5.680   2.887  13.178  1.3636  1.1109  0.5161
 6352TIP3   OH240470   1.245   3.079   5.589 -0.3532 -0.0295  0.2452
 6352TIP3    H140471   1.337   3.082   5.615 -0.1685 -0.8850 -0.2905
 6352TIP3    H240472   1.197   3.091   5.671  0.2359  1.6496  0.3513
 6353TIP3   OH240473   2.562   4.854  11.317 -0.0885  0.4423 -0.3837
 6353TIP3    H140474   2.528   4.852  11.227  0.1604 -0.7636 -0.4544
 6353TIP3    H240475   2.651   4.890  11.308 -0.7161  2.0575 -0.3911
 6354TIP3   OH240476   4.384   3.224  14.685 -0.1195 -0.4690 -0.6901
 6354TIP3    H140477   4.441   3.161  14.730 -1.8783 -2.5559 -1.2438
 6354TIP3    H240478   4.443   3.276  14.631  1.2937 -2.5439 -1.2203
 6355TIP3   OH240479   3.859   2.841   3.801 -0.3530 -0.6624  0.4764
 6355TIP3    H140480   3.845   2.923   3.850 -0.7241 -1.1855  1.2639
 6355TIP3    H240481   3.829   2.773   3.861  0.1963 -1.3965 -0.0815
 6356TIP3   OH240482   6.510   0.639   2.671  0.0842 -0.2525  0.5321
 6356TIP3    H140483   6.543   0.674   2.754 -0.8231 -0.9659  1.1951
 6356TIP3    H240484   6.441   0.701   2.645  0.3386 -0.0533  0.3272
 6357TIP3   OH240485   0.993   6.418  14.799 -0.7413 -0.0836  0.4007
 6357TIP3    H140486   0.977   6.386  14.710  1.1022  0.7701 -0.2625
 6357TIP3    H240487   1.004   6.338  14.851 -0.1723 -0.5847 -0.4746
 6358TIP3   OH240488   2.385   1.849   2.574 -0.0602 -0.3154  0.2156
 6358TIP3    H140489   2.375   1.901   2.653 -0.1970 -0.8051  0.5250
 6358TIP3    H240490   2.327   1.891   2.510 -1.2594 -0.9039  0.8814
 6359TIP3   OH240491   0.832   3.522  14.474  0.3365  0.1000  0.2269
 6359TIP3    H140492   0.787   3.591  14.522  0.1017 -0.1034  0.3022
 6359TIP3    H240493   0.769   3.449  14.473  1.6035 -1.0845  2.4845
 6360TIP3   OH240494   2.281   4.700   5.163 -0.4592 -0.5547  0.3033
 6360TIP3    H140495   2.227   4.633   5.121 -1.4690  1.4491 -1.7533
 6360TIP3    H240496   2.219   4.751   5.215 -0.0761  0.0417  0.1855
 6361TIP3   OH240497   6.456   4.479  11.309  0.2847  0.4306  0.5009
 6361TIP3    H140498   6.461   4.517  11.397  0.0900 -1.5693  1.4181
 6361TIP3    H240499   6.536   4.427  11.301  0.2720  0.5521 -0.4848
 6362TIP3   OH240500   3.141   5.453  17.234 -0.1772  0.2425 -0.2494
 6362TIP3    H140501   3.137   5.459  17.329 -0.7716  1.5427 -0.3579
 6362TIP3    H240502   3.203   5.381  17.217  0.4070  0.4315  1.1017
 6363TIP3   OH240503   2.202   5.970   1.616 -0.3595  0.3761 -0.8024
 6363TIP3    H140504   2.238   5.940   1.700 -1.4065  1.5187  0.0591
 6363TIP3    H240505   2.199   6.065   1.623 -0.8902  0.4552 -1.9675
 6364TIP3   OH240506   5.589   1.285  12.510  0.2961 -0.2954  0.5520
 6364TIP3    H140507   5.618   1.375  12.497 -0.0828 -0.0931  1.1012
 6364TIP3    H240508   5.588   1.247  12.422  0.8620  0.1128  0.3704
 6365TIP3   OH240509   5.054   0.366  15.504 -0.3732  0.3644 -0.4703
 6365TIP3    H140510   5.147   0.387  15.515 -0.9616  1.8831  2.1439
 6365TIP3    H240511   5.053   0.292  15.444  2.4398  1.2792 -1.7309
 6366TIP3   OH240512   6.413   4.451   3.874  0.1435 -0.8568 -0.6169
 6366TIP3    H140513   6.497   4.444   3.920  0.3565  0.1087 -0.8483
 6366TIP3    H240514   6.356   4.497   3.935 -0.4350 -2.1323 -0.1834
 6367TIP3   OH240515   2.442   4.780  14.470 -0.1861 -0.2307 -0.0143
 6367TIP3    H140516   2.352   4.811  14.480  0.0100  0.6559 -0.9473
 6367TIP3    H240517   2.468   4.811  14.384  1.0400 -0.4344  0.2810
 6368TIP3   OH240518   4.957   3.861   4.477  0.0592  0.0567 -0.1229
 6368TIP3    H140519   5.033   3.915   4.455 -0.1446  0.3333 -0.1489
 6368TIP3    H240520   4.978   3.825   4.564  1.2801 -1.7796 -1.1358
 6369TIP3   OH240521   1.218   2.461  13.861 -0.7422 -0.4483  0.4304
 6369TIP3    H140522   1.313   2.460  13.869 -0.7197 -1.5466 -0.0350
 6369TIP3    H240523   1.189   2.385  13.910 -1.4924  0.7419  1.8889
 6370TIP3   OH240524   0.366   1.512   6.651 -0.5464 -0.1396  0.4356
 6370TIP3    H140525   0.321   1.594   6.666  0.1120  0.1997  0.5815
 6370TIP3    H240526   0.302   1.457   6.606 -1.3873  0.0277  1.4003
 6371TIP3   OH240527   2.253   0.628  16.290 -0.2743 -0.1653  0.1239
 6371TIP3    H140528   2.316   0.694  16.318 -0.2890 -0.8599  1.9119
 6371TIP3    H240529   2.205   0.668  16.219 -0.5460  1.9098  1.4384
 6372TIP3   OH240530   5.751   1.866   2.041 -0.0317 -0.2265  0.0129
 6372TIP3    H140531   5.703   1.944   2.014 -0.3644 -0.8366 -1.2129
 6372TIP3    H240532   5.828   1.899   2.086  0.8292  0.8702 -2.1731
 6373TIP3   OH240533   3.859   1.687  14.097  0.2220  0.2782  0.0064
 6373TIP3    H140534   3.834   1.745  14.025  0.3224 -0.7393 -0.8575
 6373TIP3    H240535   3.809   1.607  14.083 -3.5758  1.7690  3.8532
 6374TIP3   OH240536   0.620   6.629  15.329  0.8260 -0.4103 -0.7496
 6374TIP3    H140537   0.593   6.538  15.315  2.3607 -1.4640  2.4893
 6374TIP3    H240538   0.694   6.641  15.269  2.4934 -2.3230  0.8096
 6375TIP3   OH240539   6.209   5.006   1.557  0.0836  0.0629 -0.3375
 6375TIP3    H140540   6.211   4.915   1.586 -0.5008 -0.1357 -0.9143
 6375TIP3    H240541   6.180   5.055   1.634 -1.1910 -0.4281 -0.5007
 6376TIP3   OH240542   2.477   2.251  16.775  0.1689 -0.6566 -0.2341
 6376TIP3    H140543   2.465   2.264  16.681  0.9227  1.5271 -0.0350
 6376TIP3    H240544   2.498   2.337  16.810 -0.4252 -1.3744  2.0108
 6377TIP3   OH240545   5.462   2.455   0.177 -0.0711 -0.4681  0.1407
 6377TIP3    H140546   5.402   2.472   0.250 -0.9857 -0.2409 -0.6495
 6377TIP3    H240547   5.534   2.405   0.216 -1.2283 -1.5540  0.9315
 6378TIP3   OH240548   2.943   4.972   4.964  0.1911 -0.4625 -0.5704
 6378TIP3    H140549   2.959   4.901   5.025  0.4042  0.0338 -0.0397
 6378TIP3    H240550   2.901   5.040   5.016 -0.9332 -0.5909 -1.2972
 6379TIP3   OH240551   4.669   5.616   6.031  0.2775  0.0221  0.2470
 6379TIP3    H140552   4.741   5.678   6.039  0.1210  0.2114  0.1700
 6379TIP3    H240553   4.593   5.661   6.067  0.4901 -0.6914  1.6368
 6380TIP3   OH240554   1.341   3.586  16.531  0.1304  0.2485 -0.1196
 6380TIP3    H140555   1.353   3.511  16.589  0.4421  0.8420  0.5804
 6380TIP3    H240556   1.403   3.652  16.563  0.8688  0.2913 -1.6025
 6381TIP3   OH240557   2.968   4.734   6.431  0.2691 -0.0851 -0.2966
 6381TIP3    H140558   2.971   4.829   6.431  0.5408 -0.0929 -0.2369
 6381TIP3    H240559   3.018   4.709   6.509 -0.2579 -0.2598 -0.0119
 6382TIP3   OH240560   0.905   0.353  14.428  0.2590 -0.1867  0.7465
 6382TIP3    H140561   0.902   0.258  14.431  0.3643 -0.2837 -1.6801
 6382TIP3    H240562   0.997   0.374  14.413 -0.0362  0.2107 -0.5966
 6383TIP3   OH240563   4.858   0.812   4.791 -0.6803  0.1674  0.0737
 6383TIP3    H140564   4.950   0.833   4.778  0.1604 -3.0561  0.5603
 6383TIP3    H240565   4.815   0.839   4.710  1.1746 -0.9591 -1.3149
 6384TIP3   OH240566   3.700   5.469   0.411 -0.1477 -0.4284  0.6326
 6384TIP3    H140567   3.787   5.430   0.406 -0.6275 -1.4123 -0.1947
 6384TIP3    H240568   3.678   5.467   0.504 -0.1329 -2.0761  0.6144
 6385TIP3   OH240569   2.374   0.945  12.934  0.0924  0.1145 -0.0998
 6385TIP3    H140570   2.289   0.931  12.892  0.0565 -2.8873  0.8749
 6385TIP3    H240571   2.412   1.019  12.886 -1.5714 -0.7310 -2.8507
 6386TIP3   OH240572   6.153   1.417   2.786  0.8870  0.2434 -0.1722
 6386TIP3    H140573   6.083   1.445   2.844  1.2385  0.2469  0.2460
 6386TIP3    H240574   6.213   1.367   2.842  0.8993 -0.2926 -0.6538
 6387TIP3   OH240575   4.477   1.999   2.047  0.8720  0.2529  0.0417
 6387TIP3    H140576   4.384   1.977   2.037  0.7357  0.4408  0.9123
 6387TIP3    H240577   4.511   2.000   1.957  0.4140 -1.4609 -0.1706
 6388TIP3   OH240578   0.471   3.750  11.866  0.2292  0.2309  0.4394
 6388TIP3    H140579   0.534   3.751  11.938 -0.7788  0.1512  1.3388
 6388TIP3    H240580   0.406   3.815  11.890 -0.8768 -0.8095  0.3015
 6389TIP3   OH240581   6.703   0.565   0.770 -0.7206 -0.1073 -0.1011
 6389TIP3    H140582   6.677   0.541   0.681  0.3391 -0.1380 -0.4183
 6389TIP3    H240583   6.791   0.601   0.760  0.5130 -2.6029  1.2706
 6390TIP3   OH240584   4.515   4.357  14.636 -0.5907  0.2263 -0.2271
 6390TIP3    H140585   4.469   4.355  14.552 -0.1137  1.6766 -0.5469
 6390TIP3    H240586   4.445   4.359  14.701 -0.9665 -0.9033 -0.5928
 6391TIP3   OH240587   5.508   3.024   6.366  0.1117 -0.3725 -0.3777
 6391TIP3    H140588   5.548   2.953   6.316  0.7402 -0.0580 -0.3232
 6391TIP3    H240589   5.507   2.993   6.456  0.5314 -0.2490 -0.3304
 6392TIP3   OH240590   1.071   1.392   4.427  0.1038 -0.4587 -0.1521
 6392TIP3    H140591   1.084   1.447   4.504  0.0811 -0.2023 -0.3290
 6392TIP3    H240592   1.094   1.449   4.353 -2.5050  0.1901 -0.5202
 6393TIP3   OH240593   0.272   1.091  11.209  0.2537  0.5171 -0.2533
 6393TIP3    H140594   0.345   1.057  11.157  0.3072 -1.4703  1.0355
 6393TIP3    H240595   0.315   1.135  11.283  0.1703  0.8849 -0.4277
 6394TIP3   OH240596   1.794   2.811  14.453  0.2415 -0.0648  0.1082
 6394TIP3    H140597   1.747   2.733  14.426  2.2209 -0.2613 -2.9286
 6394TIP3    H240598   1.725   2.878  14.464 -1.1734 -1.4971  0.1282
 6395TIP3   OH240599   4.279   0.837   6.230  0.1965 -0.3825  0.5515
 6395TIP3    H140600   4.210   0.855   6.166  0.5265  1.2754  0.6206
 6395TIP3    H240601   4.276   0.743   6.244 -2.9299 -0.2060  1.5067
 6396TIP3   OH240602   2.429   0.414  14.521  0.0111  0.5526 -0.1257
 6396TIP3    H140603   2.438   0.449  14.610  0.0101  0.5881 -0.1392
 6396TIP3    H240604   2.359   0.466  14.482 -1.3744 -0.7921  0.5225
 6397TIP3   OH240605   0.862   4.945   3.318  0.1395  0.6108  0.0864
 6397TIP3    H140606   0.924   5.014   3.343  0.1071  0.4221  0.6897
 6397TIP3    H240607   0.792   4.992   3.272  0.1309  0.9822  0.4710
 6398TIP3   OH240608   4.965   5.060   5.309  0.0177  0.6060  0.1731
 6398TIP3    H140609   5.023   5.020   5.373  0.2120  0.9038  0.1822
 6398TIP3    H240610   4.947   4.989   5.246  1.6388  0.9376 -0.6868
 6399TIP3   OH240611   1.407   2.154  12.954 -0.1223  0.3359  0.0360
 6399TIP3    H140612   1.394   2.116  13.041  0.8224  0.8747  0.4267
 6399TIP3    H240613   1.496   2.189  12.957  1.1519 -2.5001 -2.2189
 6400TIP3   OH240614   2.395   1.578   4.328 -0.3204  0.2684  0.1128
 6400TIP3    H140615   2.313   1.534   4.350 -0.1023  0.8100  2.2067
 6400TIP3    H240616   2.423   1.618   4.411  2.2768 -0.2746 -0.4499
 6401TIP3   OH240617   4.491   2.764  14.754 -0.6776 -0.4366  0.0989
 6401TIP3    H140618   4.479   2.690  14.694 -0.3937 -0.0590 -0.4288
 6401TIP3    H240619   4.476   2.841  14.700  0.5781 -0.0633  0.2594
 6402TIP3   OH240620   3.443   1.796   4.169  0.1562 -0.2164  0.1006
 6402TIP3    H140621   3.493   1.767   4.245 -0.7529 -0.6874  0.5282
 6402TIP3    H240622   3.505   1.791   4.096  1.0777  0.3984  0.8300
 6403TIP3   OH240623   0.192   0.906  15.082  0.4595 -0.6745  0.2174
 6403TIP3    H140624   0.259   0.960  15.123  0.3859 -0.5451  0.1684
 6403TIP3    H240625   0.152   0.963  15.016 -1.2682 -0.0070  1.8095
 6404TIP3   OH240626   4.199   3.371  12.432  0.6225  0.1638 -0.7004
 6404TIP3    H140627   4.176   3.280  12.446  0.4375  0.4777  1.2336
 6404TIP3    H240628   4.295   3.372  12.432  0.6441  0.1938  1.1204
 6405TIP3   OH240629   3.612   3.734  10.912 -0.1045  0.0278  0.0323
 6405TIP3    H140630   3.560   3.698  10.841  1.2233 -0.8805 -0.4981
 6405TIP3    H240631   3.680   3.785  10.869  1.7465 -1.9376  0.5563
 6406TIP3   OH240632   6.507   6.592   2.623  0.5581 -0.0525  0.1725
 6406TIP3    H140633   6.485   6.621   2.535 -0.0501 -1.1953 -0.0625
 6406TIP3    H240634   6.428   6.548   2.654  0.8453  0.1506  1.2088
 6407TIP3   OH240635   6.373   2.233   1.307  0.2998  0.4213 -0.4491
 6407TIP3    H140636   6.410   2.321   1.321  1.6748  0.0557 -1.6534
 6407TIP3    H240637   6.287   2.237   1.348  0.1423  2.4865 -0.9141
 6408TIP3   OH240638   4.252   1.161   3.571 -0.1876  1.0377 -0.3403
 6408TIP3    H140639   4.333   1.211   3.559 -0.3243  2.0752  2.5479
 6408TIP3    H240640   4.187   1.209   3.519  0.6213  1.3585 -1.0692
 6409TIP3   OH240641   6.080   5.763   2.649  0.0386 -0.0182  0.3354
 6409TIP3    H140642   6.044   5.792   2.566  2.3185 -0.0745 -0.7011
 6409TIP3    H240643   6.117   5.842   2.689 -0.2972 -0.1449  0.9032
 6410TIP3   OH240644   3.303   6.062  11.246 -0.5186 -0.6152 -0.4322
 6410TIP3    H140645   3.326   6.092  11.157 -1.1336 -0.4430 -0.5382
 6410TIP3    H240646   3.358   5.985  11.260  0.4688  0.0675 -0.4928
 6411TIP3   OH240647   5.324   0.055  12.117  0.4435  0.1811  0.5165
 6411TIP3    H140648   5.415   0.081  12.131  0.7755 -0.0141 -1.1554
 6411TIP3    H240649   5.317   0.040  12.022 -1.8553  2.1441  0.3293
 6412TIP3   OH240650   2.022   2.944  14.592 -0.0753 -0.6650 -0.2611
 6412TIP3    H140651   2.051   2.904  14.674  0.2594 -0.3240 -0.2146
 6412TIP3    H240652   1.953   2.885  14.560  0.2323 -1.1390 -0.0586
 6413TIP3   OH240653   6.648   6.397   4.136  0.4286  0.5534 -0.2770
 6413TIP3    H140654   6.698   6.442   4.068 -0.2874  0.2783 -1.0035
 6413TIP3    H240655   6.557   6.404   4.107  0.1452  0.1889  0.5160
 6414TIP3   OH240656   2.898   3.813  13.578 -0.1045 -1.1358  0.1652
 6414TIP3    H140657   2.918   3.742  13.639 -1.1591 -1.1136  0.5471
 6414TIP3    H240658   2.804   3.804  13.560  0.4952 -2.1228 -2.7265
 6415TIP3   OH240659   6.440   5.804   2.784  0.1334  0.5367 -0.1114
 6415TIP3    H140660   6.379   5.748   2.833  0.6950 -1.1453 -1.2887
 6415TIP3    H240661   6.395   5.822   2.702  0.7585  0.2107 -0.5293
 6416TIP3   OH240662   0.973   1.377  13.016 -0.1725 -0.1199 -0.2890
 6416TIP3    H140663   0.892   1.411  12.976  0.4328  0.5685 -0.9354
 6416TIP3    H240664   1.023   1.455  13.038  0.1910 -0.5425  0.4007
 6417TIP3   OH240665   6.085   1.154   0.665 -0.5888 -0.1982  0.3826
 6417TIP3    H140666   6.056   1.245   0.661  0.5227  0.2593  2.2532
 6417TIP3    H240667   6.178   1.159   0.684 -0.1097 -1.7232 -1.3837
 6418TIP3   OH240668   6.143   0.213  16.309 -0.4861 -0.0758 -0.1963
 6418TIP3    H140669   6.133   0.294  16.358 -1.5381 -0.4238  0.1627
 6418TIP3    H240670   6.229   0.221  16.267 -1.4154  2.0912 -1.7892
 6419TIP3   OH240671   4.323   0.091   1.452  0.3400  0.4097  0.2184
 6419TIP3    H140672   4.363   0.157   1.509  2.9069  0.4647 -1.5732
 6419TIP3    H240673   4.391   0.026   1.438 -0.9460 -0.7205 -1.0439
 6420TIP3   OH240674   6.083   0.389   4.885  0.4368 -0.1623  0.7171
 6420TIP3    H140675   6.065   0.305   4.843  1.0507  0.2239 -0.3276
 6420TIP3    H240676   6.154   0.371   4.946  0.3816 -0.4574  0.6954
 6421TIP3   OH240677   1.604   4.701  16.146  0.3175 -0.0190  0.3156
 6421TIP3    H140678   1.551   4.623  16.132 -0.3381  0.7177 -1.3445
 6421TIP3    H240679   1.651   4.715  16.064  2.4370 -0.1433  1.4595
 6422TIP3   OH240680   3.622   3.815  11.471  0.1464 -0.2343 -0.1973
 6422TIP3    H140681   3.705   3.847  11.507  1.0925 -1.2123 -1.4505
 6422TIP3    H240682   3.634   3.820  11.376  0.0108 -3.3825 -0.4492
 6423TIP3   OH240683   1.636   1.311  12.992 -0.4416 -0.4512  0.3513
 6423TIP3    H140684   1.632   1.242  13.058 -0.7443 -0.5526  0.2249
 6423TIP3    H240685   1.545   1.335  12.976 -0.3901 -0.6411 -0.2524
 6424TIP3   OH240686   2.200   2.727  12.467 -0.2886  0.3058 -0.2152
 6424TIP3    H140687   2.212   2.676  12.387  0.3432  1.1397 -0.6588
 6424TIP3    H240688   2.124   2.687  12.509 -0.6273 -0.1461 -1.2263
 6425TIP3   OH240689   0.833   4.448  13.492  0.0315  0.0758 -0.2608
 6425TIP3    H140690   0.789   4.495  13.563  0.0303 -1.0992  0.5357
 6425TIP3    H240691   0.792   4.361  13.492  2.3372 -1.0540  0.4989
 6426TIP3   OH240692   2.952   0.453   1.452  0.3195  0.6710 -0.0077
 6426TIP3    H140693   2.911   0.382   1.501  0.1410  0.6633 -0.1689
 6426TIP3    H240694   2.933   0.433   1.360  0.9182  0.5175 -0.1019
 6427TIP3   OH240695   5.059   4.729   1.745  0.2113 -0.1175  0.1983
 6427TIP3    H140696   5.127   4.662   1.745 -0.5798 -0.9484 -1.0442
 6427TIP3    H240697   5.018   4.722   1.658  0.0923  1.9560  0.0497
 6428TIP3   OH240698   5.335   4.818   0.725  0.2096  0.7548 -0.2498
 6428TIP3    H140699   5.266   4.882   0.706 -0.5837 -0.2804 -0.9305
 6428TIP3    H240700   5.336   4.760   0.648  2.7599  1.5395 -0.8560
 6429TIP3   OH240701   5.578   5.337  15.473  0.0895 -0.1817 -0.0065
 6429TIP3    H140702   5.587   5.302  15.562  0.4087 -1.4372 -0.5272
 6429TIP3    H240703   5.521   5.275  15.428  0.5309  0.0409 -0.8933
 6430TIP3   OH240704   3.908   3.017   0.450  0.1081 -0.2069  0.3768
 6430TIP3    H140705   3.941   3.072   0.521  3.0481 -2.1616  0.5839
 6430TIP3    H240706   3.853   2.952   0.495 -0.5707  0.4279  0.4885
 6431TIP3   OH240707   0.534   3.363  12.649  0.0712 -0.0812  0.4878
 6431TIP3    H140708   0.522   3.288  12.592  1.2103  0.5891 -0.6781
 6431TIP3    H240709   0.566   3.327  12.732  0.2139 -0.8998  0.0691
 6432TIP3   OH240710   4.581   5.295  14.843 -0.1397  0.2881  0.7561
 6432TIP3    H140711   4.525   5.369  14.868 -1.2254  0.4570 -2.0587
 6432TIP3    H240712   4.638   5.329  14.775  0.9429 -0.8753  1.0528
 6433TIP3   OH240713   4.399   4.062   5.403 -0.1392 -0.0351 -0.3010
 6433TIP3    H140714   4.379   3.994   5.338  0.1565 -0.7984  0.4082
 6433TIP3    H240715   4.441   4.015   5.475  1.9823  1.1958 -0.6945
 6434TIP3   OH240716   3.957   2.289   2.606 -0.0557 -0.5519  0.7408
 6434TIP3    H140717   3.926   2.201   2.587 -0.5254 -0.4255  0.9273
 6434TIP3    H240718   3.878   2.340   2.623  0.1739  0.0538  0.0101
 6435TIP3   OH240719   0.686   0.068   3.013  0.5011 -0.2567  0.4228
 6435TIP3    H140720   0.593   0.088   3.028  0.6182  0.6908 -0.0664
 6435TIP3    H240721   0.727   0.154   3.002  1.1930 -0.7229 -0.7672
 6436TIP3   OH240722   2.209   3.446   5.915 -0.3768 -0.0001  0.6999
 6436TIP3    H140723   2.231   3.386   5.986  0.5036 -2.9587 -1.9455
 6436TIP3    H240724   2.135   3.405   5.871  1.0651  0.1288 -1.9466
 6437TIP3   OH240725   6.371   4.868  12.369  0.0995  0.6805 -0.4210
 6437TIP3    H140726   6.445   4.918  12.336  0.6021  0.9349  1.0335
 6437TIP3    H240727   6.318   4.931  12.417 -0.5900  0.3208 -0.6961
 6438TIP3   OH240728   2.661   3.752   4.745 -0.6717  0.5660  0.7338
 6438TIP3    H140729   2.663   3.660   4.773 -1.0832  0.0033 -1.0225
 6438TIP3    H240730   2.589   3.756   4.682  0.4325  1.7101 -0.4812
 6439TIP3   OH240731   3.122   2.930   5.779 -0.0460 -0.1453 -0.3383
 6439TIP3    H140732   3.048   2.894   5.730  0.8008 -2.5478  0.0741
 6439TIP3    H240733   3.090   3.014   5.812 -2.6403 -1.1834 -0.0712
 6440TIP3   OH240734   2.124   0.460  11.674  0.3674 -0.0570 -0.1171
 6440TIP3    H140735   2.133   0.514  11.596 -2.4981  1.2428  0.3764
 6440TIP3    H240736   2.116   0.371  11.641  2.7211  0.0563 -1.0769
 6441TIP3   OH240737   2.925   2.250  10.383  0.0009 -0.2527  0.4434
 6441TIP3    H140738   2.842   2.243  10.430  0.3593 -0.4143  1.0613
 6441TIP3    H240739   2.942   2.344  10.378  1.8639 -0.2871  4.0807
 6442TIP3   OH240740   4.248   6.021  14.548  0.8623  0.0712  0.2190
 6442TIP3    H140741   4.281   5.952  14.605  0.7285  0.5355  0.8650
 6442TIP3    H240742   4.325   6.050  14.499  0.8714 -0.6915 -0.2193
 6443TIP3   OH240743   3.668   0.467   1.508  0.2316  0.3187 -0.2217
 6443TIP3    H140744   3.638   0.402   1.444  0.8917  1.7531 -2.0374
 6443TIP3    H240745   3.758   0.440   1.528 -0.1257 -0.3897  0.4573
 6444TIP3   OH240746   3.392   6.417   3.611 -0.4337 -0.0074 -0.1407
 6444TIP3    H140747   3.443   6.470   3.550  0.0801 -0.9114 -0.4937
 6444TIP3    H240748   3.331   6.369   3.555 -2.3791  1.7951  0.3407
 6445TIP3   OH240749   4.803   5.547   5.676  0.4213  0.0887  0.1721
 6445TIP3    H140750   4.784   5.457   5.652  1.1547  0.5933 -2.4462
 6445TIP3    H240751   4.891   5.544   5.714  1.3960 -0.0325 -1.9810
 6446TIP3   OH240752   2.211   3.562  14.209 -0.1015 -0.3198  0.0676
 6446TIP3    H140753   2.279   3.580  14.274 -0.1248  0.9737 -0.2383
 6446TIP3    H240754   2.259   3.529  14.133 -0.0199 -1.3098  0.5461
 6447TIP3   OH240755   2.774   0.955  14.444 -0.1140 -0.2617  0.3867
 6447TIP3    H140756   2.684   0.983  14.458 -0.7228 -0.9161 -1.9297
 6447TIP3    H240757   2.773   0.860  14.459 -0.2022 -0.5421 -1.3180
 6448TIP3   OH240758   3.017   0.779  14.962 -0.0848  0.5027 -0.2276
 6448TIP3    H140759   2.953   0.768  14.891  2.2965 -1.8057 -2.1037
 6448TIP3    H240760   3.070   0.854  14.936 -0.6321  1.0773  0.2779
 6449TIP3   OH240761   5.077   3.143  16.946  0.0763 -0.2416  0.3977
 6449TIP3    H140762   4.998   3.149  16.892  0.7215  0.5674 -0.4687
 6449TIP3    H240763   5.135   3.084  16.898  0.9807  1.1360 -0.2441
 6450TIP3   OH240764   0.869   3.915  16.875 -0.7526 -0.0923 -0.5682
 6450TIP3    H140765   0.929   3.898  16.802  0.2470 -1.8464  0.6210
 6450TIP3    H240766   0.911   3.986  16.924  0.4628 -1.3936  0.3270
 6451TIP3   OH240767   3.057   4.751  14.341  0.1042 -0.2815  0.3079
 6451TIP3    H140768   2.963   4.747  14.359 -0.0451 -0.5202 -0.4986
 6451TIP3    H240769   3.075   4.672  14.291  1.1032 -1.2046  2.0935
 6452TIP3   OH240770   4.223   6.498   2.731 -0.5532  0.4696  0.1749
 6452TIP3    H140771   4.317   6.478   2.740 -0.8931 -0.6319  1.5678
 6452TIP3    H240772   4.208   6.568   2.795 -1.2078 -1.2494  1.9547
 6453TIP3   OH240773   5.520   5.713   5.351  0.6242  0.4959 -0.3210
 6453TIP3    H140774   5.516   5.728   5.257 -0.2358 -1.5256 -0.6234
 6453TIP3    H240775   5.470   5.785   5.389 -2.1320 -0.6600 -1.6312
 6454TIP3   OH240776   2.505   5.243  15.446  0.3664 -0.4887 -0.3581
 6454TIP3    H140777   2.482   5.335  15.430 -1.3568 -1.0231 -1.0361
 6454TIP3    H240778   2.429   5.194  15.417  1.1588 -2.1315  0.2923
 6455TIP3   OH240779   2.802   2.563  12.251  0.2762 -0.1949  0.4894
 6455TIP3    H140780   2.789   2.479  12.206 -2.4345  0.7496 -0.6501
 6455TIP3    H240781   2.819   2.625  12.180 -2.0587  0.9658  0.9065
 6456TIP3   OH240782   3.498   2.734  16.444  0.9383  0.3350 -0.0975
 6456TIP3    H140783   3.512   2.660  16.385  2.2327 -0.0210  0.6359
 6456TIP3    H240784   3.553   2.804  16.409  2.9062 -0.3602  1.5295
 6457TIP3   OH240785   0.741   5.406  13.896  0.1615 -0.7119  0.1586
 6457TIP3    H140786   0.678   5.475  13.918 -0.2811 -1.0656  0.0065
 6457TIP3    H240787   0.808   5.412  13.965 -0.2508 -0.6009  0.5550
 6458TIP3   OH240788   1.755   0.827  13.840  0.2963  0.3142  0.6278
 6458TIP3    H140789   1.673   0.844  13.794 -0.5568 -0.0371  1.9933
 6458TIP3    H240790   1.785   0.743  13.805 -0.1379  0.2413  0.4280
 6459TIP3   OH240791   4.640   0.918  12.377  0.3370 -0.3713 -0.7148
 6459TIP3    H140792   4.640   0.931  12.472  1.7403  2.6887 -1.0820
 6459TIP3    H240793   4.548   0.903  12.355  0.2209 -3.0249  1.3209
 6460TIP3   OH240794   4.336   5.114  15.203 -0.0534  0.2082 -0.3680
 6460TIP3    H140795   4.243   5.102  15.220  0.0127  1.3083  0.8208
 6460TIP3    H240796   4.362   5.186  15.260  1.3143  0.5587 -1.4056
 6461TIP3   OH240797   4.878   4.985   4.348  0.1581 -0.5925 -0.6362
 6461TIP3    H140798   4.817   4.934   4.401 -0.5436 -0.7295 -1.5697
 6461TIP3    H240799   4.960   4.935   4.352  1.0083  0.9739  2.8119
 6462TIP3   OH240800   0.543   1.601   2.711 -0.0033 -0.3479  0.4489
 6462TIP3    H140801   0.504   1.515   2.692 -0.7252 -0.0421  0.5244
 6462TIP3    H240802   0.468   1.656   2.734  0.5673  0.0265  1.4485
 6463TIP3   OH240803   5.084   1.241   5.004 -0.1608  0.9187 -0.2995
 6463TIP3    H140804   5.057   1.158   5.042  0.2614  1.2650  0.7962
 6463TIP3    H240805   5.152   1.218   4.941  0.2235  0.4630  0.2794
 6464TIP3   OH240806   3.736   1.357   3.949  0.2839 -0.3533 -0.3500
 6464TIP3    H140807   3.670   1.314   3.894  1.6078 -1.7825 -0.8687
 6464TIP3    H240808   3.690   1.379   4.030 -1.3844  0.6586 -1.5391
 6465TIP3   OH240809   5.217   4.868  14.541 -0.9070 -0.2221  0.7482
 6465TIP3    H140810   5.171   4.786  14.524  1.0867 -1.2478  0.0491
 6465TIP3    H240811   5.264   4.854  14.623  0.4806 -0.2719 -0.0346
 6466TIP3   OH240812   0.171   2.506  13.531 -0.2765  0.2525  0.4605
 6466TIP3    H140813   0.240   2.527  13.467  0.4302  2.9038  2.0155
 6466TIP3    H240814   0.183   2.413  13.550  2.0592  0.3873 -0.2321
 6467TIP3   OH240815   5.812   3.091  16.817 -0.3517  0.1151 -0.5479
 6467TIP3    H140816   5.791   3.010  16.864 -2.3568  0.7581 -0.3104
 6467TIP3    H240817   5.831   3.062  16.728 -1.3349 -0.6066 -0.5346
 6468TIP3   OH240818   3.303   6.723  15.032  0.5124 -0.5936  0.2796
 6468TIP3    H140819   3.372   6.666  15.067  2.0753  0.3229 -1.1982
 6468TIP3    H240820   3.348   6.805  15.010 -1.3300  0.5355  0.5952
 6469TIP3   OH240821   4.951   4.930   3.704  0.0636  0.2222 -0.4010
 6469TIP3    H140822   4.955   4.923   3.800 -2.1393  0.9017 -0.2140
 6469TIP3    H240823   4.931   5.022   3.688  0.5726  0.1386 -1.5188
 6470TIP3   OH240824   1.838   4.431  16.114  0.9496  0.2817 -0.3930
 6470TIP3    H140825   1.894   4.485  16.169 -2.4730  2.6180  0.9313
 6470TIP3    H240826   1.853   4.463  16.025  2.4525  0.1301 -0.2133
 6471TIP3   OH240827   5.354   1.973   0.657  0.2724  0.1562  0.1921
 6471TIP3    H140828   5.320   1.893   0.696  0.5173 -0.5511 -1.0524
 6471TIP3    H240829   5.449   1.967   0.668  0.5343 -1.1170 -2.5232
 6472TIP3   OH240830   1.982   6.170  13.063  0.0141 -0.3815 -0.6549
 6472TIP3    H140831   2.013   6.237  13.003  0.0309  0.2254  0.0300
 6472TIP3    H240832   2.020   6.193  13.148  0.1824 -1.3647 -0.4589
 6473TIP3   OH240833   3.325   3.895  16.841 -0.1315 -0.7030  0.0448
 6473TIP3    H140834   3.355   3.886  16.751  1.8393 -0.0117  0.5958
 6473TIP3    H240835   3.259   3.826  16.852 -0.0223 -1.1194 -1.7478
 6474TIP3   OH240836   1.471   5.661  13.099 -0.3971  0.5686  0.4801
 6474TIP3    H140837   1.491   5.597  13.168  2.6198  0.9790  0.0644
 6474TIP3    H240838   1.403   5.716  13.137 -1.2365 -1.3221  1.8200
 6475TIP3   OH240839   1.880   1.113   1.683 -0.3311  0.2205 -0.2952
 6475TIP3    H140840   1.869   1.167   1.761  1.2248 -0.6423  0.5620
 6475TIP3    H240841   1.940   1.163   1.628 -2.8816  1.6994 -1.8230
 6476TIP3   OH240842   5.201   5.735   0.101 -0.4303  0.4291 -0.0408
 6476TIP3    H140843   5.260   5.674   0.057 -1.3567  0.7906 -1.8148
 6476TIP3    H240844   5.196   5.703   0.191  0.3815 -1.1485 -0.5485
 6477TIP3   OH240845   6.161   3.853  15.349  0.5299  0.1140 -0.6917
 6477TIP3    H140846   6.206   3.770  15.366  0.9714  0.7076  1.1753
 6477TIP3    H240847   6.083   3.850  15.404  0.7879  1.1190 -0.2506
 6478TIP3   OH240848   0.930   4.591  14.216 -0.1342  0.4653 -0.6672
 6478TIP3    H140849   0.911   4.613  14.125  1.4972 -0.8122 -1.3401
 6478TIP3    H240850   0.844   4.569  14.253 -0.8591  1.3554 -1.7906
 6479TIP3   OH240851   1.401   1.096   1.542 -0.2320 -0.2522 -0.0556
 6479TIP3    H140852   1.475   1.102   1.480  0.9567  1.7503  1.5032
 6479TIP3    H240853   1.415   1.013   1.587  0.8336 -0.1146 -0.1000
 6480TIP3   OH240854   5.321   1.833   3.486 -0.8418 -0.4260 -0.2462
 6480TIP3    H140855   5.399   1.852   3.433  0.8377 -0.7175  2.0410
 6480TIP3    H240856   5.247   1.854   3.428  0.9158  0.8448 -2.1173
 6481TIP3   OH240857   3.605   1.703   5.185  0.6173  0.1792 -0.7423
 6481TIP3    H140858   3.519   1.661   5.181  0.2066  0.7933  1.1594
 6481TIP3    H240859   3.650   1.660   5.256  1.6082  0.3893 -1.2335
 6482TIP3   OH240860   2.730   2.249  16.423  0.4104 -0.2163 -0.3233
 6482TIP3    H140861   2.766   2.243  16.335 -1.7100  1.1046 -1.3064
 6482TIP3    H240862   2.748   2.339  16.451 -0.3153 -0.1642 -0.0144
 6483TIP3   OH240863   3.114   6.307  11.120  0.0041  0.3474  0.0463
 6483TIP3    H140864   3.133   6.376  11.184  2.2302 -0.6476  0.5068
 6483TIP3    H240865   3.100   6.229  11.172 -1.3591  0.1923 -0.5372
 6484TIP3   OH240866   1.276   0.053  13.116  0.1224  0.1739 -0.4662
 6484TIP3    H140867   1.343   0.102  13.164  0.7866 -1.0285 -0.1413
 6484TIP3    H240868   1.245  -0.012  13.178  2.0825 -2.4145 -2.0817
 6485TIP3   OH240869   5.865   3.619   4.731  0.1799  0.1346  0.1043
 6485TIP3    H140870   5.891   3.708   4.757  0.6303  0.5367 -1.6441
 6485TIP3    H240871   5.941   3.565   4.750 -0.7030 -0.2108  2.7909
 6486TIP3   OH240872   5.157   0.489   5.023  0.0076 -0.1892  0.3129
 6486TIP3    H140873   5.241   0.446   5.003  2.3387  3.7870  0.8974
 6486TIP3    H240874   5.151   0.484   5.119  1.3410  2.4468  0.5800
 6487TIP3   OH240875   4.807   5.873   4.211  0.3721 -0.0284 -0.1906
 6487TIP3    H140876   4.892   5.857   4.168  0.9153  0.5474  0.6586
 6487TIP3    H240877   4.779   5.787   4.242 -0.1807 -0.5235 -1.9507
 6488TIP3   OH240878   5.863   0.811   4.844 -0.9534  0.7843 -0.0678
 6488TIP3    H140879   5.934   0.835   4.785  0.1871 -0.1673  0.8631
 6488TIP3    H240880   5.796   0.878   4.831  0.2366  1.8554 -0.7676
 6489TIP3   OH240881   4.464   5.693  12.977 -0.2320 -0.3127 -0.1805
 6489TIP3    H140882   4.450   5.784  12.950 -1.3938 -0.3182  0.3880
 6489TIP3    H240883   4.418   5.685  13.060 -1.1477 -1.7352 -0.8079
 6490TIP3   OH240884   5.281   6.401   3.279  0.1202 -0.2500 -0.0681
 6490TIP3    H140885   5.340   6.329   3.300  0.7689  0.2133 -0.2892
 6490TIP3    H240886   5.330   6.480   3.301 -0.7906  0.1204  0.6930
 6491TIP3   OH240887   3.664   6.151  13.909 -0.6651  0.3942 -0.0697
 6491TIP3    H140888   3.704   6.085  13.966 -1.8290  0.8918  1.3746
 6491TIP3    H240889   3.693   6.234  13.946  0.5066  0.7207 -1.6656
 6492TIP3   OH240890   2.887   5.967   4.392  0.4887 -0.2087 -0.1702
 6492TIP3    H140891   2.825   5.921   4.336 -0.3178  0.5678  0.0698
 6492TIP3    H240892   2.943   6.016   4.332  1.3475 -1.4933 -0.4260
 6493TIP3   OH240893   1.396   3.357  15.910 -0.0658 -0.2464  0.6850
 6493TIP3    H140894   1.388   3.416  15.835 -1.1505 -0.4368  0.6501
 6493TIP3    H240895   1.467   3.297  15.885  1.1917  1.1642  0.8141
 6494TIP3   OH240896   2.647   5.351  15.923 -1.0457 -0.6450  0.1161
 6494TIP3    H140897   2.723   5.337  15.867 -2.0950  0.9507 -1.8062
 6494TIP3    H240898   2.625   5.265  15.957  1.6809 -1.0952  0.7935
 6495TIP3   OH240899   5.644   1.439  13.444  0.5317 -0.1916 -0.1137
 6495TIP3    H140900   5.660   1.403  13.531 -0.9831  0.5234  0.4626
 6495TIP3    H240901   5.636   1.362  13.387  2.3999 -0.6483  0.1954
 6496TIP3   OH240902   4.489   2.376   3.795 -0.5037 -0.6055  0.2475
 6496TIP3    H140903   4.517   2.421   3.715  3.9395 -1.2937  1.3159
 6496TIP3    H240904   4.492   2.283   3.773  0.1870 -0.7731  1.0348
 6497TIP3   OH240905   4.839   2.040   5.885 -0.0776 -0.1610  0.3173
 6497TIP3    H140906   4.856   2.001   5.971 -1.9238 -0.9485  0.3508
 6497TIP3    H240907   4.891   1.987   5.825  2.3082  1.2482  1.0717
 6498TIP3   OH240908   4.798   6.015  12.238  0.5109  0.1122  0.1079
 6498TIP3    H140909   4.831   5.960  12.167  1.3439  1.1449 -0.3105
 6498TIP3    H240910   4.801   5.959  12.316  0.7153 -0.6389 -0.4449
 6499TIP3   OH240911   6.534   4.026  15.602 -0.1623 -0.0661  0.0905
 6499TIP3    H140912   6.581   3.944  15.621 -2.3850 -0.6597  3.5275
 6499TIP3    H240913   6.484   4.007  15.523 -0.4475 -1.9892  0.6935
 6500TIP3   OH240914   1.487   0.508   0.729 -0.0315  0.2500  0.0553
 6500TIP3    H140915   1.487   0.517   0.634 -0.0932  0.1981  0.0503
 6500TIP3    H240916   1.445   0.424   0.745 -1.1716  0.8337  0.1784
 6501TIP3   OH240917   6.696   0.626   4.828 -0.3031  0.5065 -0.1288
 6501TIP3    H140918   6.722   0.717   4.814  0.6612  0.6410  2.3213
 6501TIP3    H240919   6.698   0.615   4.923 -3.4380 -1.2008 -0.1873
 6502TIP3   OH240920   3.649   1.395  16.890  0.5378  0.7997  0.1072
 6502TIP3    H140921   3.667   1.313  16.844 -0.3378  0.3225  0.6111
 6502TIP3    H240922   3.711   1.396  16.963  0.9163  0.8579 -0.2079
 6503TIP3   OH240923   3.810   4.447  14.810  0.3415  0.3815  0.2090
 6503TIP3    H140924   3.814   4.431  14.904 -0.8489 -1.4815 -0.0443
 6503TIP3    H240925   3.871   4.384  14.773  0.5396  0.8720 -0.3039
 6504TIP3   OH240926   0.402   0.605   0.869 -0.2171  0.2027 -0.3436
 6504TIP3    H140927   0.443   0.690   0.853  1.6157 -0.6318 -0.1883
 6504TIP3    H240928   0.432   0.580   0.956 -0.4238 -0.7934 -0.5542
 6505TIP3   OH240929   6.660   4.487  15.520 -0.0581 -0.1776 -0.5893
 6505TIP3    H140930   6.606   4.498  15.599  2.7654  0.6568  1.2988
 6505TIP3    H240931   6.631   4.556  15.461  0.3373  1.6120  1.2456
 6506TIP3   OH240932   5.145   3.744   3.238 -0.0698 -0.0914  0.4558
 6506TIP3    H140933   5.050   3.759   3.234 -0.3932 -2.4011 -1.1555
 6506TIP3    H240934   5.176   3.767   3.151  0.5392 -1.3836  0.3293
 6507TIP3   OH240935   1.527   3.353  15.139  0.1729  0.2407  0.1311
 6507TIP3    H140936   1.447   3.359  15.191 -0.9849  1.1219 -1.7149
 6507TIP3    H240937   1.582   3.423  15.174 -0.0313 -0.0666  1.0943
 6508TIP3   OH240938   3.310   5.947  13.816  0.1999  0.0741  0.2725
 6508TIP3    H140939   3.233   6.003  13.823  0.5947  0.6071  0.3984
 6508TIP3    H240940   3.275   5.861  13.794 -0.5165  0.0339  1.5460
 6509TIP3   OH240941   1.426   0.075   1.494  0.3460 -0.2083 -0.0611
 6509TIP3    H140942   1.444   0.169   1.485  2.4995 -0.6038 -0.1900
 6509TIP3    H240943   1.365   0.069   1.567 -0.1620  1.3266 -0.3412
 6510TIP3   OH240944   0.954   6.338  17.180  0.0430 -0.3748  0.1564
 6510TIP3    H140945   0.876   6.284  17.171 -0.0969 -0.2471  0.5884
 6510TIP3    H240946   1.027   6.278  17.167 -0.1538 -0.1178 -2.2118
 6511TIP3   OH240947   2.551   0.467   5.519 -0.3472  0.5096 -0.3904
 6511TIP3    H140948   2.459   0.490   5.533 -0.4235 -0.2814  0.3935
 6511TIP3    H240949   2.600   0.545   5.545 -0.7823  0.8738 -0.6597
 6512TIP3   OH240950   0.062   0.280   4.139  0.2200 -0.4531 -0.2601
 6512TIP3    H140951   0.013   0.317   4.066 -0.0294  0.9698  0.6078
 6512TIP3    H240952   0.043   0.339   4.213 -0.0051 -2.1813  1.1003
 6513TIP3   OH240953   2.027   6.471  15.732  0.5691  1.3609 -0.1575
 6513TIP3    H140954   2.109   6.512  15.760 -0.0869  1.1669  2.1166
 6513TIP3    H240955   1.963   6.497  15.798 -0.1395 -2.2226  0.6967
 6514TIP3   OH240956   4.313   3.592  13.138  0.5516 -0.1889  0.2962
 6514TIP3    H140957   4.318   3.627  13.049  0.1262 -0.5539  0.1251
 6514TIP3    H240958   4.240   3.530  13.135  2.6367 -2.7761 -0.0173
 6515TIP3   OH240959   2.128   1.747  14.929  0.3325 -0.4025 -0.2230
 6515TIP3    H140960   2.181   1.670  14.953  0.0856 -0.0516  1.5671
 6515TIP3    H240961   2.051   1.710  14.886  0.1943 -1.1924  0.6661
 6516TIP3   OH240962   6.120   3.425   3.776  0.1483  0.6168  0.7154
 6516TIP3    H140963   6.141   3.440   3.868 -0.0650 -0.2785  0.9175
 6516TIP3    H240964   6.095   3.511   3.742 -1.9038  0.5661  2.0347
 6517TIP3   OH240965   2.731   4.610   5.349  0.2473  0.5348 -0.1259
 6517TIP3    H140966   2.701   4.552   5.419 -1.3884  0.6538 -0.6982
 6517TIP3    H240967   2.715   4.561   5.268 -1.5843  1.9118 -0.6447
 6518TIP3   OH240968   4.118   2.740   0.571  0.0267  0.3116 -0.3185
 6518TIP3    H140969   4.029   2.758   0.602  0.2706  0.4778  0.3002
 6518TIP3    H240970   4.122   2.783   0.486 -0.8567 -0.6951 -0.8768
 6519TIP3   OH240971   0.501   1.776  12.923 -0.1817 -0.5576  0.0224
 6519TIP3    H140972   0.582   1.808  12.961 -1.0258  0.1870  1.2386
 6519TIP3    H240973   0.504   1.805  12.832  1.3400 -1.3748 -0.2033
 6520TIP3   OH240974   3.494   4.645  12.676 -0.8855 -0.0332  0.3870
 6520TIP3    H140975   3.414   4.593  12.687  0.1227 -1.4062  1.3623
 6520TIP3    H240976   3.543   4.599  12.607  0.7089 -1.3113  2.3083
 6521TIP3   OH240977   6.431   2.869  14.800 -0.0007  0.4895  0.0617
 6521TIP3    H140978   6.450   2.963  14.804 -0.4865  0.6482 -1.3447
 6521TIP3    H240979   6.341   2.863  14.768  0.3380 -0.4757 -0.7554
 6522TIP3   OH240980   4.234   0.019  15.222  0.0888  0.3940  0.2097
 6522TIP3    H140981   4.206  -0.027  15.302 -0.2086 -0.7535 -0.5407
 6522TIP3    H240982   4.241   0.111  15.249  0.8118 -0.0934  1.7680
 6523TIP3   OH240983   1.428   3.094  10.540  0.5445 -0.1462  0.3042
 6523TIP3    H140984   1.458   3.136  10.459  2.0255  1.5043  1.6615
 6523TIP3    H240985   1.424   3.001  10.518  2.3302  0.1014 -1.2600
 6524TIP3   OH240986   4.885   3.428   5.429 -0.0181  0.2207  0.1323
 6524TIP3    H140987   4.823   3.500   5.439 -0.4283 -0.4251  2.4676
 6524TIP3    H240988   4.850   3.377   5.356 -0.6599  1.4325 -0.4174
 6525TIP3   OH240989   4.674   4.899  16.708 -0.3747 -0.3025  0.1646
 6525TIP3    H140990   4.615   4.958  16.755  0.7195  1.7940 -0.9959
 6525TIP3    H240991   4.616   4.851  16.648 -1.0588  1.1313 -0.3703
 6526TIP3   OH240992   4.186   1.793  14.996  0.0213 -0.0392 -0.3606
 6526TIP3    H140993   4.271   1.750  14.992  0.1793  0.2664 -0.3043
 6526TIP3    H240994   4.126   1.733  14.951  0.3737  0.0080 -0.8951
 6527TIP3   OH240995   2.837   5.290  15.727  0.0846 -0.4223  0.5566
 6527TIP3    H140996   2.799   5.272  15.641 -0.8987 -1.5099  1.2018
 6527TIP3    H240997   2.878   5.207  15.753 -0.1070 -0.2657  1.3704
 6528TIP3   OH240998   4.791   4.960  15.982 -0.3339  0.7196  0.3232
 6528TIP3    H140999   4.721   4.958  15.917  0.7630 -0.2863 -0.8466
 6528TIP3    H241000   4.833   4.874  15.974  2.0685  1.9149 -0.1192
 6529TIP3   OH241001   5.714   1.262   5.991 -0.1787  0.1658  0.3123
 6529TIP3    H141002   5.713   1.168   6.008  0.1759  0.3549  1.4054
 6529TIP3    H241003   5.756   1.271   5.906  1.2591 -0.5440  0.9441
 6530TIP3   OH241004   0.071   1.460  12.786  0.2263 -0.0008  0.2664
 6530TIP3    H141005   0.025   1.387  12.827 -0.0531  0.0906  0.1140
 6530TIP3    H241006   0.053   1.535  12.843 -0.8447  0.3088 -0.4634
 6531TIP3   OH241007   0.502   2.167  14.463  0.2054  0.5936 -0.3771
 6531TIP3    H141008   0.596   2.152  14.471  0.0938 -0.5727 -1.1768
 6531TIP3    H241009   0.466   2.140  14.548  0.5503  0.7095 -0.1957
 6532TIP3   OH241010   3.061   3.540  12.524 -0.6311 -0.5487 -0.1431
 6532TIP3    H141011   3.136   3.484  12.544 -0.8663 -0.2871  1.5457
 6532TIP3    H241012   3.089   3.592  12.448  1.0703 -0.1246  0.7477
 6533TIP3   OH241013   5.080   6.725  14.730 -0.1213 -0.0279  0.5558
 6533TIP3    H141014   5.002   6.721  14.786  0.7333  1.2059  1.8333
 6533TIP3    H241015   5.153   6.703  14.788  0.2924 -3.4223 -1.1124
 6534TIP3   OH241016   2.353   6.066  15.367  0.2504  0.5528 -0.1983
 6534TIP3    H141017   2.359   6.079  15.272  0.1289  0.7918 -0.1745
 6534TIP3    H241018   2.351   6.155  15.403  0.5932  0.4608  0.0473
 6535TIP3   OH241019   0.063   6.544   6.295 -0.1327 -0.6912 -0.6311
 6535TIP3    H141020   0.010   6.621   6.314 -0.9449 -0.9461 -1.8234
 6535TIP3    H241021   0.007   6.470   6.318 -1.1104 -1.0103 -3.8304
 6536TIP3   OH241022   5.757   1.973  12.003 -0.1164 -0.3329  0.5678
 6536TIP3    H141023   5.702   2.040  12.044 -0.3075 -0.1436  0.0049
 6536TIP3    H241024   5.695   1.909  11.967 -0.1028  1.1164 -2.2064
 6537TIP3   OH241025   4.396   0.366   1.587 -0.1408 -0.0467  0.1646
 6537TIP3    H141026   4.408   0.405   1.674  0.3906 -2.2876  1.1267
 6537TIP3    H241027   4.309   0.393   1.560  0.3931  2.1817  0.5951
 6538TIP3   OH241028   2.427   4.838   2.890 -0.4306 -0.3326  0.6622
 6538TIP3    H141029   2.443   4.845   2.796 -0.9415 -3.1520  0.3218
 6538TIP3    H241030   2.509   4.868   2.931  0.5319 -0.9795 -0.7458
 6539TIP3   OH241031   4.412   1.130  16.163 -0.4127  0.0055 -0.1833
 6539TIP3    H141032   4.474   1.079  16.215  0.9694  0.8628 -0.9778
 6539TIP3    H241033   4.328   1.117  16.207  0.6619  0.4410  2.0505
 6540TIP3   OH241034   4.239   2.903   0.807  0.3153  0.5500 -0.5362
 6540TIP3    H141035   4.233   2.989   0.765  1.6887 -0.3246 -2.6074
 6540TIP3    H241036   4.171   2.905   0.874  0.1124  3.1439 -0.7301
 6541TIP3   OH241037   5.626   2.846   2.143 -0.1436  0.1388 -0.3977
 6541TIP3    H141038   5.541   2.839   2.100  0.5001 -3.3200 -1.2008
 6541TIP3    H241039   5.606   2.841   2.236 -1.1004  3.0488 -0.3759
 6542TIP3   OH241040   2.268   4.317   3.630 -0.7677 -0.1369  0.1605
 6542TIP3    H141041   2.245   4.372   3.705  0.0862 -2.4437  2.1716
 6542TIP3    H241042   2.332   4.369   3.581 -0.5754  0.9768  1.5657
 6543TIP3   OH241043   0.161   4.059  14.828 -0.1932  0.3205 -0.2554
 6543TIP3    H141044   0.191   4.057  14.737 -1.6044 -0.4442 -0.7084
 6543TIP3    H241045   0.125   3.972  14.844 -1.0179  0.8276  0.6810
 6544TIP3   OH241046   0.741   2.424  16.669 -0.2291 -0.4661 -0.3456
 6544TIP3    H141047   0.660   2.472  16.653  0.5697  1.0244  0.0377
 6544TIP3    H241048   0.789   2.431  16.586 -0.2885 -0.9884 -0.4286
 6545TIP3   OH241049   2.836   0.807  11.224  0.1230  0.4334 -0.3727
 6545TIP3    H141050   2.902   0.819  11.157 -0.6270  2.3110 -0.8088
 6545TIP3    H241051   2.833   0.891  11.270 -0.2172 -0.4355  1.2299
 6546TIP3   OH241052   4.208   4.366  15.557  0.2739  0.4948  0.2627
 6546TIP3    H141053   4.123   4.399  15.527  0.7356  1.5567  0.1181
 6546TIP3    H241054   4.272   4.416  15.506  0.9556 -2.5436 -1.9903
 6547TIP3   OH241055   3.062   1.290  12.164 -0.0169 -0.1250  0.1315
 6547TIP3    H141056   3.040   1.321  12.252  0.9240  0.1556  0.2740
 6547TIP3    H241057   3.046   1.366  12.107  0.8852  0.1937  0.2846
 6548TIP3   OH241058   2.404   0.948  12.211 -0.1058 -0.5096 -0.6072
 6548TIP3    H141059   2.427   1.022  12.155 -0.0551  1.8134  2.3509
 6548TIP3    H241060   2.486   0.901  12.224  0.0774 -0.4836 -1.6050
 6549TIP3   OH241061   0.038   2.293  12.267 -0.5993 -0.0059  0.4058
 6549TIP3    H141062   0.042   2.327  12.178 -2.3664 -1.0596 -0.1037
 6549TIP3    H241063  -0.055   2.283  12.285 -0.1956 -2.0716  1.4885
 6550TIP3   OH241064   5.952   1.545   2.921  1.0091  0.3493 -0.5796
 6550TIP3    H141065   5.869   1.506   2.949  1.5934  0.6820  1.6427
 6550TIP3    H241066   5.936   1.570   2.830 -1.3010  0.3025 -0.2209
 6551TIP3   OH241067   2.587   1.650  17.069  0.1527 -0.1617 -0.2475
 6551TIP3    H141068   2.635   1.567  17.060  1.0075  0.1590  1.2843
 6551TIP3    H241069   2.640   1.702  17.128 -1.7441  0.4663  0.9383
 6552TIP3   OH241070   0.828   4.167   5.366  0.1117  0.6465 -0.4411
 6552TIP3    H141071   0.845   4.108   5.439  0.2205  0.8785 -0.2781
 6552TIP3    H241072   0.810   4.109   5.292 -2.5956  0.4150  0.3574
 6553TIP3   OH241073   6.503   1.215  12.367 -0.3176 -0.2204 -0.1788
 6553TIP3    H141074   6.416   1.245  12.339 -1.0501 -1.3196  0.8716
 6553TIP3    H241075   6.559   1.292  12.356 -1.7659  0.9964  0.7250
 6554TIP3   OH241076   1.803   6.528   0.445  0.4825  0.4005  0.1937
 6554TIP3    H141077   1.861   6.497   0.376 -0.9826  0.1523 -0.9506
 6554TIP3    H241078   1.859   6.581   0.501  1.6115  0.9155 -1.3892
 6555TIP3   OH241079   6.045   2.145  11.386 -0.4265 -0.6720  0.3731
 6555TIP3    H141080   5.954   2.176  11.388 -0.6140 -1.2043  0.1308
 6555TIP3    H241081   6.061   2.124  11.294 -0.1679 -0.8976  0.4688
 6556TIP3   OH241082   4.307   4.497   5.472  0.5372  0.3905  0.4807
 6556TIP3    H141083   4.298   4.499   5.567 -0.1937  1.2238  0.3986
 6556TIP3    H241084   4.391   4.541   5.456  0.2148  1.1003  0.6938
 6557TIP3   OH241085   1.650   1.193   3.897  0.0143 -0.0658 -0.3227
 6557TIP3    H141086   1.612   1.154   3.976 -1.3574  2.2667  0.1887
 6557TIP3    H241087   1.744   1.198   3.916  0.1890 -2.7930 -0.2785
 6558TIP3   OH241088   5.625   3.598   4.573  0.3650  0.5572  0.3152
 6558TIP3    H141089   5.573   3.541   4.629  1.7803 -0.1716  0.9015
 6558TIP3    H241090   5.712   3.601   4.615  1.1711  0.7473 -1.3295
 6559TIP3   OH241091   5.931   3.291  12.505  0.0478 -0.6021 -0.1822
 6559TIP3    H141092   6.005   3.332  12.551  1.5351 -0.7195 -2.3706
 6559TIP3    H241093   5.899   3.224  12.565  0.3613  0.8461  1.6612
 6560TIP3   OH241094   1.235   5.551   1.192 -0.0245 -0.3774  0.0566
 6560TIP3    H141095   1.209   5.493   1.120  1.0933  0.2451 -0.8747
 6560TIP3    H241096   1.330   5.562   1.180  0.2296 -0.5601  1.8479
 6561TIP3   OH241097   0.917   3.520   1.661 -0.1106 -0.3844 -0.3486
 6561TIP3    H141098   0.901   3.569   1.742 -0.8417 -0.0151 -0.7127
 6561TIP3    H241099   1.012   3.515   1.654 -0.0348 -1.1850  0.9995
 6562TIP3   OH241100   5.801   1.617  16.089  0.2678  0.2752  0.2299
 6562TIP3    H141101   5.810   1.647  16.180 -0.5277  1.0493  0.0481
 6562TIP3    H241102   5.889   1.587  16.066  0.1722 -1.3017  1.7442
 6563TIP3   OH241103   3.431   5.410  15.487 -0.3019 -0.4959  0.0710
 6563TIP3    H141104   3.400   5.327  15.452 -2.1121 -0.0493  0.5760
 6563TIP3    H241105   3.448   5.464  15.409  0.2435 -1.0972 -0.2342
 6564TIP3   OH241106   5.512   2.125  12.912 -0.0887  0.3924  0.5684
 6564TIP3    H141107   5.564   2.068  12.855 -0.3826 -0.1299  0.8221
 6564TIP3    H241108   5.577   2.181  12.955  0.1615  0.5719 -0.0337
 6565TIP3   OH241109   3.921   4.870   0.241 -0.3522 -0.1667 -0.3702
 6565TIP3    H141110   3.829   4.843   0.240 -0.5053  0.3538 -0.9327
 6565TIP3    H241111   3.969   4.793   0.270 -1.1265  0.0281  1.5269
 6566TIP3   OH241112   3.152   2.754  12.316  0.5708  0.0980  0.1572
 6566TIP3    H141113   3.061   2.757  12.344  0.6110  0.9524  0.2088
 6566TIP3    H241114   3.164   2.834  12.264  1.2773 -0.0309  0.1184
 6567TIP3   OH241115   3.598   0.234  11.355  0.0546 -0.4701 -0.0541
 6567TIP3    H141116   3.651   0.155  11.348  1.0582  0.2454 -0.5465
 6567TIP3    H241117   3.572   0.255  11.266 -0.8513 -0.6805  0.1577
 6568TIP3   OH241118   2.080   1.875   5.538 -0.1890  0.0923  0.0939
 6568TIP3    H141119   2.079   1.970   5.536 -1.9787  0.1561  1.6917
 6568TIP3    H241120   2.050   1.848   5.451 -1.4057  1.0253  0.2156
 6569TIP3   OH241121   1.180   2.048   3.084  0.8371  0.3871 -0.8033
 6569TIP3    H141122   1.261   2.049   3.135  0.6460  0.7208 -0.5070
 6569TIP3    H241123   1.129   2.121   3.119 -0.4171 -1.0195  0.3588
 6570TIP3   OH241124   4.716   2.067  12.116 -0.4148  0.5881  0.4274
 6570TIP3    H141125   4.663   2.146  12.129  1.0097  1.3087  2.0713
 6570TIP3    H241126   4.682   2.005  12.180 -0.0883  0.6318  0.6461
 6571TIP3   OH241127   5.601   4.723  15.156 -0.4310 -0.1984 -0.8936
 6571TIP3    H141128   5.662   4.673  15.102 -0.7007  0.5158 -1.8798
 6571TIP3    H241129   5.642   4.728  15.242  1.1494  0.7257 -1.6840
 6572TIP3   OH241130   2.576   0.223  12.943  0.4939 -0.0926  0.8235
 6572TIP3    H141131   2.560   0.304  12.991  1.4776  0.3419  0.4227
 6572TIP3    H241132   2.668   0.226  12.919  0.2217 -0.7008 -0.3737
 6573TIP3   OH241133   6.261   2.777   4.446  0.1846  0.4947 -0.0714
 6573TIP3    H141134   6.246   2.867   4.416 -0.5950  0.0511 -1.0159
 6573TIP3    H241135   6.297   2.787   4.534 -0.5147  1.7224  0.0819
 6574TIP3   OH241136   4.656   3.013   2.463 -0.0350  0.4091 -0.2279
 6574TIP3    H141137   4.596   3.069   2.414 -0.3188  0.1301 -0.2025
 6574TIP3    H241138   4.719   2.984   2.398 -0.0081  0.5906 -0.2850
 6575TIP3   OH241139   3.521   0.906   5.943  0.0642  0.2394 -0.9693
 6575TIP3    H141140   3.523   0.974   6.011  0.7169 -2.1337  1.4792
 6575TIP3    H241141   3.603   0.918   5.896  0.4176  0.8225 -0.2321
 6576TIP3   OH241142   1.435   0.639  13.650  0.0084 -0.9502  0.5647
 6576TIP3    H141143   1.364   0.574  13.649 -0.1149 -0.8127  0.1360
 6576TIP3    H241144   1.390   0.723  13.653  0.1604 -0.8694  0.5505
 6577TIP3   OH241145   4.009   2.219  15.615 -0.2969 -0.6099 -0.7468
 6577TIP3    H141146   4.056   2.195  15.695  0.0021 -2.0182 -1.3379
 6577TIP3    H241147   3.986   2.136  15.574 -1.8654  0.0700 -1.3181
 6578TIP3   OH241148   4.126   0.029   3.270 -0.7758  0.4285  0.0523
 6578TIP3    H141149   4.195   0.095   3.255  0.4109 -0.8373 -0.1557
 6578TIP3    H241150   4.131   0.010   3.363  1.5900 -2.2562 -0.5585
 6579TIP3   OH241151   4.840   4.201  12.400  0.3589 -0.0342  0.4303
 6579TIP3    H141152   4.794   4.285  12.407  0.7808  0.2603 -0.2176
 6579TIP3    H241153   4.933   4.225  12.397  0.4615 -0.4924 -0.1862
 6580TIP3   OH241154   6.231   2.782   6.693  0.3797  1.1390  0.3483
 6580TIP3    H141155   6.232   2.832   6.611 -0.4473  0.2009 -0.2512
 6580TIP3    H241156   6.321   2.786   6.725  1.0814  0.2067 -1.4314
 6581TIP3   OH241157   5.461   1.023   0.691 -0.4602 -0.2969 -0.4806
 6581TIP3    H141158   5.497   1.065   0.769 -0.1348  0.8747 -1.2519
 6581TIP3    H241159   5.537   1.005   0.637 -0.6692 -1.2785 -0.4485
 6582TIP3   OH241160   6.114   1.992   3.744 -0.2838 -1.0680  0.1066
 6582TIP3    H141161   6.027   2.029   3.730  0.7179  1.1196 -0.5734
 6582TIP3    H241162   6.124   1.988   3.839 -0.5957  0.0013  0.1894
 6583TIP3   OH241163   5.388   3.168  16.660 -0.5032  0.6661  0.1258
 6583TIP3    H141164   5.301   3.206  16.650 -0.5619  0.2058 -1.1721
 6583TIP3    H241165   5.372   3.081  16.697 -0.7886 -0.3491 -2.2746
 6584TIP3   OH241166   2.404   3.426   2.738  0.1004  0.0499 -0.1238
 6584TIP3    H141167   2.439   3.506   2.699  1.9792 -0.1657  1.0747
 6584TIP3    H241168   2.464   3.405   2.810 -3.3875  0.5455  3.0883
 6585TIP3   OH241169   5.862   0.418  13.046  0.3940 -0.0956 -0.0558
 6585TIP3    H141170   5.950   0.409  13.008  0.6299  2.4140 -0.2386
 6585TIP3    H241171   5.810   0.454  12.974 -0.4751 -0.3880  0.4344
 6586TIP3   OH241172   5.214   2.222  14.311 -0.1591  0.4502  0.0873
 6586TIP3    H141173   5.124   2.240  14.341 -0.3302 -1.8534  1.0266
 6586TIP3    H241174   5.230   2.131  14.336  1.7280  0.2087 -1.9039
 6587TIP3   OH241175   3.484   2.685   0.509 -0.1028  0.1899  0.3896
 6587TIP3    H141176   3.469   2.768   0.462  0.9796 -0.2350 -0.7587
 6587TIP3    H241177   3.497   2.621   0.439 -0.7481 -0.9195  1.2792
 6588TIP3   OH241178   1.032   6.548   1.771  0.0155 -0.7210 -0.0199
 6588TIP3    H141179   1.012   6.487   1.843  0.9418 -0.9736  0.0367
 6588TIP3    H241180   0.994   6.631   1.799  4.4214  0.4894  3.0952
 6589TIP3   OH241181   1.611   4.254   3.406 -0.0264 -0.6179 -0.1720
 6589TIP3    H141182   1.653   4.297   3.481 -0.4045 -1.9063  0.8026
 6589TIP3    H241183   1.677   4.192   3.374 -0.3937 -1.1044  0.0107
 6590TIP3   OH241184   3.176   5.891   0.783 -0.1469  0.0019 -0.3070
 6590TIP3    H141185   3.123   5.847   0.717 -0.1686  0.8972 -0.9051
 6590TIP3    H241186   3.119   5.960   0.817  0.1779  0.1253 -0.0047
 6591TIP3   OH241187   1.992   2.217   3.445 -0.0979 -0.1706 -0.4268
 6591TIP3    H141188   1.940   2.147   3.485  0.6772 -0.5268 -0.0421
 6591TIP3    H241189   2.079   2.208   3.483  0.3024  0.3095 -1.2027
 6592TIP3   OH241190   0.815   1.362   5.632  0.4154  0.1200  0.2513
 6592TIP3    H141191   0.735   1.332   5.588  0.0234  2.3855 -0.6790
 6592TIP3    H241192   0.867   1.401   5.562  2.6509 -1.8403  0.7370
 6593TIP3   OH241193   5.220   1.835   1.857 -0.4142  0.2345  0.1886
 6593TIP3    H141194   5.304   1.876   1.834 -0.3953  0.1469  0.0995
 6593TIP3    H241195   5.177   1.900   1.913 -0.0480  0.0419  0.6988
 6594TIP3   OH241196   0.666   4.554  16.141 -0.1881 -0.0342 -0.5560
 6594TIP3    H141197   0.649   4.609  16.217 -2.3489 -1.0644 -0.2397
 6594TIP3    H241198   0.651   4.464  16.173  0.6033 -0.5982 -1.7448
 6595TIP3   OH241199   0.809   5.748   5.427 -0.9444 -0.2905 -0.4352
 6595TIP3    H141200   0.812   5.686   5.355 -0.7295  0.9964 -1.5548
 6595TIP3    H241201   0.809   5.834   5.385  0.4320  0.5074  1.1123
 6596TIP3   OH241202   6.676   0.956  12.635  0.1913 -0.9457 -0.6488
 6596TIP3    H141203   6.598   0.913  12.670 -0.6038  0.5809 -0.5068
 6596TIP3    H241204   6.692   0.911  12.552 -1.7439 -0.2783 -1.4095
 6597TIP3   OH241205   1.659   2.571  14.413 -0.2986 -0.8133  0.2289
 6597TIP3    H141206   1.665   2.529  14.327  1.2472  0.4134 -0.2790
 6597TIP3    H241207   1.621   2.504  14.469 -1.1409 -1.6974 -1.3659
 6598TIP3   OH241208   0.058   5.343  11.693 -0.4186 -0.3595 -0.0764
 6598TIP3    H141209   0.083   5.412  11.632  0.7392  1.2411  2.1453
 6598TIP3    H241210  -0.029   5.316  11.665  0.4176 -0.2620 -2.9312
 6599TIP3   OH241211   1.420   2.276  16.713 -0.0286 -0.1253 -0.1592
 6599TIP3    H141212   1.452   2.190  16.685  0.4299 -0.2933  0.8769
 6599TIP3    H241213   1.479   2.302  16.783 -0.9288  0.4769  0.3808
 6600TIP3   OH241214   2.235   5.145  10.864 -0.0482 -0.3031 -0.4213
 6600TIP3    H141215   2.297   5.140  10.791 -1.2674 -0.8206 -1.4294
 6600TIP3    H241216   2.283   5.192  10.933  0.4559  1.9525 -2.2366
 6601TIP3   OH241217   4.340   2.851  13.802  0.6282 -0.0032 -0.1210
 6601TIP3    H141218   4.261   2.821  13.756  0.6150 -2.0456  1.1439
 6601TIP3    H241219   4.342   2.945  13.787 -2.6985  0.2751  0.7885
 6602TIP3   OH241220   2.578   0.055   4.548  0.3209 -0.6914  0.4772
 6602TIP3    H141221   2.544   0.117   4.484  0.8128  0.3913  1.2317
 6602TIP3    H241222   2.544  -0.030   4.520 -0.3051 -0.0961 -0.6230
 6603TIP3   OH241223   5.482   0.450   2.104  0.5375 -0.1221  0.1604
 6603TIP3    H141224   5.408   0.390   2.093  0.3980  0.1875 -0.5752
 6603TIP3    H241225   5.451   0.534   2.070  1.2782 -0.0257 -0.2978
 6604TIP3   OH241226   2.221   1.772   5.746  0.0507 -0.4460 -0.2354
 6604TIP3    H141227   2.212   1.834   5.819  1.6342  0.7798 -1.0464
 6604TIP3    H241228   2.183   1.819   5.672  0.9780 -0.5522 -0.7846
 6605TIP3   OH241229   2.781   6.623  12.474  0.1809  0.6865 -0.1060
 6605TIP3    H141230   2.702   6.623  12.421  0.9375  0.3303 -1.2426
 6605TIP3    H241231   2.766   6.691  12.540 -1.0959  0.5685 -0.2604
 6606TIP3   OH241232   3.798   0.027   1.887 -0.4700  0.3664  0.5614
 6606TIP3    H141233   3.876   0.013   1.834 -1.0376 -0.8706  0.0289
 6606TIP3    H241234   3.814  -0.023   1.967 -0.2866  0.9460  0.8896
 6607TIP3   OH241235   1.497   5.522   3.278 -0.6937  0.6911 -0.4103
 6607TIP3    H141236   1.456   5.594   3.231 -2.5280  0.3587  0.6379
 6607TIP3    H241237   1.544   5.564   3.350  0.3146  1.0235 -1.2505
 6608TIP3   OH241238   1.027   2.877   2.250  0.2908  0.1580  0.3485
 6608TIP3    H141239   1.069   2.810   2.304 -0.7331 -0.4160  0.4299
 6608TIP3    H241240   1.096   2.942   2.237  1.0760 -0.5442  0.8799
 6609TIP3   OH241241   5.763   4.596  10.973  0.6448  0.1972 -0.1500
 6609TIP3    H141242   5.837   4.569  10.919  3.4176  3.9387  1.5157
 6609TIP3    H241243   5.722   4.667  10.925 -1.8749 -1.7602 -0.9932
 6610TIP3   OH241244   0.587   5.257   4.980 -0.4452 -0.0432  0.3091
 6610TIP3    H141245   0.630   5.320   4.922  2.2679 -0.0191  2.2596
 6610TIP3    H241246   0.528   5.208   4.922  0.8716  1.1381 -2.1325
 6611TIP3   OH241247   5.160   5.097  14.758  0.7098 -0.4452 -0.3351
 6611TIP3    H141248   5.113   5.095  14.842 -0.7505  1.1218 -1.0780
 6611TIP3    H241249   5.160   5.006  14.729 -2.3380 -0.4563 -0.5162
 6612TIP3   OH241250   3.412   0.281   2.519 -0.2537  0.5164  0.1805
 6612TIP3    H141251   3.441   0.287   2.610 -0.9526  1.4297  0.3535
 6612TIP3    H241252   3.347   0.211   2.518  2.1008 -1.7222 -0.2567
 6613TIP3   OH241253   1.371   0.833   4.018 -0.0411  0.4743 -0.6414
 6613TIP3    H141254   1.293   0.884   3.997  0.5087  0.7203 -2.1120
 6613TIP3    H241255   1.386   0.779   3.941  0.7991 -0.1433 -0.0570
 6614TIP3   OH241256   3.007   1.018   2.270  0.1657  0.0145  0.5611
 6614TIP3    H141257   3.089   0.971   2.253 -0.4829 -0.7739 -0.4494
 6614TIP3    H241258   3.000   1.021   2.365 -0.4562 -3.1292  0.6571
 6615TIP3   OH241259   3.339   4.909  15.306 -0.5331 -0.7862 -0.0596
 6615TIP3    H141260   3.390   4.831  15.328 -0.2195 -0.6375 -0.2523
 6615TIP3    H241261   3.401   4.965  15.260 -0.5123 -0.0457  0.8457
 6616TIP3   OH241262   1.468   1.229  11.236  0.0363  0.3019 -0.2238
 6616TIP3    H141263   1.554   1.187  11.235  0.7998  1.8610 -0.7698
 6616TIP3    H241264   1.411   1.167  11.190  1.2202 -0.0321 -1.2714
 6617TIP3   OH241265   3.677   2.680   5.801  0.4556  0.2971  0.0113
 6617TIP3    H141266   3.720   2.649   5.721 -0.1250  0.3375 -0.3230
 6617TIP3    H241267   3.731   2.646   5.872  1.1892  0.5747 -0.4072
 6618TIP3   OH241268   3.099   3.753  16.417  0.2212 -0.1323  0.3840
 6618TIP3    H141269   3.092   3.711  16.502  0.3153  1.1288  1.0134
 6618TIP3    H241270   3.143   3.836  16.434  1.6630 -0.5514 -1.1113
 6619TIP3   OH241271   6.230   3.661  16.022  0.6295 -0.6352  0.0386
 6619TIP3    H141272   6.236   3.566  16.016 -1.8899 -0.6936 -2.0845
 6619TIP3    H241273   6.297   3.693  15.962  1.0111 -1.0610  0.2356
 6620TIP3   OH241274   4.918   4.822  14.816  0.6746  0.3509  0.5413
 6620TIP3    H141275   4.891   4.882  14.885  0.6911  1.9287 -0.7890
 6620TIP3    H241276   5.004   4.790  14.844  1.2985  2.0380  0.6043
 6621TIP3   OH241277   6.260   3.390  16.054  0.4039  1.1035 -0.2925
 6621TIP3    H141278   6.267   3.360  16.145  0.0212  0.2692 -0.5401
 6621TIP3    H241279   6.217   3.318  16.008  0.3124  1.6533 -1.0750
 6622TIP3   OH241280   1.773   5.207   6.610  0.2545  0.2930  0.1855
 6622TIP3    H141281   1.764   5.181   6.702 -0.6752 -1.3342 -0.3256
 6622TIP3    H241282   1.685   5.196   6.574  0.6766  0.6372 -0.9641
 6623TIP3   OH241283   2.979   1.212  15.302 -0.4210  0.5499 -0.2263
 6623TIP3    H141284   2.944   1.288  15.348  1.0898  1.5677 -0.7327
 6623TIP3    H241285   3.071   1.207  15.329 -0.7996 -1.8238  0.7575
 6624TIP3   OH241286   5.377   1.750   6.139  0.5273 -0.2217  0.6120
 6624TIP3    H141287   5.405   1.841   6.142 -0.0267 -0.0914  1.6793
 6624TIP3    H241288   5.305   1.749   6.076  1.3535 -0.1480 -0.3504
 6625TIP3   OH241289   2.123   5.182   3.528 -0.4588  0.2845  0.4224
 6625TIP3    H141290   2.190   5.201   3.462  0.7729 -0.6512  1.3849
 6625TIP3    H241291   2.112   5.087   3.525 -2.0750  0.4615 -0.0137
 6626TIP3   OH241292   1.822   2.222   0.092  0.6181 -0.0363 -0.4866
 6626TIP3    H141293   1.790   2.267   0.170 -0.7873 -0.3241 -0.8936
 6626TIP3    H241294   1.902   2.178   0.121  0.1893 -0.0117  0.7598
 6627TIP3   OH241295   6.177   0.128   5.338 -0.0548  0.3254  0.1138
 6627TIP3    H141296   6.148   0.193   5.403  0.8249  0.7727  0.0636
 6627TIP3    H241297   6.271   0.120   5.353 -0.1319 -0.7984 -0.0138
 6628TIP3   OH241298   4.897   2.452   4.889 -0.1194 -0.1100  0.1953
 6628TIP3    H141299   4.857   2.536   4.867 -0.2116  0.0199  0.8487
 6628TIP3    H241300   4.864   2.392   4.822 -1.0179  0.1010  0.4440
 6629TIP3   OH241301   2.333   1.223  11.000 -0.8642 -0.0156 -0.2094
 6629TIP3    H141302   2.245   1.225  10.961 -1.1992 -0.8308  0.4919
 6629TIP3    H241303   2.393   1.224  10.925 -1.4552  0.8249 -0.6864
 6630TIP3   OH241304   5.609   0.221  16.100 -0.0474 -0.5370  0.3407
 6630TIP3    H141305   5.666   0.182  16.167  0.8066 -1.6177 -1.0053
 6630TIP3    H241306   5.567   0.147  16.058 -0.6808  0.1512 -0.2461
 6631TIP3   OH241307   6.541   6.786  15.502 -0.2047 -0.1589  0.3152
 6631TIP3    H141308   6.448   6.764  15.504  0.1569 -1.7851  0.0665
 6631TIP3    H241309   6.571   6.756  15.416  0.9854 -1.5865  1.1993
 6632TIP3   OH241310   5.649   5.412  15.855  0.7417  0.0763 -0.8299
 6632TIP3    H141311   5.718   5.348  15.875 -0.2437 -0.8640 -0.4167
 6632TIP3    H241312   5.693   5.497  15.864  1.7192 -0.4900 -0.0409
 6633TIP3   OH241313   2.521   0.816  16.103 -0.2894  0.3918 -0.6139
 6633TIP3    H141314   2.473   0.899  16.099 -0.1352  0.4164 -2.4227
 6633TIP3    H241315   2.565   0.810  16.019  1.5058 -0.4773  0.3566
 6634TIP3   OH241316   4.059   2.781  15.893  0.4429  0.1896 -0.0735
 6634TIP3    H141317   4.146   2.781  15.854 -0.0412 -0.0493 -1.1595
 6634TIP3    H241318   4.017   2.702  15.859  0.0211 -0.0358  0.9421
 6635TIP3   OH241319   6.405   0.249   4.952  0.1438 -0.4448  0.3862
 6635TIP3    H141320   6.489   0.284   4.923  0.3052  0.0910  1.4473
 6635TIP3    H241321   6.355   0.327   4.978  0.5102 -0.9570  2.7792
 6636TIP3   OH241322   0.804   4.743  13.673  0.1359  0.5622 -0.6966
 6636TIP3    H141323   0.793   4.836  13.695 -1.9457 -0.8325  5.2480
 6636TIP3    H241324   0.725   4.721  13.624 -1.0821  1.1963  0.9282
 6637TIP3   OH241325   1.067   0.984  16.226 -0.4495 -0.1673 -0.0962
 6637TIP3    H141326   1.146   0.936  16.251  0.6427  1.6146  0.0043
 6637TIP3    H241327   0.998   0.948  16.281  0.3890 -1.4340  0.1445
 6638TIP3   OH241328   6.119   5.021  14.140 -0.1608 -0.7842 -0.4229
 6638TIP3    H141329   6.169   5.052  14.064 -0.3442 -0.8645 -0.5769
 6638TIP3    H241330   6.182   4.971  14.191  0.3476  0.5110  0.2347
 6639TIP3   OH241331   2.746   2.330  15.795 -0.3117  0.4573 -0.2969
 6639TIP3    H141332   2.737   2.245  15.751  1.2159  0.8245 -1.3300
 6639TIP3    H241333   2.728   2.395  15.727  2.4155  1.0274 -0.5053
 6640TIP3   OH241334   5.655   3.537  11.296 -0.1833 -0.1807  0.9325
 6640TIP3    H141335   5.691   3.459  11.252 -0.6467  0.9438 -1.4694
 6640TIP3    H241336   5.631   3.505  11.383  0.2503 -2.5764  0.2236
 6641TIP3   OH241337   5.076   5.990  12.477  0.5477  0.0879  0.2697
 6641TIP3    H141338   5.140   6.061  12.469 -0.4688  0.8265 -1.4985
 6641TIP3    H241339   5.009   6.024  12.535  1.8041 -0.7598  2.2869
 6642TIP3   OH241340   1.530   4.518  12.560 -0.0705 -0.2275  0.3152
 6642TIP3    H141341   1.588   4.594  12.557 -0.0515 -0.0455  3.6051
 6642TIP3    H241342   1.444   4.554  12.580 -0.2972 -0.9603  0.6745
 6643TIP3   OH241343   0.613   5.330  12.661  0.0397 -0.1710 -0.0144
 6643TIP3    H141344   0.522   5.315  12.635 -0.1861 -0.8656  1.1180
 6643TIP3    H241345   0.658   5.353  12.580 -0.7654 -1.6231 -0.8871
 6644TIP3   OH241346   6.508   6.643   5.778  0.1693  0.3493  0.0479
 6644TIP3    H141347   6.480   6.693   5.855 -0.6513 -0.4707  0.3001
 6644TIP3    H241348   6.470   6.556   5.792  2.6329 -0.7207  0.2321
 6645TIP3   OH241349   5.756   0.621  13.656  0.2556 -0.0156  0.4901
 6645TIP3    H141350   5.762   0.715  13.671  1.3634 -0.1989  1.3186
 6645TIP3    H241351   5.843   0.596  13.623  0.1745 -0.8385  0.8638
 6646TIP3   OH241352   3.059   3.966  14.984 -0.2512 -0.4123  0.0131
 6646TIP3    H141353   3.116   3.996  14.914 -2.7030 -0.4848 -2.0803
 6646TIP3    H241354   3.094   3.880  15.009  0.6946 -0.3392 -1.0553
 6647TIP3   OH241355   2.969   3.649   4.470 -0.6496  0.1134 -1.1090
 6647TIP3    H141356   2.897   3.670   4.411 -1.1110 -0.7216 -0.8552
 6647TIP3    H241357   3.027   3.593   4.418 -0.3540  0.5090 -1.2073
 6648TIP3   OH241358   0.826   0.592   1.222 -0.9162 -0.6604 -0.6575
 6648TIP3    H141359   0.858   0.553   1.303 -1.2387 -1.1390 -0.7586
 6648TIP3    H241360   0.790   0.676   1.249 -0.1642 -0.4003 -0.4478
 6649TIP3   OH241361   0.210   1.225   1.872  0.1188 -0.1759  0.4747
 6649TIP3    H141362   0.285   1.176   1.905  0.5502  0.2801  0.1784
 6649TIP3    H241363   0.241   1.315   1.867 -0.6264  0.1043  0.8739
 6650TIP3   OH241364   0.281   4.405   5.247  0.3018 -0.2491 -0.8205
 6650TIP3    H141365   0.279   4.310   5.235  1.5975 -0.3013 -0.7466
 6650TIP3    H241366   0.219   4.439   5.183 -1.7210 -1.2599  0.5587
 6651TIP3   OH241367   2.134   2.609  15.345  0.0029  0.1883  0.1441
 6651TIP3    H141368   2.087   2.543  15.294 -0.3616  0.8824 -0.4150
 6651TIP3    H241369   2.066   2.655  15.394  0.4149 -0.8988  1.7550
 6652TIP3   OH241370   4.445   5.177   4.082 -0.0780 -0.0175  0.1128
 6652TIP3    H141371   4.415   5.265   4.104 -1.5272 -0.2366 -0.9742
 6652TIP3    H241372   4.370   5.120   4.099  0.9152 -1.0955  1.0204
 6653TIP3   OH241373   5.034   1.425  14.132  0.5967  0.6765  0.3354
 6653TIP3    H141374   5.054   1.469  14.215  1.3666  0.1779  0.4170
 6653TIP3    H241375   4.988   1.345  14.158  1.3030  0.2582  0.3152
 6654TIP3   OH241376   0.194   3.052   3.838  0.4388 -0.2230  0.6649
 6654TIP3    H141377   0.145   2.978   3.801  0.6233 -0.6865  1.3502
 6654TIP3    H241378   0.188   3.120   3.770 -0.0165 -0.7420  0.1742
 6655TIP3   OH241379   6.500   2.292  14.242  0.1896  0.2162 -0.2168
 6655TIP3    H141380   6.455   2.325  14.164 -0.9852 -0.1705  0.2857
 6655TIP3    H241381   6.532   2.206  14.217 -2.4560 -1.0294  0.5216
 6656TIP3   OH241382   0.005   4.570   5.387  0.3875 -0.7363 -0.2994
 6656TIP3    H141383  -0.061   4.502   5.370 -0.4209  0.1068 -0.5381
 6656TIP3    H241384   0.043   4.588   5.301  1.6825 -1.9733 -0.0086
 6657TIP3   OH241385   2.152   6.166   1.297  0.0738 -0.3964  0.4690
 6657TIP3    H141386   2.060   6.145   1.313 -1.1724  2.2667 -2.6596
 6657TIP3    H241387   2.197   6.082   1.307 -3.0523 -2.3088 -0.4884
 6658TIP3   OH241388   3.437   5.367   4.882  0.0832  0.1004 -0.4627
 6658TIP3    H141389   3.455   5.452   4.923  2.2949  0.9546 -3.0571
 6658TIP3    H241390   3.390   5.317   4.949  0.8452  2.5300  1.9447
 6659TIP3   OH241391   0.202   2.518   4.959 -0.2118  0.0044  0.7101
 6659TIP3    H141392   0.253   2.534   5.039 -0.4171  0.9023  0.6670
 6659TIP3    H241393   0.195   2.423   4.954  2.3723 -0.1983  0.1422
 6660TIP3   OH241394   3.477   5.993   2.888  0.1068 -0.5223  0.7731
 6660TIP3    H141395   3.569   6.016   2.872 -0.6893  2.0836 -0.4643
 6660TIP3    H241396   3.468   5.996   2.983  1.6270 -2.2588  1.0048
 6661TIP3   OH241397   3.134   4.013   2.063  0.1911 -0.2218 -0.0742
 6661TIP3    H141398   3.119   4.017   1.969 -0.1407 -1.2316 -0.0683
 6661TIP3    H241399   3.158   3.922   2.080 -0.4635 -0.2238  0.9131
 6662TIP3   OH241400   2.920   1.782  16.764  0.2875  0.3475 -0.4105
 6662TIP3    H141401   2.958   1.863  16.795  0.1148 -0.8784  3.1654
 6662TIP3    H241402   2.826   1.801  16.757  0.1048  0.1949  1.4106
 6663TIP3   OH241403   3.647   2.322   6.438 -0.6896  0.4534  0.0052
 6663TIP3    H141404   3.632   2.313   6.532 -0.1094  0.5279  0.1045
 6663TIP3    H241405   3.734   2.285   6.424 -0.1109  1.9026 -0.2661
 6664TIP3   OH241406   0.960   5.008  17.226 -0.3174 -0.3344 -0.3326
 6664TIP3    H141407   0.940   5.075  17.160 -1.3382 -0.1724  0.1383
 6664TIP3    H241408   0.991   5.057  17.302 -0.6372 -0.4320 -0.1440
 6665TIP3   OH241409   6.081   6.282  11.871  0.2996 -0.1985 -0.0850
 6665TIP3    H141410   5.999   6.298  11.917  0.0591 -0.3670 -0.4616
 6665TIP3    H241411   6.127   6.218  11.927 -0.8885 -1.9939 -1.1053
 6666TIP3   OH241412   2.080   3.397  13.353 -0.5823  0.3600 -0.3231
 6666TIP3    H141413   2.146   3.384  13.285 -1.4113 -0.8117 -0.9196
 6666TIP3    H241414   2.061   3.491  13.351  2.1078  0.9693  0.8566
 6667TIP3   OH241415   0.057   5.432  15.814  0.3618  0.1683 -0.0441
 6667TIP3    H141416   0.127   5.494  15.835 -0.0846  0.3954  0.7757
 6667TIP3    H241417  -0.023   5.484  15.819 -0.2434 -0.9845  2.9199
 6668TIP3   OH241418   1.776   5.802   5.053 -0.4762  0.2210 -0.0059
 6668TIP3    H141419   1.820   5.788   4.970  0.8677  1.2474  0.5213
 6668TIP3    H241420   1.706   5.865   5.033 -1.4783 -1.0888 -0.7482
 6669TIP3   OH241421   4.570   1.508  12.380 -0.2564 -0.8745 -0.2575
 6669TIP3    H141422   4.525   1.439  12.330 -2.0852  0.5070 -0.5510
 6669TIP3    H241423   4.645   1.531  12.325 -1.3626 -0.4870 -1.6235
 6670TIP3   OH241424   1.875   4.750   3.014 -0.6762 -0.0047 -0.4681
 6670TIP3    H141425   1.904   4.797   3.093 -1.9460 -1.2283  0.7514
 6670TIP3    H241426   1.927   4.788   2.943 -0.4891  2.0615  0.7449
 6671TIP3   OH241427   1.659   4.257   6.568 -0.2498 -0.1534 -0.2622
 6671TIP3    H141428   1.681   4.184   6.626 -1.0984  0.0659  0.3527
 6671TIP3    H241429   1.678   4.335   6.620 -0.0400  0.0560 -0.6543
 6672TIP3   OH241430   6.762   3.061  15.504  0.0249  0.5343 -0.0901
 6672TIP3    H141431   6.791   2.981  15.461 -0.0957  0.3831  0.1114
 6672TIP3    H241432   6.754   3.125  15.432  1.1726  0.6738 -0.0943
 6673TIP3   OH241433   5.287   1.094   2.491 -0.1247  0.2073 -0.6159
 6673TIP3    H141434   5.228   1.065   2.561  1.1626  0.6794  0.7134
 6673TIP3    H241435   5.316   1.181   2.520  1.9380 -0.4099 -0.7536
 6674TIP3   OH241436   1.893   4.687  14.768  0.2798 -0.2103 -0.3905
 6674TIP3    H141437   1.813   4.635  14.757  0.0101  0.3870 -1.3147
 6674TIP3    H241438   1.891   4.716  14.859 -0.5674 -0.1888 -0.4153
 6675TIP3   OH241439   0.211   6.112   0.712 -0.5270  0.2677 -0.4521
 6675TIP3    H141440   0.245   6.199   0.692 -1.2001  0.7333  0.3920
 6675TIP3    H241441   0.223   6.103   0.807  2.8304 -1.9913 -1.0283
 6676TIP3   OH241442   1.756   2.448   1.570  0.0027 -0.3036 -0.1454
 6676TIP3    H141443   1.806   2.433   1.489  0.5859 -0.8410  0.3171
 6676TIP3    H241444   1.670   2.411   1.552  0.8975 -2.6804  0.3727
 6677TIP3   OH241445   6.211   1.298   0.959 -0.3650  0.4381  0.3216
 6677TIP3    H141446   6.123   1.263   0.945  0.2856 -2.0656  2.1444
 6677TIP3    H241447   6.261   1.267   0.883 -0.8580  1.2636 -0.3525
 6678TIP3   OH241448   4.934   5.364  11.777 -0.5229  0.3987 -0.3266
 6678TIP3    H141449   4.982   5.446  11.767 -0.0232  0.1074 -0.3291
 6678TIP3    H241450   4.923   5.331  11.688 -0.0568  0.0859 -0.2718
 6679TIP3   OH241451   1.868   3.119  12.993  0.1108 -0.1443 -0.2062
 6679TIP3    H141452   1.942   3.179  12.999 -2.0039  2.5373  0.2929
 6679TIP3    H241453   1.875   3.064  13.072  1.8283 -0.2908 -0.4465
 6680TIP3   OH241454   4.348   2.467   5.362  1.3861  0.0851 -0.5661
 6680TIP3    H141455   4.334   2.377   5.393  0.8050  0.7865  1.3239
 6680TIP3    H241456   4.370   2.516   5.442 -2.1040  2.3881 -0.9183
 6681TIP3   OH241457   5.039   1.093  14.843 -0.2586 -0.5380 -0.0130
 6681TIP3    H141458   5.106   1.052  14.897 -2.8331 -1.2464  2.8296
 6681TIP3    H241459   4.996   1.156  14.902 -0.5001  1.6460 -2.4632
 6682TIP3   OH241460   5.052   3.716   4.703  0.2536 -0.6857 -0.2538
 6682TIP3    H141461   5.048   3.623   4.680  3.6032 -0.9727  0.1046
 6682TIP3    H241462   5.067   3.717   4.797  0.7138  0.2199 -0.3317
 6683TIP3   OH241463   6.188   3.345   3.455  0.3411 -0.1916  0.0224
 6683TIP3    H141464   6.262   3.321   3.511  0.3888 -1.5243 -0.5988
 6683TIP3    H241465   6.191   3.283   3.383 -0.6669  0.5177 -0.6422
 6684TIP3   OH241466   5.422   1.608  13.874  0.2411 -0.1557  0.2756
 6684TIP3    H141467   5.473   1.676  13.832  0.2845  0.3204  1.0732
 6684TIP3    H241468   5.431   1.531  13.818 -0.0240  0.5770 -0.7674
 6685TIP3   OH241469   1.168   2.153  16.080 -0.2780  0.0302 -0.1587
 6685TIP3    H141470   1.121   2.113  16.007 -1.1747  0.8923 -0.0708
 6685TIP3    H241471   1.101   2.202  16.128  0.9882  2.8624 -1.1269
 6686TIP3   OH241472   5.763   0.857   2.275 -0.2398  0.2336  0.1410
 6686TIP3    H141473   5.695   0.922   2.292 -1.3030 -1.0728  0.9729
 6686TIP3    H241474   5.752   0.835   2.182 -2.0050 -1.1205  0.6409
 6687TIP3   OH241475   4.997   0.781   2.581 -0.1831  0.1549  0.2956
 6687TIP3    H141476   5.042   0.701   2.556  0.4217  0.0467  1.6890
 6687TIP3    H241477   4.937   0.753   2.651  0.6383  1.0512  1.3789
 6688TIP3   OH241478   2.991   3.521  11.586  0.3805 -0.3183  0.0355
 6688TIP3    H141479   2.961   3.456  11.649 -0.3633 -0.3667 -0.3600
 6688TIP3    H241480   2.923   3.523  11.519  0.6546  0.4772 -0.2321
 6689TIP3   OH241481   2.814   1.860  14.393 -0.2663 -0.4024  0.7507
 6689TIP3    H141482   2.796   1.802  14.467 -0.8294  1.2322  1.9258
 6689TIP3    H241483   2.904   1.889  14.407  1.7866 -4.6718 -2.4406
 6690TIP3   OH241484   4.369   4.665  12.186  0.5901 -0.5488 -0.5362
 6690TIP3    H141485   4.462   4.682  12.172 -0.0151  1.7667 -1.9209
 6690TIP3    H241486   4.328   4.684  12.102 -1.1435 -1.6932  0.0269
 6691TIP3   OH241487   3.249   1.039  15.852 -0.3832 -0.7579 -0.2429
 6691TIP3    H141488   3.338   1.017  15.878  0.0723  2.3269  1.0541
 6691TIP3    H241489   3.252   1.044  15.756  0.7364 -1.1388 -0.2281
 6692TIP3   OH241490   5.596   0.728  15.232 -0.4207 -0.2017  0.1156
 6692TIP3    H141491   5.513   0.728  15.185 -0.8180 -0.5782  0.7983
 6692TIP3    H241492   5.663   0.725  15.164 -0.8330  4.0649 -0.5908
 6693TIP3   OH241493   2.643   1.552   1.120 -0.4313  0.6771 -0.0495
 6693TIP3    H141494   2.723   1.585   1.079  0.5164 -0.1534  1.0858
 6693TIP3    H241495   2.670   1.471   1.163 -2.2691 -0.5346 -1.1069
 6694TIP3   OH241496   4.708   1.726   3.922  0.3521  0.7060  0.1615
 6694TIP3    H141497   4.741   1.799   3.869  1.2169  0.1496 -0.0817
 6694TIP3    H241498   4.787   1.685   3.958 -0.2020  0.7720  1.4848
 6695TIP3   OH241499   1.948   2.111  10.645  0.0432 -0.3180 -0.4540
 6695TIP3    H141500   2.003   2.141  10.717 -0.7566  0.9234 -0.3460
 6695TIP3    H241501   1.928   2.020  10.666 -2.0967  0.6877  2.0844
 6696TIP3   OH241502   6.781   2.303   0.318 -0.8085  0.5309  0.2712
 6696TIP3    H141503   6.819   2.387   0.342  0.3796  0.3034 -0.7795
 6696TIP3    H241504   6.847   2.262   0.262 -1.4263 -1.0490  0.6819
 6697TIP3   OH241505   3.105   3.401  13.417  0.4791 -0.1157 -0.3143
 6697TIP3    H141506   3.185   3.373  13.371  2.4562 -0.4866  3.1445
 6697TIP3    H241507   3.066   3.320  13.448 -0.6750  0.1572 -1.0200
 6698TIP3   OH241508   0.968   2.165  11.328 -0.0384  0.5266  0.5077
 6698TIP3    H141509   0.959   2.118  11.245 -2.1693 -0.8765  1.5109
 6698TIP3    H241510   1.051   2.135  11.363 -0.1216 -0.4772 -0.1220
 6699TIP3   OH241511   0.995   2.661   2.577  0.1184 -0.8058  0.2677
 6699TIP3    H141512   1.088   2.636   2.570 -0.4901 -3.0665 -0.3635
 6699TIP3    H241513   0.977   2.710   2.497  0.1923 -2.4548 -0.7881
 6700TIP3   OH241514   6.435   1.231   2.558 -0.0788  0.1276 -0.2503
 6700TIP3    H141515   6.401   1.211   2.471 -0.0087 -0.6706 -0.1033
 6700TIP3    H241516   6.362   1.213   2.617  0.4498 -1.1545  0.0235
 6701TIP3   OH241517   4.790   0.547   1.854 -0.4602 -0.0302  0.1788
 6701TIP3    H141518   4.811   0.543   1.947  0.9105  0.5829 -0.0793
 6701TIP3    H241519   4.826   0.466   1.818  1.6572  1.0545 -0.2776
 6702TIP3   OH241520   6.265   4.531  15.146 -0.0828  0.5283  0.1787
 6702TIP3    H141521   6.251   4.437  15.149  0.1053  0.4913 -0.0815
 6702TIP3    H241522   6.263   4.553  15.053 -1.8135  1.0487  0.3215
 6703TIP3   OH241523   4.167   0.256  12.173  0.2044 -0.1541  0.1969
 6703TIP3    H141524   4.218   0.281  12.096  1.6797 -1.2575  0.7951
 6703TIP3    H241525   4.149   0.339  12.217  0.2253  0.3860 -0.7941
 6704TIP3   OH241526   5.223   3.534   2.710 -0.3658 -0.0637 -0.4266
 6704TIP3    H141527   5.224   3.619   2.668 -1.0394 -0.7904 -1.9514
 6704TIP3    H241528   5.132   3.504   2.701 -0.0835 -1.0404 -0.0896
 6705TIP3   OH241529   4.120   4.592   1.043 -0.0260 -0.7483  0.5653
 6705TIP3    H141530   4.071   4.559   1.119 -0.5794 -2.1624 -0.3836
 6705TIP3    H241531   4.080   4.548   0.968 -1.9786  3.3820 -0.9930
 6706TIP3   OH241532   4.130   3.234   2.533  0.4587 -0.0020  0.0024
 6706TIP3    H141533   4.150   3.158   2.479 -1.0843 -0.4593  0.0555
 6706TIP3    H241534   4.210   3.249   2.583  1.8785  0.3940 -2.3313
 6707TIP3   OH241535   6.172   2.761   1.749  0.0136 -0.3766  0.0850
 6707TIP3    H141536   6.188   2.668   1.765  0.5538 -0.4534 -0.8936
 6707TIP3    H241537   6.215   2.779   1.665 -1.1200  0.4759 -0.3229
 6708TIP3   OH241538   1.836   1.826   1.407  0.6824  0.2564  0.1103
 6708TIP3    H141539   1.754   1.806   1.361  1.6375 -1.3243 -0.9280
 6708TIP3    H241540   1.819   1.911   1.448 -0.8942  0.7570 -1.4893
 6709TIP3   OH241541   2.711   0.083   3.615 -0.2296  0.4139 -0.0071
 6709TIP3    H141542   2.659   0.015   3.659 -0.2676  1.5102  1.6731
 6709TIP3    H241543   2.791   0.038   3.589 -0.2575 -0.3036  1.0862
 6710TIP3   OH241544   5.281   1.391  12.551 -0.4054 -0.7819 -0.4247
 6710TIP3    H141545   5.367   1.363  12.584 -0.3063  0.5285  0.4347
 6710TIP3    H241546   5.218   1.352  12.612 -0.3036  0.2263  0.3271
 6711TIP3   OH241547   4.524   3.645  16.578  0.2172 -0.4958 -0.8809
 6711TIP3    H141548   4.534   3.710  16.648  0.0741 -0.4404 -0.9095
 6711TIP3    H241549   4.480   3.571  16.621 -0.8335 -0.0438 -1.1522
 6712TIP3   OH241550   5.551   0.960   4.597 -0.9291  0.2464 -0.2367
 6712TIP3    H141551   5.608   1.036   4.600 -0.7962  0.1161  0.9038
 6712TIP3    H241552   5.590   0.903   4.530 -0.7071  0.9145 -0.6835
 6713TIP3   OH241553   2.974   1.453  10.771 -0.0383 -0.3451 -0.2326
 6713TIP3    H141554   2.901   1.393  10.787 -1.3404  1.6536  1.7549
 6713TIP3    H241555   2.976   1.465  10.676 -1.0343 -1.9220 -0.4704
 6714TIP3   OH241556   5.839   0.645   2.803  0.0741 -0.2454  0.5783
 6714TIP3    H141557   5.808   0.683   2.721  3.8030 -0.6227 -1.1157
 6714TIP3    H241558   5.816   0.552   2.795  0.1181 -0.2214  0.1188
 6715TIP3   OH241559   1.533   4.095   3.136  0.2729  0.0012  0.0631
 6715TIP3    H141560   1.474   4.032   3.097 -1.3554  1.9517 -0.7296
 6715TIP3    H241561   1.618   4.052   3.138 -0.8525 -2.2650 -0.2316
 6716TIP3   OH241562   3.696   3.241  16.185 -0.1469  0.0549 -0.2835
 6716TIP3    H141563   3.622   3.272  16.133 -0.4327 -0.8050 -0.3909
 6716TIP3    H241564   3.730   3.320  16.228 -1.2738  0.4141 -0.0400
 6717TIP3   OH241565   5.738   4.652   3.260 -0.4467 -0.1014  0.1395
 6717TIP3    H141566   5.757   4.600   3.338  2.0649  1.3064  0.5103
 6717TIP3    H241567   5.702   4.588   3.198 -1.7455 -1.3944  2.1282
 6718TIP3   OH241568   4.060   6.132   5.176 -0.6717  0.2130  0.4532
 6718TIP3    H141569   4.014   6.170   5.251 -0.2396  2.2979 -0.2902
 6718TIP3    H241570   4.153   6.150   5.193 -0.5092 -0.0182 -0.1645
 6719TIP3   OH241571   2.901   3.388   3.726 -0.6926 -0.5331 -0.3501
 6719TIP3    H141572   2.907   3.362   3.818  1.1939 -0.2135 -0.3727
 6719TIP3    H241573   2.929   3.310   3.678 -0.2204 -0.1959 -0.6116
 6720TIP3   OH241574   1.784   1.572   2.097 -0.1944 -0.1136  0.2474
 6720TIP3    H141575   1.807   1.665   2.094  0.8681 -0.4047 -0.4023
 6720TIP3    H241576   1.821   1.541   2.180  0.5417 -0.2618 -0.1424
 6721TIP3   OH241577   6.147   4.275   5.649 -0.2328 -0.3998  0.1011
 6721TIP3    H141578   6.134   4.185   5.681 -2.7808 -0.3105 -0.5876
 6721TIP3    H241579   6.185   4.264   5.562 -0.4964 -0.8197  0.0377
 6722TIP3   OH241580   3.471   1.468  17.086 -0.2947  0.5102 -0.0910
 6722TIP3    H141581   3.541   1.495  17.027  0.0632 -0.4102 -0.0856
 6722TIP3    H241582   3.391   1.498  17.043 -0.1440 -1.4424 -1.7724
 6723TIP3   OH241583   5.699   3.827   3.826 -0.2835  0.4001  0.2228
 6723TIP3    H141584   5.789   3.831   3.794 -0.8521 -0.4570 -1.5144
 6723TIP3    H241585   5.657   3.904   3.788 -0.8552 -0.3980 -0.7706
 6724TIP3   OH241586   3.194   0.335  10.290  0.2944  0.2558  0.1963
 6724TIP3    H141587   3.251   0.302  10.220 -1.1725 -1.3911 -0.2815
 6724TIP3    H241588   3.204   0.430  10.286  2.1424  0.0592 -0.5917
 6725TIP3   OH241589   0.021   6.703  12.180  0.2565  0.8737 -0.3081
 6725TIP3    H141590  -0.066   6.668  12.160 -0.4247  2.0174  0.5746
 6725TIP3    H241591   0.078   6.663  12.115 -0.4383 -2.0954  0.8364
 6726TIP3   OH241592   0.788   4.740  12.286 -0.4843  0.0744  0.1600
 6726TIP3    H141593   0.873   4.733  12.242 -1.1940  1.4529 -1.4736
 6726TIP3    H241594   0.769   4.834  12.288 -1.5961 -0.1567  1.2539
 6727TIP3   OH241595   4.740   4.275  14.336 -0.4719 -0.7817  0.4038
 6727TIP3    H141596   4.832   4.267  14.361 -0.0382 -0.3505 -0.9685
 6727TIP3    H241597   4.694   4.213  14.391  0.6782 -1.1467  0.9658
 6728TIP3   OH241598   1.364   2.927  11.796  0.3979 -0.7171  0.4671
 6728TIP3    H141599   1.349   2.868  11.723  0.3594  0.6372 -0.6420
 6728TIP3    H241600   1.458   2.940  11.800  0.3192  0.0471 -0.0277
 6729TIP3   OH241601   1.722   1.547   4.745  0.3699  0.6362 -0.5258
 6729TIP3    H141602   1.687   1.459   4.732  1.0120  0.3192 -0.1384
 6729TIP3    H241603   1.667   1.603   4.690 -1.2816  0.2720  0.7104
 6730TIP3   OH241604   2.872   6.270   0.936 -1.1723 -0.0345 -0.7066
 6730TIP3    H141605   2.843   6.196   0.882 -0.5650  0.0725 -1.1896
 6730TIP3    H241606   2.844   6.248   1.025 -0.4096 -1.1644 -0.7366
 6731TIP3   OH241607   5.231   6.419   5.617  0.4818  0.4227 -0.1500
 6731TIP3    H141608   5.271   6.505   5.635 -0.0016  0.5539  0.3185
 6731TIP3    H241609   5.252   6.401   5.526  1.3267  0.6460 -0.0023
 6732TIP3   OH241610   0.486   0.986  11.999 -0.0280  0.2917 -0.3331
 6732TIP3    H141611   0.525   0.933  12.068 -1.7082 -1.0097 -0.3426
 6732TIP3    H241612   0.436   0.924  11.947 -0.5727  1.6154 -1.4169
 6733TIP3   OH241613   6.348   1.227   1.490  0.3828 -0.3151  0.1869
 6733TIP3    H141614   6.423   1.279   1.462  0.4348 -0.3502  0.2611
 6733TIP3    H241615   6.312   1.190   1.409  0.1740  0.0663  0.1044
 6734TIP3   OH241616   4.711   2.420   0.720 -0.1813 -0.0939 -0.2296
 6734TIP3    H141617   4.759   2.484   0.667 -0.0062 -0.4615 -0.5209
 6734TIP3    H241618   4.774   2.393   0.787  0.1372 -0.8304 -0.8195
 6735TIP3   OH241619   4.199   2.667  13.187  0.4690  0.2790 -0.1954
 6735TIP3    H141620   4.250   2.624  13.256  0.0582 -0.8310 -0.5700
 6735TIP3    H241621   4.147   2.596  13.149 -0.0414  1.0775 -0.9810
 6736TIP3   OH241622   3.703   6.535  13.826 -0.6949 -0.1153  0.1369
 6736TIP3    H141623   3.754   6.580  13.893  2.4279 -1.2497 -1.3859
 6736TIP3    H241624   3.706   6.443  13.852  1.8875 -0.7883 -2.3090
 6737TIP3   OH241625   0.370   4.113   5.761  0.2106 -0.0441  0.1444
 6737TIP3    H141626   0.424   4.183   5.727 -0.4112 -0.5272 -1.8916
 6737TIP3    H241627   0.427   4.036   5.760 -0.7186 -0.7637 -2.8878
 6738TIP3   OH241628   2.501   5.769  14.716 -0.3476 -0.1142  0.4649
 6738TIP3    H141629   2.531   5.852  14.752  0.8492 -0.9474  1.4535
 6738TIP3    H241630   2.406   5.770  14.727 -0.4086  1.4032 -0.1683
 6739TIP3   OH241631   6.763   6.674   4.343 -0.1472 -0.5112 -0.6085
 6739TIP3    H141632   6.853   6.650   4.321  0.1052 -0.1083 -0.0312
 6739TIP3    H241633   6.721   6.692   4.258  0.0452 -1.6207 -0.9435
 6740TIP3   OH241634   0.634   1.349   3.302  0.3448  0.3309 -0.3671
 6740TIP3    H141635   0.639   1.325   3.394  0.4666  1.3819 -0.0838
 6740TIP3    H241636   0.721   1.329   3.267 -0.3136 -1.9648 -0.7565
 6741TIP3   OH241637   3.283   0.017  14.687  0.2320 -0.4911 -0.6269
 6741TIP3    H141638   3.235   0.062  14.756 -1.8701 -0.2352 -2.2163
 6741TIP3    H241639   3.356   0.075  14.666  0.8430 -0.5353  1.2910
 6742TIP3   OH241640   0.837   1.346   6.108 -0.6124  0.6294 -0.2987
 6742TIP3    H141641   0.831   1.266   6.158  1.2712  0.1798 -0.7628
 6742TIP3    H241642   0.839   1.416   6.173 -0.2438  0.1720  0.1800
 6743TIP3   OH241643   4.239   6.077  10.489 -0.1719 -0.3409 -0.7702
 6743TIP3    H141644   4.225   5.983  10.491  1.7135 -0.6526 -0.9753
 6743TIP3    H241645   4.238   6.100  10.396 -1.0054 -0.1048 -0.7004
 6744TIP3   OH241646   4.487   4.628   3.231 -0.0147  0.2589 -0.5730
 6744TIP3    H141647   4.532   4.696   3.281 -1.2248  0.4248  0.3158
 6744TIP3    H241648   4.540   4.550   3.245  1.3011  0.9546 -1.4724
 6745TIP3   OH241649   5.656   3.469  14.334 -0.2037 -0.5249  0.3405
 6745TIP3    H141650   5.562   3.477  14.317 -0.7841 -4.3267  1.1850
 6745TIP3    H241651   5.684   3.397  14.278  2.3826  0.9856 -0.3702
 6746TIP3   OH241652   4.752   0.515  13.483  0.4461  0.3722  0.1745
 6746TIP3    H141653   4.687   0.553  13.542 -1.1005  0.9638 -1.8762
 6746TIP3    H241654   4.756   0.422  13.508 -0.9019  0.4171  0.5780
 6747TIP3   OH241655   3.843   2.677   4.091 -0.3507 -0.6458  0.2435
 6747TIP3    H141656   3.800   2.604   4.137 -1.8500 -0.1446 -0.3311
 6747TIP3    H241657   3.798   2.755   4.124  0.2977 -0.0970 -0.1869
 6748TIP3   OH241658   3.233   4.493   2.544 -0.2252 -0.2298  0.0360
 6748TIP3    H141659   3.250   4.574   2.593  0.3993 -0.5697  0.3889
 6748TIP3    H241660   3.261   4.514   2.454  2.3474 -0.8323  0.6400
 6749TIP3   OH241661   2.276   5.362   5.821 -0.4241 -0.7015 -0.3101
 6749TIP3    H141662   2.203   5.301   5.837 -0.0236 -1.2479 -0.5568
 6749TIP3    H241663   2.333   5.315   5.761 -0.5821  0.2926 -1.2556
 6750TIP3   OH241664   3.974   5.622   5.852  0.0062 -0.6118 -0.0163
 6750TIP3    H141665   4.013   5.561   5.914  2.4179  0.3635 -0.5577
 6750TIP3    H241666   3.948   5.697   5.905  0.0216 -0.7140  0.1373
 6751TIP3   OH241667   4.970   1.818  13.943  0.1979 -0.2138  0.0650
 6751TIP3    H141668   4.997   1.909  13.949 -0.9157  0.0560  1.1804
 6751TIP3    H241669   5.043   1.774  13.899 -0.6224  1.7826 -3.4928
 6752TIP3   OH241670   5.682   1.013  13.858  0.2899  0.2681 -0.2944
 6752TIP3    H141671   5.612   1.065  13.818 -0.9399 -1.3904 -0.3348
 6752TIP3    H241672   5.735   0.984  13.784 -0.1994 -0.2323 -0.4493
 6753TIP3   OH241673   3.048   4.323   0.471 -0.3230  0.3476 -0.4526
 6753TIP3    H141674   2.986   4.327   0.399 -2.6764 -0.1312  1.5122
 6753TIP3    H241675   3.021   4.393   0.530  0.4901 -0.4189  0.8418
 6754TIP3   OH241676   2.425   4.763  13.654 -0.2385  0.6804  0.7153
 6754TIP3    H141677   2.385   4.690  13.701  0.4507 -0.2677 -0.1346
 6754TIP3    H241678   2.386   4.759  13.567  0.0266  1.1443  0.5726
 6755TIP3   OH241679   0.783   1.889   4.871  0.7347 -0.0365  0.1706
 6755TIP3    H141680   0.714   1.953   4.854 -0.5017 -1.7491 -1.4202
 6755TIP3    H241681   0.820   1.916   4.955 -3.7687 -0.6943  2.5461
 6756TIP3   OH241682   2.630   2.932   5.791 -0.3511  0.1939 -0.2216
 6756TIP3    H141683   2.568   2.970   5.853 -0.0008  0.2889  0.0745
 6756TIP3    H241684   2.687   2.876   5.845  1.4644  2.1227 -0.0525
 6757TIP3   OH241685   6.151   1.133  15.993  0.3988 -0.1243 -0.1519
 6757TIP3    H141686   6.201   1.066  15.946  1.5508  0.6509 -0.0444
 6757TIP3    H241687   6.067   1.092  16.011  0.3749 -0.8481 -1.8505
 6758TIP3   OH241688   0.654   0.809  16.975 -0.7714  0.0556 -0.0902
 6758TIP3    H141689   0.589   0.745  17.003 -0.0361 -0.8983 -0.5444
 6758TIP3    H241690   0.716   0.760  16.921 -0.4134  1.2214 -0.7774
 6759TIP3   OH241691   4.813   4.531  12.389  0.4690 -0.1713  0.3970
 6759TIP3    H141692   4.821   4.622  12.419 -2.4081  0.1512  0.4043
 6759TIP3    H241693   4.868   4.526  12.312  0.3407  1.7262  0.1597
 6760TIP3   OH241694   2.126   2.166   4.458 -0.0447  0.3516 -0.2964
 6760TIP3    H141695   2.120   2.204   4.546 -0.3302  0.3716 -0.3232
 6760TIP3    H241696   2.154   2.238   4.402  1.5457 -0.0118  0.0185
 6761TIP3   OH241697   5.302   1.836  11.287 -0.5661  0.0155 -0.0260
 6761TIP3    H141698   5.343   1.864  11.205 -1.3150  2.4176  0.3870
 6761TIP3    H241699   5.211   1.817  11.262 -0.6079  0.0525  0.0989
 6762TIP3   OH241700   1.323   4.701  13.798  0.9079 -0.3707  0.4013
 6762TIP3    H141701   1.240   4.746  13.813  1.3230 -0.3041  2.5967
 6762TIP3    H241702   1.365   4.752  13.728 -0.0686  0.6998  0.5693
 6763TIP3   OH241703   3.489   2.355   4.726 -0.2193  0.0097 -0.3634
 6763TIP3    H141704   3.503   2.431   4.782 -1.8700 -0.5854  0.9318
 6763TIP3    H241705   3.574   2.311   4.724 -0.0665  0.1422  1.5628
 6764TIP3   OH241706   2.039   1.145   0.899 -0.4722  0.1181 -0.0022
 6764TIP3    H141707   2.080   1.221   0.857  2.8141 -0.2527  2.4022
 6764TIP3    H241708   1.989   1.183   0.971 -1.6742  0.2590 -0.8876
 6765TIP3   OH241709   4.645   5.651  14.515 -0.3990  0.4487 -0.1915
 6765TIP3    H141710   4.680   5.583  14.572  0.2961  1.2866  0.4032
 6765TIP3    H241711   4.639   5.610  14.429  0.8533 -0.0942 -0.0312
 6766TIP3   OH241712   1.062   1.409   1.609 -0.1850  0.0249 -0.2227
 6766TIP3    H141713   1.051   1.502   1.627 -1.1017  0.3240 -2.1762
 6766TIP3    H241714   1.156   1.394   1.619 -0.2295  0.8200  1.5582
 6767TIP3   OH241715   4.051   0.284  16.190 -0.7633 -0.0057 -0.4285
 6767TIP3    H141716   3.966   0.241  16.198  0.7327 -2.8855  0.5512
 6767TIP3    H241717   4.098   0.234  16.124  0.8529  0.3968  0.3876
 6768TIP3   OH241718   1.702   4.607  14.965  0.5942 -0.2211  0.3153
 6768TIP3    H141719   1.747   4.601  15.049  1.3506  0.3450 -0.0435
 6768TIP3    H241720   1.684   4.516  14.940  1.2252 -0.4288  0.6287
 6769TIP3   OH241721   1.062   1.754  16.414  0.1801 -0.1515  0.4691
 6769TIP3    H141722   1.154   1.731  16.424  0.2978  0.4192  0.7250
 6769TIP3    H241723   1.057   1.801  16.331 -0.0405 -0.9657  0.0063
 6770TIP3   OH241724   6.438   3.999  12.695 -0.0757 -0.3096 -0.4939
 6770TIP3    H141725   6.343   3.985  12.689  0.0962 -1.2598 -1.1308
 6770TIP3    H241726   6.447   4.093  12.708 -1.1335 -0.2787  0.1252
 6771TIP3   OH241727   4.881   5.978  12.914 -0.3670  0.0768 -0.4451
 6771TIP3    H141728   4.831   5.898  12.896  0.8786 -0.2753 -2.5753
 6771TIP3    H241729   4.815   6.047  12.915 -1.5338 -1.0268  2.0141
 6772TIP3   OH241730   1.504   5.277  14.348 -0.3207  0.1478  0.4729
 6772TIP3    H141731   1.415   5.303  14.326 -0.4002 -0.1808  0.4041
 6772TIP3    H241732   1.553   5.360  14.352 -0.3803  0.2379 -0.6022
 6773TIP3   OH241733   0.602   3.742  15.693 -0.4112  0.5321  0.0703
 6773TIP3    H141734   0.609   3.724  15.599  1.0239  2.5457 -0.2467
 6773TIP3    H241735   0.692   3.734  15.725 -0.5199  2.0945  0.8275
 6774TIP3   OH241736   3.580   0.084   3.059  0.7441 -0.7109 -0.0441
 6774TIP3    H141737   3.645   0.020   3.031  0.7347 -0.7836  0.0968
 6774TIP3    H241738   3.610   0.112   3.145  0.6796 -0.6200 -0.0523
 6775TIP3   OH241739   5.745   5.559  11.729 -0.1490 -0.6871 -0.2927
 6775TIP3    H141740   5.765   5.572  11.822 -0.0254 -2.8399  0.0125
 6775TIP3    H241741   5.752   5.646  11.690 -1.6064  0.5099  1.9765
 6776TIP3   OH241742   4.272   6.452  15.163  0.3315 -0.2506  0.3238
 6776TIP3    H141743   4.200   6.514  15.178 -1.3922 -1.8175 -1.3079
 6776TIP3    H241744   4.249   6.376  15.216 -0.0759 -1.3986 -1.4831
 6777TIP3   OH241745   3.460   4.130   1.009 -0.0591 -0.2067  0.0964
 6777TIP3    H141746   3.544   4.085   1.017  0.0474 -0.5785 -2.6014
 6777TIP3    H241747   3.405   4.070   0.958 -1.4078  0.7472  0.3975
 6778TIP3   OH241748   3.852   5.730  16.906 -0.0128 -0.1940 -0.3198
 6778TIP3    H141749   3.811   5.710  16.990 -0.2033  0.6540 -0.2023
 6778TIP3    H241750   3.808   5.810  16.877 -0.2534 -0.7317 -1.4339
 6779TIP3   OH241751   3.445   1.099   6.158 -0.2494  0.5280  0.4166
 6779TIP3    H141752   3.378   1.132   6.218 -0.0124  0.8750  0.4887
 6779TIP3    H241753   3.513   1.063   6.215 -1.2703 -1.6235  0.3355
 6780TIP3   OH241754   2.715   2.944  14.069 -0.1840 -0.3923 -0.3632
 6780TIP3    H141755   2.635   2.901  14.097  0.0675 -2.0290 -2.0588
 6780TIP3    H241756   2.768   2.874  14.030  1.7146  0.8113 -0.0119
 6781TIP3   OH241757   3.095   2.079   0.211  0.1769  0.2123 -0.3428
 6781TIP3    H141758   3.021   2.022   0.228  1.7312 -0.6152  4.2833
 6781TIP3    H241759   3.104   2.079   0.116 -2.1348 -4.2672 -0.6668
 6782TIP3   OH241760   2.204   4.815  12.743  0.4015 -0.5049 -0.4397
 6782TIP3    H141761   2.237   4.790  12.657 -0.8176 -1.7927 -0.5562
 6782TIP3    H241762   2.249   4.756  12.804 -0.3747 -1.1078 -0.4332
 6783TIP3   OH241763   5.089   4.075   5.512 -0.4776  0.0975 -0.0140
 6783TIP3    H141764   5.098   3.997   5.567 -0.4930  1.1823  1.5563
 6783TIP3    H241765   5.016   4.055   5.454 -1.3850 -0.5250  1.3171
 6784TIP3   OH241766   6.694   0.446   1.532  0.2090 -0.0713 -0.1072
 6784TIP3    H141767   6.647   0.441   1.616 -0.4381  1.2172 -0.3791
 6784TIP3    H241768   6.633   0.490   1.473  0.2581 -1.8684 -1.5566
 6785TIP3   OH241769   5.336   2.104   5.319  0.2802  0.4236  0.6369
 6785TIP3    H141770   5.294   2.019   5.329  0.2871 -0.3740 -4.5572
 6785TIP3    H241771   5.273   2.157   5.270  1.3564  2.5544  1.4732
 6786TIP3   OH241772   1.996   0.088  15.639 -0.9490 -0.5474  0.5185
 6786TIP3    H141773   1.931   0.120  15.577  0.0602 -0.0458 -0.2955
 6786TIP3    H241774   1.982   0.140  15.718 -1.8614 -0.7888  0.5193
 6787TIP3   OH241775   5.247   3.833  13.867  0.0191 -0.3684 -0.2359
 6787TIP3    H141776   5.246   3.756  13.924 -1.4978  0.0891  0.3930
 6787TIP3    H241777   5.338   3.841  13.838  0.8237 -0.6283  2.1129
 6788TIP3   OH241778   6.368   1.975   6.758  0.2765 -0.0089  0.0464
 6788TIP3    H141779   6.397   1.897   6.804  0.6066 -0.0002 -0.1424
 6788TIP3    H241780   6.425   1.980   6.681 -0.4251 -0.1622 -0.4909
 6789TIP3   OH241781   4.665   0.765  14.607 -0.0915  0.0048 -0.0865
 6789TIP3    H141782   4.644   0.672  14.608 -0.0361 -0.0283 -1.3156
 6789TIP3    H241783   4.696   0.784  14.695  0.4778 -1.2755 -0.0073
 6790TIP3   OH241784   5.926   0.424   5.977 -0.1090 -0.1317 -0.2528
 6790TIP3    H141785   5.976   0.344   5.960 -0.8729 -0.6485 -0.0978
 6790TIP3    H241786   5.972   0.492   5.928  1.0320 -0.5029  0.2912
 6791TIP3   OH241787   6.389   1.396  13.659 -0.2492  0.1380 -0.3096
 6791TIP3    H141788   6.450   1.456  13.702  0.2408 -0.4198 -0.2253
 6791TIP3    H241789   6.303   1.435  13.673 -0.1936 -0.5254  2.0044
 6792TIP3   OH241790   3.841   2.431  17.071 -0.2367 -0.3378  0.5052
 6792TIP3    H141791   3.786   2.372  17.020 -0.1126  0.3156 -0.3994
 6792TIP3    H241792   3.804   2.518  17.054 -0.1490 -0.1001  1.4734
 6793TIP3   OH241793   3.322   1.294  15.553  0.9059 -0.2252 -0.6095
 6793TIP3    H141794   3.290   1.299  15.463  0.3996 -0.6721 -0.4553
 6793TIP3    H241795   3.319   1.384  15.585  0.3595 -0.1763 -0.7929
 6794TIP3   OH241796   6.078   3.144  15.400 -0.4061  0.1002 -0.3588
 6794TIP3    H141797   6.034   3.078  15.346 -0.2026  0.3325 -0.8154
 6794TIP3    H241798   6.049   3.228  15.363 -1.4107  0.2831  0.8110
 6795TIP3   OH241799   1.881   2.920   4.507  0.5508 -0.3676 -0.4604
 6795TIP3    H141800   1.921   3.006   4.494  2.3493 -0.4725  3.5489
 6795TIP3    H241801   1.955   2.859   4.506 -0.1399 -1.2666  1.3268
 6796TIP3   OH241802   6.728   0.370   5.319 -0.4276  0.1121 -0.3242
 6796TIP3    H141803   6.682   0.288   5.301 -1.1846  0.5975 -0.6559
 6796TIP3    H241804   6.661   0.437   5.308  0.1511  0.7606  0.1036
 6797TIP3   OH241805   1.684   4.264  16.526 -0.1332 -0.0413 -0.5099
 6797TIP3    H141806   1.617   4.235  16.465 -0.2258  3.4631 -2.2292
 6797TIP3    H241807   1.735   4.185  16.545 -1.9751 -1.8377 -2.7020
 6798TIP3   OH241808   4.294   1.629  15.871 -0.7362 -0.4178  0.3424
 6798TIP3    H141809   4.285   1.692  15.943  0.8358 -1.8440  1.8407
 6798TIP3    H241810   4.208   1.629  15.829 -1.2060  1.6232  1.2406
 6799TIP3   OH241811   6.622   3.346  11.972 -0.7634  0.3113  0.3006
 6799TIP3    H141812   6.694   3.410  11.974 -0.4540 -0.0453  0.9824
 6799TIP3    H241813   6.552   3.390  11.924 -1.2588  1.9333  2.4374
 6800TIP3   OH241814   0.505   6.696   1.336 -0.0281 -0.5454  0.0916
 6800TIP3    H141815   0.585   6.680   1.285 -0.2682 -0.3232 -0.3597
 6800TIP3    H241816   0.475   6.609   1.360 -0.1601 -0.6757 -0.5368
 6801TIP3   OH241817   4.517   1.333  10.579 -0.2669  0.2472  0.6438
 6801TIP3    H141818   4.444   1.270  10.579  0.7660 -0.9995 -1.3005
 6801TIP3    H241819   4.594   1.280  10.561  0.8947  1.8318  0.8734
 6802TIP3   OH241820   2.711   6.412  10.933 -0.3394 -0.0218  0.0909
 6802TIP3    H141821   2.735   6.321  10.952 -0.0180  0.0852  0.2075
 6802TIP3    H241822   2.774   6.439  10.866 -0.7481 -0.0398 -0.2999
 6803TIP3   OH241823   5.620   1.923  16.799  0.3281 -0.1578  0.2479
 6803TIP3    H141824   5.554   1.988  16.823  1.2441  0.3202  1.5454
 6803TIP3    H241825   5.702   1.972  16.800  1.0098 -1.3027  1.0712
 6804TIP3   OH241826   5.129   4.492  13.415 -0.4645  0.1352 -0.0211
 6804TIP3    H141827   5.051   4.528  13.457 -1.5445 -1.9703 -0.1256
 6804TIP3    H241828   5.175   4.568  13.379 -0.6053  1.7627  3.1013
 6805TIP3   OH241829   3.166   2.461   6.092 -0.2468 -0.6905  0.0766
 6805TIP3    H141830   3.148   2.441   6.184 -2.1221 -1.4123 -0.4221
 6805TIP3    H241831   3.258   2.438   6.080  1.1840  3.2143  2.7656
 6806TIP3   OH241832   3.779   5.332   5.070  0.1637  0.0302 -0.1617
 6806TIP3    H141833   3.696   5.307   5.110 -1.2010  2.0728 -1.6514
 6806TIP3    H241834   3.803   5.256   5.017 -1.8649  0.2322 -1.4297
 6807TIP3   OH241835   0.623   5.017  15.086 -0.0679 -0.1951  0.0259
 6807TIP3    H141836   0.604   4.940  15.140  1.3086 -0.9104 -0.4863
 6807TIP3    H241837   0.543   5.070  15.091 -1.4495 -2.1795 -0.5071
 6808TIP3   OH241838   2.891   3.447  16.655  0.3929  0.8248  0.0788
 6808TIP3    H141839   2.913   3.423  16.565 -1.1856 -0.2256 -0.0507
 6808TIP3    H241840   2.967   3.495  16.687  2.1576 -1.2651 -0.8720
 6809TIP3   OH241841   1.537   2.171   4.303 -0.2505  0.0101 -0.5711
 6809TIP3    H141842   1.590   2.186   4.382  0.6210  1.1934 -1.3660
 6809TIP3    H241843   1.495   2.086   4.318  0.7812 -0.2910  0.6853
 6810TIP3   OH241844   2.734   6.198   6.573 -0.1351 -0.4742 -0.0308
 6810TIP3    H141845   2.777   6.236   6.497  2.3460  0.7624  1.9348
 6810TIP3    H241846   2.758   6.106   6.571 -1.0122 -0.6871 -1.3418
 6811TIP3   OH241847   5.775   4.707  13.938 -0.2008 -0.2250  0.1887
 6811TIP3    H141848   5.808   4.797  13.927  0.8143 -0.8794 -2.3613
 6811TIP3    H241849   5.816   4.677  14.019  1.1393  0.8780 -0.0610
 6812TIP3   OH241850   0.230   5.531   4.164  0.3582 -0.0915 -0.4257
 6812TIP3    H141851   0.315   5.552   4.126 -0.7927  2.0935 -1.9344
 6812TIP3    H241852   0.176   5.507   4.089 -0.9236  0.5930  0.2593
 6813TIP3   OH241853   6.137   4.905  14.743  0.7584 -0.1281  0.1800
 6813TIP3    H141854   6.206   4.877  14.683  0.9659 -0.8730  0.7560
 6813TIP3    H241855   6.175   4.980  14.789  0.9867 -0.2086  0.1235
 6814TIP3   OH241856   0.265   2.814   3.423  0.4905  0.0319  0.1779
 6814TIP3    H141857   0.215   2.783   3.347  2.1375  0.0617 -0.9505
 6814TIP3    H241858   0.201   2.817   3.494 -1.3170  0.8814 -1.4202
 6815TIP3   OH241859   2.398   1.915   1.811  0.6853 -0.1380  0.3522
 6815TIP3    H141860   2.400   1.824   1.841 -1.0135 -0.6575 -1.0219
 6815TIP3    H241861   2.438   1.912   1.724  1.5200  0.5988  0.7126
 6816TIP3   OH241862   4.272   3.276  13.554 -0.2307 -0.5261 -0.1358
 6816TIP3    H141863   4.280   3.299  13.462  0.5670 -1.1018 -0.2215
 6816TIP3    H241864   4.178   3.284  13.573 -0.3413 -0.0044 -0.8845
 6817TIP3   OH241865   6.536   1.750   3.632 -0.0078  0.1124  0.5581
 6817TIP3    H141866   6.572   1.667   3.662 -0.0422 -0.0158  0.2494
 6817TIP3    H241867   6.445   1.730   3.609 -0.3924  0.5176  1.6959
 6818TIP3   OH241868   1.905   2.906  13.980  0.2490  0.0193  0.0146
 6818TIP3    H141869   1.855   2.969  13.927  0.3739  1.1994  1.2795
 6818TIP3    H241870   1.894   2.937  14.070  1.7351 -0.7890  0.4760
 6819TIP3   OH241871   4.838   5.130   0.962  0.3380 -0.4436 -0.2865
 6819TIP3    H141872   4.814   5.163   0.876 -2.9025 -2.8065 -0.3759
 6819TIP3    H241873   4.811   5.038   0.961 -0.5624 -0.3159  3.5242
 6820TIP3   OH241874   2.257   5.629  16.794 -0.3817 -0.0430 -0.3614
 6820TIP3    H141875   2.229   5.717  16.769  1.4360  0.2343 -1.5405
 6820TIP3    H241876   2.182   5.574  16.773 -0.4794  0.8229 -2.4748
 6821TIP3   OH241877   2.645   5.581  12.807 -0.0806  0.3843 -0.1845
 6821TIP3    H141878   2.671   5.593  12.898  0.4076 -1.5500 -0.0582
 6821TIP3    H241879   2.555   5.613  12.803 -1.4069 -2.9002  1.8438
 6822TIP3   OH241880   6.453   0.885   0.290  0.3669 -0.3171 -0.0529
 6822TIP3    H141881   6.468   0.817   0.356  2.7764  0.2315  0.0222
 6822TIP3    H241882   6.530   0.881   0.233 -0.3419  1.1121 -1.1524
 6823TIP3   OH241883   2.066   5.322   0.882 -0.0647 -0.1437 -0.1374
 6823TIP3    H141884   2.100   5.242   0.841 -1.0427 -0.2136 -0.8034
 6823TIP3    H241885   2.009   5.361   0.817  1.6988  1.9984 -0.4323
 6824TIP3   OH241886   1.610   5.494   2.990 -0.4452  0.2127  0.0448
 6824TIP3    H141887   1.617   5.398   2.992 -1.5506  0.1223  0.0198
 6824TIP3    H241888   1.560   5.516   3.069 -1.4337  0.6475 -0.6899
 6825TIP3   OH241889   6.184   2.385  12.441  0.2905 -0.5496  0.3765
 6825TIP3    H141890   6.243   2.351  12.508  0.0686  0.2086  0.9641
 6825TIP3    H241891   6.145   2.307  12.401 -0.1149 -0.9952  1.6205
 6826TIP3   OH241892   1.459   0.216  11.700  0.3403 -0.7913  0.1389
 6826TIP3    H141893   1.511   0.215  11.780  0.1898  1.3210  0.2687
 6826TIP3    H241894   1.418   0.129  11.697 -0.6486 -0.4743  3.0059
 6827TIP3   OH241895   0.222   2.282  13.919  0.3457 -0.0704  0.3079
 6827TIP3    H141896   0.301   2.312  13.964 -0.3856  1.2484  0.7482
 6827TIP3    H241897   0.231   2.187  13.915  1.9278  0.0729  0.3896
 6828TIP3   OH241898   5.711   0.391   3.577 -0.3202 -0.5697 -0.5267
 6828TIP3    H141899   5.671   0.309   3.605 -1.1187 -0.1011 -0.2798
 6828TIP3    H241900   5.805   0.378   3.589 -0.6017 -0.6099  1.7823
 6829TIP3   OH241901   4.552   3.179   4.044 -0.2380 -0.0869 -0.3238
 6829TIP3    H141902   4.484   3.230   4.089  1.3030  1.2973  0.4672
 6829TIP3    H241903   4.543   3.202   3.952  0.9115  2.2050  0.1134
 6830TIP3   OH241904   3.992   1.022  13.474  0.3398  0.0768  0.1332
 6830TIP3    H141905   3.948   0.937  13.466 -0.0438  0.1655  1.2424
 6830TIP3    H241906   4.025   1.024  13.563  1.1705  0.7109 -0.1824
 6831TIP3   OH241907   6.039   2.166   5.599  0.6521  0.2833 -0.6210
 6831TIP3    H141908   6.082   2.240   5.557  1.7494  2.0089  3.3199
 6831TIP3    H241909   5.949   2.195   5.615  0.7548  0.3519 -0.1460
 6832TIP3   OH241910   1.477   6.449   3.935  0.2786  0.0685  0.0598
 6832TIP3    H141911   1.571   6.449   3.914  0.3850  1.8587  0.4495
 6832TIP3    H241912   1.434   6.465   3.851  0.2847 -1.0192 -0.1674
 6833TIP3   OH241913   1.605   0.858  12.267 -0.2546 -0.7546 -0.2751
 6833TIP3    H141914   1.554   0.902  12.335 -0.9586  0.3238 -1.4842
 6833TIP3    H241915   1.696   0.882  12.287 -0.3834 -1.1082  0.7562
 6834TIP3   OH241916   6.734   6.432   2.578  0.4670  0.4751 -0.0934
 6834TIP3    H141917   6.698   6.374   2.510  0.8835 -0.3791  0.4083
 6834TIP3    H241918   6.659   6.482   2.608  0.1539  0.4108 -0.7428
 6835TIP3   OH241919   4.093   2.954   1.538  0.5134  0.1228 -0.0514
 6835TIP3    H141920   4.002   2.938   1.560  0.3285  2.5776  1.1952
 6835TIP3    H241921   4.109   2.900   1.461 -1.6415 -1.2312  0.4070
 6836TIP3   OH241922   3.823   3.291  14.648  0.2934 -0.2567 -0.1011
 6836TIP3    H141923   3.835   3.354  14.719  0.3230 -1.0237  0.5909
 6836TIP3    H241924   3.731   3.298  14.625  0.7856  1.6646 -1.5983
 6837TIP3   OH241925   1.203   2.380   0.874  0.4226 -0.0415 -0.0525
 6837TIP3    H141926   1.227   2.460   0.921 -1.8569  1.5330 -1.4627
 6837TIP3    H241927   1.207   2.404   0.781  0.1364 -1.6885 -0.5162
 6838TIP3   OH241928   1.075   6.191  14.967  0.9506  0.4395 -0.1088
 6838TIP3    H141929   0.985   6.187  14.999  1.0247  0.3101  0.0844
 6838TIP3    H241930   1.098   6.100  14.949  1.7157  0.2561  1.7091
 6839TIP3   OH241931   1.062   3.989   5.219  0.3963  0.0304  0.3148
 6839TIP3    H141932   0.968   3.980   5.211  0.2901 -0.3317  1.7486
 6839TIP3    H241933   1.092   4.011   5.131 -1.2541  2.1383  0.2328
 6840TIP3   OH241934   6.371   6.276   0.349 -0.0162  0.0150  0.7259
 6840TIP3    H141935   6.407   6.365   0.350  1.5654 -0.5475 -1.3745
 6840TIP3    H241936   6.296   6.281   0.289  0.7454 -0.2815 -0.2694
 6841TIP3   OH241937   1.217   0.956  11.725  0.6200  0.0280  0.6837
 6841TIP3    H141938   1.198   0.875  11.677 -1.7343  0.7066  0.3683
 6841TIP3    H241939   1.225   1.023  11.657  0.4899  0.4250  1.0549
 6842TIP3   OH241940   5.788   1.875  15.714  0.1511  0.4445 -0.7395
 6842TIP3    H141941   5.848   1.940  15.751  0.0776 -0.3691  0.8424
 6842TIP3    H241942   5.701   1.912  15.729  0.2033  1.0112 -1.8416
 6843TIP3   OH241943   4.408   0.802   5.809 -0.2674 -0.7242  0.1061
 6843TIP3    H141944   4.400   0.715   5.848 -1.6413 -0.1636  1.1138
 6843TIP3    H241945   4.323   0.817   5.767 -0.8152  0.9679  1.7537
 6844TIP3   OH241946   4.694   1.722   3.098  0.5223 -0.6391  0.0455
 6844TIP3    H141947   4.684   1.643   3.152  3.6155 -1.0543  0.0627
 6844TIP3    H241948   4.615   1.773   3.117 -0.0150 -2.2719  2.4815
 6845TIP3   OH241949   5.190   6.448   2.243  0.2603 -0.3467 -0.4048
 6845TIP3    H141950   5.268   6.469   2.192  0.8087 -2.6444 -0.5656
 6845TIP3    H241951   5.159   6.365   2.207 -0.6975 -0.8141  1.4256
 6846TIP3   OH241952   5.767   4.374   4.193 -0.5439 -0.5002 -0.0455
 6846TIP3    H141953   5.693   4.339   4.244  1.8708 -3.3020  1.7468
 6846TIP3    H241954   5.794   4.301   4.138  0.2075  0.8477 -1.4943
 6847TIP3   OH241955   6.404   0.450  10.966  0.0718 -0.6264  0.3265
 6847TIP3    H141956   6.395   0.369  10.917  0.4205 -0.4574 -0.0187
 6847TIP3    H241957   6.349   0.513  10.919  1.3106 -0.1670 -0.5095
 6848TIP3   OH241958   6.335   3.455   4.574 -0.0848 -0.6307  0.3020
 6848TIP3    H141959   6.330   3.550   4.577 -1.4390 -0.5838 -2.1521
 6848TIP3    H241960   6.251   3.425   4.608 -0.7247 -0.8537 -1.4060
 6849TIP3   OH241961   4.969   4.022   1.911  0.4958 -0.0557 -0.4121
 6849TIP3    H141962   5.053   4.026   1.867  0.1897 -0.0606 -0.9985
 6849TIP3    H241963   4.904   4.015   1.840 -0.0789  1.1504 -0.0193
 6850TIP3   OH241964   1.824   5.378   4.607 -0.1495 -0.0686 -0.3851
 6850TIP3    H141965   1.740   5.334   4.608 -0.3764  0.3634 -0.4080
 6850TIP3    H241966   1.804   5.468   4.581  0.1792  0.3220  0.6928
 6851TIP3   OH241967   3.422   5.799   1.753 -0.0161  0.7513 -0.4150
 6851TIP3    H141968   3.356   5.768   1.815  1.1474 -0.4420  0.2674
 6851TIP3    H241969   3.401   5.891   1.739 -0.4417  0.9753  1.5638
 6852TIP3   OH241970   4.923   0.253   4.775  0.1987 -0.4289  0.5314
 6852TIP3    H141971   4.829   0.250   4.795  0.2021 -0.3547  0.5577
 6852TIP3    H241972   4.932   0.198   4.698 -0.0718  0.6669 -0.2873
 6853TIP3   OH241973   2.732   5.073   1.934 -0.2491 -0.3184  0.2618
 6853TIP3    H141974   2.751   5.095   2.025  1.6519 -1.3462  0.1429
 6853TIP3    H241975   2.741   4.978   1.929 -3.9990 -0.7230 -0.2076
 6854TIP3   OH241976   0.596   0.117   5.417  0.0755 -0.5451 -0.2044
 6854TIP3    H141977   0.551   0.083   5.340 -2.3581 -0.2966  1.0767
 6854TIP3    H241978   0.539   0.186   5.451  1.9042  0.4908  0.9034
 6855TIP3   OH241979   5.203   1.091  13.860 -0.2745  0.4212  0.6032
 6855TIP3    H141980   5.178   1.172  13.815 -0.6667  1.0185  1.8888
 6855TIP3    H241981   5.298   1.097  13.870 -0.2993  0.6977  0.6659
 6856TIP3   OH241982   0.209   2.392  15.394  0.2365  0.3883  0.5319
 6856TIP3    H141983   0.205   2.482  15.426 -2.4205 -0.3318  2.3772
 6856TIP3    H241984   0.208   2.400  15.299 -0.7070  2.2879  0.6773
 6857TIP3   OH241985   1.500   5.699   0.388 -0.0151  0.0775  0.2095
 6857TIP3    H141986   1.517   5.792   0.401 -0.8283  0.1691  0.6582
 6857TIP3    H241987   1.442   5.695   0.312 -0.4420 -0.0163  0.5360
 6858TIP3   OH241988   3.006   5.264  16.869  0.0222 -0.2796  0.3092
 6858TIP3    H141989   3.100   5.254  16.880 -0.0267 -1.7813 -0.5560
 6858TIP3    H241990   2.992   5.359  16.868  1.8138 -0.0135 -2.0267
 6859TIP3   OH241991   1.716   0.093   1.292  0.2243 -0.2024 -0.4598
 6859TIP3    H141992   1.804   0.118   1.264  0.1638 -0.8909 -1.2852
 6859TIP3    H241993   1.690   0.162   1.353  1.9166 -0.7592  0.9403
 6860TIP3   OH241994   3.916   1.991  16.909  0.1640 -0.0200  0.0495
 6860TIP3    H141995   3.981   1.940  16.959 -0.9121 -0.8025  0.6586
 6860TIP3    H241996   3.942   1.978  16.818  0.0248 -1.5318  0.2031
 6861TIP3   OH241997   1.665   1.935  15.851  0.0195 -0.2392 -0.3066
 6861TIP3    H141998   1.706   1.869  15.908  0.8195 -0.4425 -1.1043
 6861TIP3    H241999   1.579   1.949  15.889  0.6517 -0.1428  1.1555
 6862TIP3   OH242000   5.638   0.223  10.786  0.6604  0.3007  0.0622
 6862TIP3    H142001   5.610   0.163  10.717  2.6379 -0.0557 -0.4731
 6862TIP3    H242002   5.596   0.190  10.865 -0.8287  0.1125 -0.7793
 6863TIP3   OH242003   5.664   1.200   4.426  0.6580  0.4467 -0.2212
 6863TIP3    H142004   5.678   1.204   4.331  1.8713 -1.2194 -0.1246
 6863TIP3    H242005   5.612   1.278   4.445 -0.5640  0.2277 -2.4185
 6864TIP3   OH242006   3.574   3.377   2.081  0.0305  0.1265 -0.6891
 6864TIP3    H142007   3.635   3.392   2.009 -1.5540  2.2906 -1.6515
 6864TIP3    H242008   3.490   3.410   2.049 -1.2824 -1.2067  1.2277
 6865TIP3   OH242009   3.202   4.397  12.102 -0.1821 -0.6978  0.8860
 6865TIP3    H142010   3.160   4.448  12.034  0.1609 -2.4893 -0.7197
 6865TIP3    H242011   3.137   4.330  12.125  0.5840 -1.5513  0.6073
 6866TIP3   OH242012   0.520   4.964  12.473  0.5261  0.5617  0.3422
 6866TIP3    H142013   0.600   4.980  12.422  0.7063 -1.3924 -0.0402
 6866TIP3    H242014   0.460   5.033  12.446  1.1686  0.4725 -1.3893
 6867TIP3   OH242015   2.904   4.164  14.319  0.3272  0.3939  0.2987
 6867TIP3    H142016   2.994   4.146  14.293  0.4190  0.5733  0.4886
 6867TIP3    H242017   2.856   4.174  14.237  0.5784  0.7879  0.2023
 6868TIP3   OH242018   2.802   5.000  16.943  0.5744 -0.2416  0.5324
 6868TIP3    H142019   2.884   4.973  16.983  0.2917 -0.8644  0.6872
 6868TIP3    H242020   2.828   5.044  16.862  1.0702 -0.2141  0.7066
 6869TIP3   OH242021   4.100   6.362   4.612  0.2544  0.3749  0.1485
 6869TIP3    H142022   4.135   6.379   4.700 -0.0353  1.9719 -0.0320
 6869TIP3    H242023   4.072   6.270   4.615  0.3169  0.3872  1.7008
 6870TIP3   OH242024   2.975   4.587   0.301  0.3635  0.0891 -0.0314
 6870TIP3    H142025   3.005   4.631   0.221  1.5747 -0.4607  0.1106
 6870TIP3    H242026   2.953   4.499   0.273 -0.6664  0.3414 -0.0369
 6871TIP3   OH242027   3.636   3.119   2.671  0.4510 -0.6524  0.0076
 6871TIP3    H142028   3.646   3.133   2.765 -0.3397  1.0274 -0.1405
 6871TIP3    H242029   3.722   3.139   2.634  0.8414 -1.5924  0.3967
 6872TIP3   OH242030   1.409   5.721   2.678  0.0486  0.2324  0.3328
 6872TIP3    H142031   1.487   5.677   2.643 -0.5400 -0.1616 -0.4854
 6872TIP3    H242032   1.440   5.808   2.703  0.4814  0.5271 -1.1875
 6873TIP3   OH242033   0.953   0.410  15.296 -0.3910 -0.5410  0.5359
 6873TIP3    H142034   1.029   0.462  15.321 -3.4015  3.7762  1.2414
 6873TIP3    H242035   0.909   0.391  15.378 -3.6465  2.9717 -0.2633
 6874TIP3   OH242036   6.430   6.511   5.448  0.4064  0.3173  0.2874
 6874TIP3    H142037   6.520   6.488   5.471 -0.4747 -2.5317  1.1604
 6874TIP3    H242038   6.427   6.500   5.353  1.0770  0.8534  0.1968
 6875TIP3   OH242039   3.388   4.270   4.107 -0.3526  0.5412 -0.5399
 6875TIP3    H142040   3.385   4.199   4.171 -2.8084 -0.1330 -1.3780
 6875TIP3    H242041   3.435   4.341   4.152  2.1340 -1.5624  0.2967
 6876TIP3   OH242042   4.057   4.568  11.746 -0.2464  0.5978 -0.4444
 6876TIP3    H142043   4.017   4.655  11.752 -1.0935  0.2359 -0.7645
 6876TIP3    H242044   3.982   4.508  11.739  0.2603 -0.3119  1.5501
 6877TIP3   OH242045   0.596   2.999  13.359  0.1669 -0.1713 -0.1684
 6877TIP3    H142046   0.530   3.067  13.346 -1.1954 -1.0790  1.6856
 6877TIP3    H242047   0.677   3.046  13.379 -0.6982  0.9145  0.8335
 6878TIP3   OH242048   5.294   4.974  11.547 -0.3167 -0.0635 -0.7427
 6878TIP3    H142049   5.281   5.054  11.598  0.1046 -1.0716  0.9749
 6878TIP3    H242050   5.334   4.912  11.608  2.3713 -0.5705 -2.9302
 6879TIP3   OH242051   4.198   4.555  16.854  0.1608 -0.1206 -0.4530
 6879TIP3    H142052   4.125   4.614  16.834 -0.0265  0.6292  2.2688
 6879TIP3    H242053   4.276   4.608  16.844  0.2725 -0.5655 -2.0696
 6880TIP3   OH242054   1.562   3.565  14.150  0.0147 -0.1417 -0.1483
 6880TIP3    H142055   1.509   3.630  14.196 -0.9274  1.2869 -3.1117
 6880TIP3    H242056   1.541   3.578  14.057  2.4032 -2.3920 -1.0766
 6881TIP3   OH242057   0.387   0.506  11.204 -0.2990 -0.2120 -0.4276
 6881TIP3    H142058   0.446   0.547  11.142 -0.4174  2.6554  1.2873
 6881TIP3    H242059   0.322   0.573  11.224 -1.0253 -1.5090  1.7862
 6882TIP3   OH242060   0.765   3.721  10.395  0.1770  0.1216  0.1285
 6882TIP3    H142061   0.686   3.774  10.413  0.9392  1.0777  0.7571
 6882TIP3    H242062   0.769   3.659  10.468 -0.3138 -0.3219 -0.2169
 6883TIP3   OH242063   5.237   3.262   5.249 -0.0009  0.2231 -0.0032
 6883TIP3    H142064   5.312   3.211   5.217  1.1280  0.2833  2.4231
 6883TIP3    H242065   5.188   3.285   5.170  2.4220  0.0139 -1.6167
 6884TIP3   OH242066   4.626   0.193   5.411 -0.1438  0.0923  0.1022
 6884TIP3    H142067   4.533   0.174   5.402  0.2985 -2.3178  0.0776
 6884TIP3    H242068   4.666   0.108   5.431  1.9083  1.2856  1.2767
 6885TIP3   OH242069   1.508   5.420   5.684 -0.1394 -0.0943 -0.2544
 6885TIP3    H142070   1.538   5.408   5.594 -0.2705  2.8377 -0.7196
 6885TIP3    H242071   1.423   5.376   5.686 -0.1964 -0.0886 -1.6164
 6886TIP3   OH242072   4.543   1.611   0.295  0.4496 -0.1587 -0.0242
 6886TIP3    H142073   4.609   1.600   0.363 -0.7053 -1.0633  0.9763
 6886TIP3    H242074   4.461   1.584   0.337 -1.0477  3.6392 -0.3286
 6887TIP3   OH242075   4.112   3.355  15.360 -0.2910  0.1571 -0.4492
 6887TIP3    H142076   4.206   3.368  15.370 -0.4534  0.5592  0.6425
 6887TIP3    H242077   4.105   3.273  15.310  0.6339  0.6170 -1.3623
 6888TIP3   OH242078   3.373   1.940  11.238 -0.1080 -0.1596  0.2616
 6888TIP3    H142079   3.316   1.872  11.274 -0.5485  1.0772  1.9849
 6888TIP3    H242080   3.337   2.022  11.273  0.1105  1.0104 -2.1621
 6889TIP3   OH242081   3.683   6.387   5.551 -0.0031  0.1745 -0.3154
 6889TIP3    H142082   3.740   6.315   5.579 -1.0750 -0.8948 -0.8302
 6889TIP3    H242083   3.661   6.433   5.633  1.0069  0.1603 -0.0315
 6890TIP3   OH242084   2.143   1.652   0.153  0.6779 -0.4556 -0.5173
 6890TIP3    H142085   2.194   1.706   0.214  0.4819 -0.7518 -0.0897
 6890TIP3    H242086   2.205   1.587   0.120  0.9125  0.0211 -1.0259
 6891TIP3   OH242087   5.360   0.593   5.960 -0.6316  0.5206 -0.2748
 6891TIP3    H142088   5.292   0.526   5.952 -0.3259  0.2788 -0.8284
 6891TIP3    H242089   5.439   0.544   5.982 -0.3429  0.6729 -0.9764
 6892TIP3   OH242090   5.857   1.446  11.348 -0.7252  0.2846  0.7427
 6892TIP3    H142091   5.912   1.506  11.297  1.5146  0.0340  2.7797
 6892TIP3    H242092   5.831   1.497  11.424  0.1538 -0.9081  1.8633
 6893TIP3   OH242093   6.458   5.769   3.202  0.3134 -1.1872  0.1026
 6893TIP3    H142094   6.507   5.850   3.214  1.8428 -1.8268 -1.6081
 6893TIP3    H242095   6.383   5.795   3.147  1.6040 -1.1961 -1.6926
 6894TIP3   OH242096   5.895   4.127   0.144 -0.3180 -0.4115 -0.4456
 6894TIP3    H142097   5.863   4.043   0.110 -0.7192 -0.8839  1.0881
 6894TIP3    H242098   5.979   4.105   0.185 -0.3540 -0.0382 -0.1731
 6895TIP3   OH242099   6.725   6.365   4.821 -0.1516  0.2133 -0.2145
 6895TIP3    H142100   6.814   6.385   4.850 -0.3350  0.8148 -0.0521
 6895TIP3    H242101   6.726   6.382   4.727  0.0047 -0.1444 -0.2767
 6896TIP3   OH242102   3.327   5.870  16.832 -0.1476 -0.2331 -0.3769
 6896TIP3    H142103   3.394   5.867  16.900  0.6243  0.4469 -1.1092
 6896TIP3    H242104   3.334   5.958  16.795 -0.7112 -0.5294 -1.1898
 6897TIP3   OH242105   4.919   1.005   0.052  0.3169  0.5155 -0.1664
 6897TIP3    H142106   4.832   1.018   0.015  0.6467 -1.4592 -1.7531
 6897TIP3    H242107   4.906   0.945   0.125  0.3893 -0.0942 -0.6514
 6898TIP3   OH242108   6.377   6.683   3.571 -0.2595 -0.2819  0.3219
 6898TIP3    H142109   6.462   6.716   3.543 -0.2701  1.1201  1.8489
 6898TIP3    H242110   6.385   6.587   3.566  0.3655 -0.1099 -2.4621
 6899TIP3   OH242111   0.080   1.004  16.888 -0.0240 -0.6441 -0.2427
 6899TIP3    H142112   0.092   0.974  16.798 -3.9446 -0.3866 -0.9626
 6899TIP3    H242113  -0.010   0.979  16.910  0.5848  0.0050  3.3529
 6900TIP3   OH242114   6.331   4.017   5.788 -0.6405 -0.0746  0.6691
 6900TIP3    H142115   6.257   3.998   5.731  0.9813 -0.9077 -1.1938
 6900TIP3    H242116   6.359   3.931   5.820  1.1218 -0.0332 -0.6948
 6901TIP3   OH242117   2.752   3.825  12.427 -0.1184 -0.0524  0.2697
 6901TIP3    H142118   2.701   3.811  12.507 -0.4843 -0.8434 -0.0855
 6901TIP3    H242119   2.767   3.919  12.423 -1.5989  0.1997  0.3678
 6902TIP3   OH242120   6.136   4.174   3.562  0.2897 -0.3237 -0.1416
 6902TIP3    H142121   6.169   4.191   3.650 -1.3625  0.0102  0.4286
 6902TIP3    H242122   6.162   4.251   3.511 -3.0342  1.8174  1.2744
 6903TIP3   OH242123   4.836   3.583  16.594  0.6719 -0.4122 -0.1243
 6903TIP3    H142124   4.868   3.594  16.684 -1.2954  1.5490  0.4051
 6903TIP3    H242125   4.742   3.596  16.601  0.3046 -1.7401 -2.2696
 6904TIP3   OH242126   5.148   0.331   1.811 -0.3753  0.3343 -0.8332
 6904TIP3    H142127   5.207   0.345   1.736  0.8902 -0.8796 -0.0804
 6904TIP3    H242128   5.090   0.261   1.782 -0.8617  0.8903 -1.2247
 6905TIP3   OH242129   0.627   3.997   4.046  0.4629  0.3613 -0.1874
 6905TIP3    H142130   0.551   4.040   4.006  0.1507 -0.8126 -0.8922
 6905TIP3    H242131   0.629   4.030   4.136 -1.4879 -0.3418  0.1487
 6906TIP3   OH242132   4.169   2.198   1.926 -0.2075  0.4120  0.3250
 6906TIP3    H142133   4.191   2.105   1.933  0.2170  0.2837 -2.2310
 6906TIP3    H242134   4.074   2.199   1.912 -0.1301  0.3155 -0.2261
 6907TIP3   OH242135   3.544   2.711  11.523 -0.5212 -0.3063 -0.1468
 6907TIP3    H142136   3.533   2.710  11.618  0.7282  1.9759  0.0671
 6907TIP3    H242137   3.638   2.698  11.510 -0.5971  0.0117 -1.0330
 6908TIP3   OH242138   2.988   4.099  12.638 -0.2116 -0.0811  0.0433
 6908TIP3    H142139   2.982   4.035  12.709 -2.7163  1.1236  0.9597
 6908TIP3    H242140   2.978   4.184  12.681 -4.0584  0.5725 -1.9620
 6909TIP3   OH242141   5.447   0.768   2.155  0.6999 -0.3546  0.3587
 6909TIP3    H142142   5.361   0.809   2.149  1.8841  2.0993 -0.8209
 6909TIP3    H242143   5.472   0.778   2.246  0.3164  0.2228  0.4061
 6910TIP3   OH242144   5.407   4.866  16.060  0.1848  0.2854  0.3875
 6910TIP3    H142145   5.415   4.959  16.081  1.2893  0.6246 -1.4114
 6910TIP3    H242146   5.493   4.829  16.081 -0.1295 -0.2724  0.7290
 6911TIP3   OH242147   5.753   2.328   4.489  0.0286 -0.7395  0.0618
 6911TIP3    H142148   5.805   2.383   4.548 -0.3642 -1.1546  0.8077
 6911TIP3    H242149   5.664   2.359   4.501  0.3668  1.8262 -3.2460
 6912TIP3   OH242150   2.954   6.396  11.587  0.0822  0.1398 -0.1037
 6912TIP3    H142151   3.008   6.474  11.577  0.6014 -0.4143 -1.8368
 6912TIP3    H242152   2.979   6.361  11.673  0.4049  1.4392  0.3463
 6913TIP3   OH242153   4.715   5.606  13.952  0.5585  0.2788 -0.4747
 6913TIP3    H142154   4.751   5.540  13.893  1.4176  1.1709 -0.9708
 6913TIP3    H242155   4.633   5.632  13.912  0.6970  0.2194 -0.8016
 6914TIP3   OH242156   3.491   1.530  12.752  0.1798 -0.2989 -0.2936
 6914TIP3    H142157   3.451   1.483  12.825  2.0155 -1.2154  0.1359
 6914TIP3    H242158   3.428   1.520  12.680  0.4415 -3.2842 -0.1717
 6915TIP3   OH242159   1.632   1.492  11.926 -0.2608 -0.2804 -0.6293
 6915TIP3    H142160   1.719   1.532  11.926 -1.3057  2.0912  0.9979
 6915TIP3    H242161   1.617   1.467  12.018 -0.5734 -2.4008 -1.2167
 6916TIP3   OH242162   2.815   5.013  13.600  0.1229  0.2986  0.2382
 6916TIP3    H142163   2.909   5.024  13.616 -0.1446  1.8441  0.7981
 6916TIP3    H242164   2.798   4.921  13.622  1.3389  0.2232  0.9200
 6917TIP3   OH242165   3.923   0.178   3.149 -1.0400 -0.1212  0.1882
 6917TIP3    H142166   3.985   0.248   3.171 -1.5048  0.0234  1.0418
 6917TIP3    H242167   3.972   0.097   3.161 -1.0736 -0.0147  1.0550
 6918TIP3   OH242168   3.161   6.128   4.302  0.3900  0.2855 -0.1933
 6918TIP3    H142169   3.149   6.219   4.329  2.3505  0.4484  0.1927
 6918TIP3    H242170   3.232   6.095   4.357 -1.3737 -1.9990  0.8225
 6919TIP3   OH242171   4.190   1.945  11.480 -0.0832 -0.2251 -0.6201
 6919TIP3    H142172   4.143   2.011  11.532 -0.8919 -1.0581 -0.2644
 6919TIP3    H242173   4.265   1.922  11.534  0.1349  0.3104 -0.6888
 6920TIP3   OH242174   6.503   6.014  14.605  0.2783 -0.7543 -0.3667
 6920TIP3    H142175   6.538   5.925  14.602  1.7184 -0.2611  1.1443
 6920TIP3    H242176   6.579   6.071  14.593 -0.4243  0.2979  0.0433
 6921TIP3   OH242177   4.504   3.900   6.731 -0.6591 -0.5442 -0.1227
 6921TIP3    H142178   4.418   3.940   6.738 -0.0690  0.4290  2.1994
 6921TIP3    H242179   4.547   3.948   6.660 -1.4087  0.1611 -0.1095
 6922TIP3   OH242180   1.848   1.848   2.433  0.2182  0.5066  0.2590
 6922TIP3    H142181   1.770   1.859   2.379  0.8103  1.3962 -0.4303
 6922TIP3    H242182   1.888   1.935   2.435  1.4269 -0.0350  0.2329
 6923TIP3   OH242183   3.022   6.691  12.290 -1.1189 -0.3910  0.2438
 6923TIP3    H142184   2.964   6.760  12.259  0.1212  0.7167  0.3507
 6923TIP3    H242185   3.047   6.718  12.379  0.3902 -0.3161 -0.1963
 6924TIP3   OH242186   5.737   3.599  14.079 -0.3075  0.3853  0.1922
 6924TIP3    H142187   5.690   3.594  13.996  0.3275  0.6424 -0.1857
 6924TIP3    H242188   5.673   3.633  14.141 -0.7354  0.3565 -0.2325
 6925TIP3   OH242189   4.642   3.660  12.865 -0.5855  0.1705 -0.4117
 6925TIP3    H142190   4.676   3.702  12.786 -1.0068 -0.1184 -0.7447
 6925TIP3    H242191   4.568   3.608  12.835 -1.4419  0.9460  0.3456
 6926TIP3   OH242192   1.173   3.524   6.432 -0.2325  0.1419 -0.5737
 6926TIP3    H142193   1.136   3.567   6.509  1.2285  2.0660 -0.8989
 6926TIP3    H242194   1.208   3.596   6.379 -2.8666 -0.9569 -3.9669
 6927TIP3   OH242195   1.476   2.505  10.933 -0.2744  0.5399  0.3191
 6927TIP3    H142196   1.503   2.541  10.849 -0.1444  1.9618  0.9429
 6927TIP3    H242197   1.392   2.546  10.951  0.2963  1.2488  1.4693
 6928TIP3   OH242198   0.057   3.958  15.380 -0.6210 -0.0554 -0.0532
 6928TIP3    H142199   0.084   3.918  15.463 -2.0882 -3.2162 -1.0302
 6928TIP3    H242200  -0.037   3.972  15.390 -1.3745 -3.1246 -2.1432
 6929TIP3   OH242201   1.728   6.663  16.888  0.3775  0.6311 -0.1458
 6929TIP3    H142202   1.643   6.696  16.917  0.3387  2.2475 -1.9864
 6929TIP3    H242203   1.708   6.605  16.814  0.8071  0.2972 -0.0066
 6930TIP3   OH242204   5.592   4.323   5.348 -0.1527 -0.3045 -0.1090
 6930TIP3    H142205   5.656   4.299   5.415  0.3877 -2.0076 -1.1954
 6930TIP3    H242206   5.582   4.417   5.357 -0.5052 -0.5666  2.7250
 6931TIP3   OH242207   1.701   2.626   2.974  0.0429 -0.3988 -0.4857
 6931TIP3    H142208   1.618   2.669   2.956  0.4915  0.3819 -0.7133
 6931TIP3    H242209   1.736   2.671   3.051  0.2902 -0.6632 -0.4419
 6932TIP3   OH242210   0.026   5.930   3.455 -0.6875  0.6838 -0.5244
 6932TIP3    H142211   0.012   5.869   3.527  1.3822  0.3013 -0.3968
 6932TIP3    H242212   0.010   5.878   3.376 -1.8604  0.8031 -0.3754
 6933TIP3   OH242213   0.803   4.810   0.330 -0.0067  0.3841  0.1917
 6933TIP3    H142214   0.863   4.825   0.403 -0.9817  2.3396  0.6442
 6933TIP3    H242215   0.831   4.727   0.292 -0.1000 -1.1966  3.4064
 6934TIP3   OH242216   2.512   6.720   3.747 -0.4823 -0.1196 -0.1315
 6934TIP3    H142217   2.427   6.727   3.704 -1.0658 -1.0124  0.8763
 6934TIP3    H242218   2.506   6.640   3.800 -0.0957  1.4645  2.3516
 6935TIP3   OH242219   2.504   0.726   4.920  0.0716 -0.4097  0.6343
 6935TIP3    H142220   2.509   0.736   5.015 -0.9873  1.0245  0.5660
 6935TIP3    H242221   2.412   0.738   4.899  0.0279 -2.4511 -0.4127
 6936TIP3   OH242222   3.792   0.087   3.923 -0.4370 -0.2307 -0.2342
 6936TIP3    H142223   3.775   0.084   4.017  2.5496  0.9106  0.3790
 6936TIP3    H242224   3.760   0.174   3.896  1.1762  0.5286  0.2589
 6937TIP3   OH242225   1.012   6.499  13.573  0.1635  0.4254  0.1832
 6937TIP3    H142226   0.928   6.537  13.600 -0.6140  0.3147 -2.0060
 6937TIP3    H242227   1.070   6.574  13.561 -0.6488  0.7784 -1.6885
 6938TIP3   OH242228   4.266   1.359  15.903  0.5158  0.1621 -0.2222
 6938TIP3    H142229   4.280   1.342  15.810 -1.5814  0.2279 -0.5777
 6938TIP3    H242230   4.278   1.454  15.912  1.8135 -0.0025 -0.2178
 6939TIP3   OH242231   0.650   0.565   3.547  0.8364 -0.3411  0.0091
 6939TIP3    H142232   0.635   0.535   3.636 -0.0195  0.4274  0.1372
 6939TIP3    H242233   0.566   0.551   3.502  1.1736 -0.4571 -0.5997
 6940TIP3   OH242234   1.162   3.871   4.215  0.2194 -0.3923  0.1311
 6940TIP3    H142235   1.156   3.958   4.255  0.5986  0.8889 -2.5243
 6940TIP3    H242236   1.241   3.833   4.254  0.0944  0.4626  1.2679
 6941TIP3   OH242237   4.379   2.522  15.620 -0.2850 -0.1228 -0.1857
 6941TIP3    H142238   4.341   2.440  15.585  0.1879 -0.4612  0.0939
 6941TIP3    H242239   4.397   2.575  15.542 -0.0810 -0.5082 -0.4034
 6942TIP3   OH242240   3.435   0.753   3.511  0.4390  0.0880  0.1641
 6942TIP3    H142241   3.520   0.708   3.507  1.4639  2.1257 -1.7371
 6942TIP3    H242242   3.456   0.840   3.544 -1.1607  0.1144  1.1613
 6943TIP3   OH242243   5.066   5.295   5.405  0.0080  0.3614  0.7534
 6943TIP3    H142244   5.116   5.283   5.486  0.6026  0.2975  0.3739
 6943TIP3    H242245   5.005   5.220   5.404 -0.5187  0.7673  1.5130
 6944TIP3   OH242246   4.813   0.050   3.126  0.4464 -0.5428 -0.0573
 6944TIP3    H142247   4.727   0.024   3.158  0.4208 -0.4544 -0.0534
 6944TIP3    H242248   4.869  -0.025   3.145  0.3067 -0.7128 -0.3215
 6945TIP3   OH242249   0.088   6.340  13.929  0.5782  0.2320  0.4714
 6945TIP3    H142250   0.146   6.291  13.988  1.2188  1.6003  1.0135
 6945TIP3    H242251   0.129   6.427  13.923 -0.0564  0.4322 -1.1586
 6946TIP3   OH242252   4.645   6.722   5.490 -0.4168  0.0423 -0.2820
 6946TIP3    H142253   4.585   6.751   5.558 -1.4046  2.5692 -2.1822
 6946TIP3    H242254   4.603   6.644   5.453 -1.7658  0.8962 -0.5641
 6947TIP3   OH242255   0.031   5.060  16.542  0.2086 -0.2437  0.0001
 6947TIP3    H142256   0.041   5.146  16.502  0.0633 -1.2250 -2.1833
 6947TIP3    H242257  -0.022   5.010  16.480  0.7915 -2.1007  0.9538
 6948TIP3   OH242258   0.041   1.600  14.879 -0.3201  0.1556  0.1301
 6948TIP3    H142259   0.032   1.694  14.862  0.6397  0.3385  0.6313
 6948TIP3    H242260   0.131   1.589  14.908 -0.1068 -1.0930 -0.9749
 6949TIP3   OH242261   2.286   4.277  16.411 -0.0356 -0.5534 -0.5660
 6949TIP3    H142262   2.330   4.220  16.474  1.1015  0.1303 -0.7250
 6949TIP3    H242263   2.329   4.362  16.422 -0.3472 -0.2335 -1.7372
 6950TIP3   OH242264   6.226   4.932  10.275 -0.0119  0.3506 -0.5908
 6950TIP3    H142265   6.195   5.022  10.282  0.5690  0.3781  2.4888
 6950TIP3    H242266   6.155   4.879  10.311  1.0382 -0.0893  0.9015
 6951TIP3   OH242267   4.151   0.738   4.142 -0.0546 -0.0242 -0.0498
 6951TIP3    H142268   4.096   0.794   4.087 -1.6020 -0.7725  0.7085
 6951TIP3    H242269   4.200   0.684   4.079 -1.9015 -0.9616 -0.7051
 6952TIP3   OH242270   3.704   2.492  15.811  0.3608  0.3223  0.5482
 6952TIP3    H142271   3.742   2.429  15.873  1.7811  1.2704  0.6691
 6952TIP3    H242272   3.612   2.500  15.839  0.4112 -0.9314  1.1346
 6953TIP3   OH242273   0.019   3.802  10.437 -0.0085  0.1630  0.8158
 6953TIP3    H142274   0.099   3.829  10.391  1.3343 -1.0634  2.3714
 6953TIP3    H242275  -0.039   3.878  10.430  1.9567  1.7229  1.1443
 6954TIP3   OH242276   5.655   5.172  13.201 -0.3391 -0.4912  0.3881
 6954TIP3    H142277   5.638   5.167  13.106  0.7238 -1.1419  0.2190
 6954TIP3    H242278   5.746   5.203  13.207 -0.3849 -0.5151  1.1900
 6955TIP3   OH242279   0.031   1.955  15.155  0.1071  0.2836 -0.2489
 6955TIP3    H142280   0.059   2.030  15.207 -0.2821  0.0907  0.2436
 6955TIP3    H242281  -0.057   1.979  15.124 -0.7047 -0.6352  1.2674
 6956TIP3   OH242282   3.544   4.631   2.088 -0.0743 -0.0528 -0.3289
 6956TIP3    H142283   3.632   4.664   2.106 -0.4191  2.1584 -2.5207
 6956TIP3    H242284   3.550   4.593   2.000 -0.9959 -1.1320  0.0535
 6957TIP3   OH242285   5.779   5.016   2.405  0.5931 -0.4349 -0.0322
 6957TIP3    H142286   5.743   5.044   2.489 -1.0048 -1.8080 -0.2341
 6957TIP3    H242287   5.712   4.958   2.368  2.6325 -2.3658 -0.8233
 6958TIP3   OH242288   0.731   2.180   5.811 -0.4697  0.0869 -0.2065
 6958TIP3    H142289   0.691   2.230   5.739 -1.4217  0.7318  0.7658
 6958TIP3    H242290   0.779   2.245   5.862 -0.8082 -0.1708  0.4406
 6959TIP3   OH242291   2.977   3.910  12.827 -0.4429  0.7543 -0.1060
 6959TIP3    H142292   2.937   3.823  12.818 -0.2607  0.5861  0.6833
 6959TIP3    H242293   3.066   3.893  12.857 -0.1331  1.1847 -0.7605
 6960TIP3   OH242294   1.440   1.152  13.814  0.5145  0.1509 -0.4638
 6960TIP3    H142295   1.421   1.229  13.868 -0.0493 -0.6915  0.5515
 6960TIP3    H242296   1.468   1.085  13.876 -0.7846 -1.0425 -1.1242
 6961TIP3   OH242297   1.131   1.547   4.653  0.3487 -0.2791  0.4915
 6961TIP3    H142298   1.052   1.596   4.679  2.5155  2.9888  1.2358
 6961TIP3    H242299   1.182   1.540   4.734  1.2196 -1.5906 -0.1684
 6962TIP3   OH242300   5.707   5.093  16.366  0.2177 -0.3212  0.0290
 6962TIP3    H142301   5.647   5.139  16.426 -0.0108 -0.3636 -0.1672
 6962TIP3    H242302   5.758   5.036  16.424  0.5255  0.2055  0.2743
 6963TIP3   OH242303   0.482   1.648  16.922 -0.5592 -0.4436 -0.6849
 6963TIP3    H142304   0.429   1.569  16.906  1.0261 -1.7428  0.3622
 6963TIP3    H242305   0.436   1.693  16.993 -0.3667 -1.4755  0.1025
 6964TIP3   OH242306   5.032   1.921   3.707  0.1193 -0.3183 -0.2193
 6964TIP3    H142307   4.963   1.891   3.648 -1.8732  3.1086  0.2928
 6964TIP3    H242308   5.089   1.975   3.653  0.3304 -0.1418  0.1750
 6965TIP3   OH242309   3.355   1.232  12.014  0.1692  0.0428 -0.2151
 6965TIP3    H142310   3.353   1.209  11.921  1.8770  0.9383 -0.4745
 6965TIP3    H242311   3.375   1.326  12.015 -0.5052  0.1769  1.0415
 6966TIP3   OH242312   2.301   0.954   0.809 -0.5112 -0.3158  0.0524
 6966TIP3    H142313   2.298   0.891   0.880  2.2594  0.0324  0.5459
 6966TIP3    H242314   2.387   0.996   0.818 -1.3216  1.8221 -1.7037
 6967TIP3   OH242315   0.947   0.151  13.467  0.3295 -0.4336  0.5674
 6967TIP3    H142316   0.891   0.139  13.544 -0.4698  0.5984  0.1636
 6967TIP3    H242317   0.924   0.237  13.434 -0.3488 -1.4115 -1.6390
 6968TIP3   OH242318   2.964   2.616  14.486  0.5519 -0.4082  0.2405
 6968TIP3    H142319   2.908   2.587  14.414 -0.3918 -0.7377  1.0971
 6968TIP3    H242320   3.005   2.696  14.454 -0.4579 -0.1267 -0.3686
 6969TIP3   OH242321   3.013   2.622   4.339  0.2173  0.5580 -0.0619
 6969TIP3    H142322   3.021   2.621   4.434  1.6456  1.5776 -0.1448
 6969TIP3    H242323   2.945   2.558   4.319  0.6344 -0.4171  1.5778
 6970TIP3   OH242324   3.372   2.122  11.671 -0.0113 -0.1069  0.4673
 6970TIP3    H142325   3.289   2.168  11.659  1.0941  2.3676  1.9937
 6970TIP3    H242326   3.362   2.075  11.754  0.2756  0.5524  0.8755
 6971TIP3   OH242327   6.489   5.236   4.112  0.2896 -0.0714 -0.6064
 6971TIP3    H142328   6.421   5.298   4.085  1.0737  0.6083 -1.0420
 6971TIP3    H242329   6.535   5.213   4.031  1.0080  0.0019 -0.2282
 6972TIP3   OH242330   3.923   3.369   2.763  0.4731  0.1931 -0.1239
 6972TIP3    H142331   3.892   3.382   2.674 -0.1435  2.2425  0.3487
 6972TIP3    H242332   4.019   3.368   2.756  0.3977 -1.7607 -1.0505
 6973TIP3   OH242333   4.546   4.219  13.237  0.7176 -0.3561  0.7181
 6973TIP3    H142334   4.520   4.128  13.251  1.9683 -0.6846  1.0089
 6973TIP3    H242335   4.617   4.214  13.172 -0.2686  0.5474 -0.4549
 6974TIP3   OH242336   1.397   2.677   4.309 -0.2940  0.2291 -0.7710
 6974TIP3    H142337   1.406   2.771   4.293 -2.8098  0.5148 -0.8241
 6974TIP3    H242338   1.477   2.652   4.355  0.7054  2.2555 -1.3719
 6975TIP3   OH242339   2.731   0.676   0.576 -0.0121 -0.8676 -0.0845
 6975TIP3    H142340   2.792   0.703   0.507 -0.4489 -0.3079 -0.2589
 6975TIP3    H242341   2.770   0.597   0.613 -0.0336 -1.4940 -1.3377
 6976TIP3   OH242342   6.786   6.340   5.198 -0.0559  0.6050  0.4021
 6976TIP3    H142343   6.879   6.354   5.185 -0.1232  1.7303  1.0775
 6976TIP3    H242344   6.772   6.358   5.291 -0.3973 -2.6300  1.0425
 6977TIP3   OH242345   4.422   0.952  12.805 -0.2322 -0.1554 -0.1325
 6977TIP3    H142346   4.341   0.907  12.830  0.8209 -1.3172  1.2564
 6977TIP3    H242347   4.478   0.883  12.770  0.1023  0.6713 -1.2419
 6978TIP3   OH242348   3.003   0.803  16.499  1.0198  0.1878  0.0269
 6978TIP3    H142349   2.978   0.775  16.587  0.0336 -0.8523 -0.5771
 6978TIP3    H242350   2.929   0.777  16.443  1.3973  1.3165 -1.0217
 6979TIP3   OH242351   3.767   3.633   3.942 -0.2503 -0.0811 -0.1806
 6979TIP3    H142352   3.780   3.626   3.848  0.5206  1.6219 -0.2070
 6979TIP3    H242353   3.683   3.678   3.951  0.5354  1.3910 -0.0771
 6980TIP3   OH242354   4.974   3.007  12.261  0.2680  0.3677  0.6730
 6980TIP3    H142355   4.969   3.098  12.289 -0.9412  0.6763 -0.4844
 6980TIP3    H242356   4.956   3.009  12.167  2.1005 -0.8655  0.2588
 6981TIP3   OH242357   4.453   0.664   3.640  0.5841  0.1342  0.2977
 6981TIP3    H142358   4.416   0.750   3.617  0.1483 -0.2905 -0.6097
 6981TIP3    H242359   4.548   0.679   3.642  0.4599  0.8368  0.9745
 6982TIP3   OH242360   1.211   0.272   4.447  0.5078  0.4143 -0.0856
 6982TIP3    H142361   1.276   0.325   4.493  0.8266  0.0636 -0.1270
 6982TIP3    H242362   1.130   0.323   4.452  0.1744 -0.2303  2.1265
 6983TIP3   OH242363   6.139   0.651   6.147  0.3829 -0.0127 -0.2911
 6983TIP3    H142364   6.155   0.721   6.084 -0.5217  0.9696  0.5559
 6983TIP3    H242365   6.070   0.685   6.204 -0.2080 -1.6690  0.0168
 6984TIP3   OH242366   0.361   3.425  14.555 -0.5499 -0.2449  0.2717
 6984TIP3    H142367   0.331   3.382  14.635  0.5408 -0.9810  0.3042
 6984TIP3    H242368   0.454   3.400  14.548 -0.7136 -0.4509 -1.3709
 6985TIP3   OH242369   3.247   6.179   1.735 -0.0415 -0.0982  0.1626
 6985TIP3    H142370   3.323   6.121   1.726 -0.9118 -1.1698 -0.5632
 6985TIP3    H242371   3.256   6.242   1.663  1.0396  0.8255  1.1055
 6986TIP3   OH242372   5.610   3.707  16.379  0.5961 -0.2229  0.1134
 6986TIP3    H142373   5.637   3.770  16.311 -0.5324  0.7664  0.5628
 6986TIP3    H242374   5.679   3.642  16.379  1.2451  0.4303 -1.1388
 6987TIP3   OH242375   1.272   6.372   2.247 -0.4415 -0.4701  0.2802
 6987TIP3    H142376   1.288   6.328   2.330  2.1908  0.0165  0.0685
 6987TIP3    H242377   1.306   6.460   2.259 -2.7736  0.5629 -0.3614
 6988TIP3   OH242378   4.154   2.960  11.740  0.6058 -0.4808 -0.6174
 6988TIP3    H142379   4.140   2.954  11.835 -1.8191 -1.9756 -1.0247
 6988TIP3    H242380   4.102   3.035  11.713 -0.9830 -1.7394 -1.1328
 6989TIP3   OH242381   3.828   0.240  10.881  0.0834 -0.0761 -0.4785
 6989TIP3    H142382   3.868   0.153  10.879  0.9420  0.2368  1.7616
 6989TIP3    H242383   3.752   0.233  10.823 -0.2332 -2.5168  0.1959
 6990TIP3   OH242384   3.740   4.272  14.188 -1.0804 -0.2674 -0.8611
 6990TIP3    H142385   3.743   4.361  14.152 -0.9282  0.1163  0.0758
 6990TIP3    H242386   3.696   4.282  14.272  1.4359 -0.5988  0.5632
 6991TIP3   OH242387   3.670   1.015  12.231  0.5618  0.3168  0.6822
 6991TIP3    H142388   3.586   1.060  12.241  0.4733  0.1262  0.7922
 6991TIP3    H242389   3.660   0.964  12.150  0.6680  0.5068  0.5468
 6992TIP3   OH242390   3.275   1.853  14.032 -0.6326  0.0991  0.1893
 6992TIP3    H142391   3.311   1.765  14.044  0.2024  0.5884  1.3754
 6992TIP3    H242392   3.325   1.908  14.092 -2.8606  0.9554  1.3053
 6993TIP3   OH242393   1.331   3.777  12.108  0.2573 -0.1263  0.2416
 6993TIP3    H142394   1.311   3.715  12.179 -1.4986 -0.2114 -0.3112
 6993TIP3    H242395   1.257   3.771  12.049  1.2844  0.6285 -1.1572
 6994TIP3   OH242396   1.634   0.838   2.881 -0.6696  0.2108 -0.0096
 6994TIP3    H142397   1.589   0.851   2.797 -0.9963 -1.4018 -0.0919
 6994TIP3    H242398   1.727   0.841   2.858 -0.7570  0.1228 -0.3867
 6995TIP3   OH242399   1.922   4.848  14.533  0.4045  0.0582  0.1418
 6995TIP3    H142400   1.880   4.763  14.550  0.5027 -0.0509 -0.1574
 6995TIP3    H242401   1.850   4.911  14.535 -0.0609 -0.3530 -2.1646
 6996TIP3   OH242402   1.507   4.206  15.075 -0.4770  0.7579  0.4038
 6996TIP3    H142403   1.445   4.140  15.046  0.9448 -0.3576 -0.1802
 6996TIP3    H242404   1.461   4.255  15.144 -1.3091 -1.2950  1.3358
 6997TIP3   OH242405   0.115   6.687  12.701 -0.4809 -0.1739 -0.4131
 6997TIP3    H142406   0.145   6.676  12.610 -0.5083 -1.6618 -0.2416
 6997TIP3    H242407   0.059   6.612  12.718  0.0002 -0.2182  1.0397
 6998TIP3   OH242408   6.775   0.949   4.122 -0.1471  0.4185 -0.0405
 6998TIP3    H142409   6.752   0.883   4.188  0.8977  0.4198  0.3205
 6998TIP3    H242410   6.746   1.032   4.160 -1.8073  0.1404 -0.6567
 6999TIP3   OH242411   0.113   2.507  14.023  0.1450  0.0590 -0.4457
 6999TIP3    H142412   0.031   2.524  13.977  1.4095  0.9036 -2.5135
 6999TIP3    H242413   0.137   2.418  13.997  0.2571  0.1021 -0.4935
 7000TIP3   OH242414   1.301   3.652   0.721  0.0146 -0.2433 -0.0855
 7000TIP3    H142415   1.297   3.565   0.682  0.3354  0.0536 -0.7963
 7000TIP3    H242416   1.260   3.709   0.656  0.4783  0.2458  0.0439
 7001TIP3   OH242417   4.520   3.357  14.467  0.4886 -0.2559  0.2358
 7001TIP3    H142418   4.472   3.378  14.387 -0.8823  1.5893  1.5126
 7001TIP3    H242419   4.565   3.438  14.491  2.1155 -1.2204  0.5271
 7002TIP3   OH242420   3.300   2.554  12.901 -0.1722  0.5246 -0.0408
 7002TIP3    H142421   3.224   2.497  12.887  1.0797 -1.2264  0.1563
 7002TIP3    H242422   3.350   2.547  12.820  0.3681  0.7510  0.2740
 7003TIP3   OH242423   4.309   4.797  16.219  0.3265 -0.2167 -0.0533
 7003TIP3    H142424   4.344   4.827  16.136 -0.9591  0.2084 -0.4539
 7003TIP3    H242425   4.386   4.778  16.273  1.1504  0.9524 -0.8187
 7004TIP3   OH242426   3.959   5.201   4.471 -0.2953 -0.2357  0.2323
 7004TIP3    H142427   4.029   5.245   4.423 -0.8315  0.2476 -0.1229
 7004TIP3    H242428   3.884   5.260   4.463 -0.7676 -0.7877  0.5261
 7005TIP3   OH242429   3.655   6.144   0.892 -0.5171  1.1099  0.5929
 7005TIP3    H142430   3.676   6.123   0.801  0.3826  1.2620  0.7674
 7005TIP3    H242431   3.714   6.089   0.943 -2.1281 -0.1976  1.1166
 7006TIP3   OH242432   1.298   5.381   5.101  0.1857 -0.0276  0.0208
 7006TIP3    H142433   1.359   5.418   5.165  1.0242 -0.1412 -0.6931
 7006TIP3    H242434   1.351   5.370   5.021 -0.7375 -0.2545 -0.5708
 7007TIP3   OH242435   6.742   1.500   1.327  0.2744 -0.2401  0.2358
 7007TIP3    H142436   6.729   1.503   1.232  1.0914 -1.5825  0.0693
 7007TIP3    H242437   6.828   1.457   1.338  2.3555  4.0037  1.4363
 7008TIP3   OH242438   6.626   4.970   6.092  0.1785 -0.2758 -0.3935
 7008TIP3    H142439   6.546   5.021   6.088  1.2898  1.6778  1.1891
 7008TIP3    H242440   6.607   4.899   6.154 -0.9210 -0.9851 -1.5297
 7009TIP3   OH242441   6.769   5.203   1.167  0.4404 -0.9126  0.6293
 7009TIP3    H142442   6.702   5.266   1.143  0.8118 -0.2638  1.2764
 7009TIP3    H242443   6.729   5.149   1.236 -0.8247 -3.1406 -1.7676
 7010TIP3   OH242444   3.185   5.801  15.459  0.4212 -0.1109  0.3279
 7010TIP3    H142445   3.109   5.857  15.476  0.2081  1.0260 -3.7734
 7010TIP3    H242446   3.170   5.723  15.513 -2.9288  0.7155  0.7080
 7011TIP3   OH242447   0.774   0.496  15.096  0.7251 -0.3140 -0.3438
 7011TIP3    H142448   0.691   0.459  15.127 -0.2434  2.0753  0.0120
 7011TIP3    H242449   0.840   0.461  15.156 -0.0243 -2.0986 -0.5201
 7012TIP3   OH242450   3.313   4.101   1.833 -0.2439 -0.4341 -0.5593
 7012TIP3    H142451   3.374   4.162   1.793  0.0958 -0.3416  0.0997
 7012TIP3    H242452   3.364   4.021   1.847 -0.3642 -0.4685 -0.3135
 7013TIP3   OH242453   2.508   5.197   2.227 -0.1380  0.6564  0.4019
 7013TIP3    H142454   2.437   5.157   2.176 -1.0335  1.8160  0.6975
 7013TIP3    H242455   2.584   5.194   2.169 -0.5562 -0.1585 -0.1129
 7014TIP3   OH242456   4.937   6.427  16.805 -0.6394 -0.5116  0.1432
 7014TIP3    H142457   4.997   6.438  16.879 -1.4635 -0.9332  0.8765
 7014TIP3    H242458   4.886   6.508  16.804  0.1173 -0.0301 -0.6559
 7015TIP3   OH242459   1.438   4.036  12.071  0.3643  0.2433 -0.8346
 7015TIP3    H142460   1.527   4.026  12.038  0.2732  1.4237 -1.4567
 7015TIP3    H242461   1.407   3.947  12.085  0.9586 -0.2246 -2.4550
 7016TIP3   OH242462   2.632   1.486   4.680  0.2364  0.1333 -0.7236
 7016TIP3    H142463   2.579   1.417   4.639 -0.3625  0.8783 -1.2034
 7016TIP3    H242464   2.719   1.448   4.686 -0.4412 -1.2832  0.4935
 7017TIP3   OH242465   1.660   5.253  16.238 -0.7467 -0.3531 -0.4249
 7017TIP3    H142466   1.710   5.254  16.156 -0.8908 -0.5178 -0.5142
 7017TIP3    H242467   1.673   5.164  16.272  0.8256  0.2717  0.6602
 7018TIP3   OH242468   5.199   1.755   4.025  0.0305  0.0299  0.2480
 7018TIP3    H142469   5.225   1.706   4.103  0.4840  0.1088  0.1500
 7018TIP3    H242470   5.140   1.695   3.978 -1.8553  0.7664  1.6505
 7019TIP3   OH242471   6.001   2.172   4.367 -0.4400  0.0169 -0.2961
 7019TIP3    H142472   5.945   2.230   4.419  1.9838  0.7548  1.5850
 7019TIP3    H242473   6.061   2.230   4.321 -1.1101 -0.7725 -2.2544
 7020TIP3   OH242474   4.647   4.656  12.740 -0.0077 -0.5132 -0.4093
 7020TIP3    H142475   4.703   4.698  12.805 -0.4925  0.9486 -0.9252
 7020TIP3    H242476   4.691   4.573  12.720  0.2884 -0.8757  1.5772
 7021TIP3   OH242477   5.064   2.306   4.339 -0.1924  0.4853  0.6814
 7021TIP3    H142478   5.089   2.378   4.397  1.5278 -0.2360  0.8745
 7021TIP3    H242479   5.087   2.337   4.252 -0.2093  0.4872  0.6775
 7022TIP3   OH242480   0.035   3.077  16.333  0.0102 -0.1909  0.1757
 7022TIP3    H142481   0.030   3.123  16.249  2.3976 -1.2053 -0.5727
 7022TIP3    H242482  -0.044   3.103  16.380 -0.9734  0.9967 -2.0841
 7023TIP3   OH242483   2.692   5.557   3.867  0.0536 -0.9369 -0.3985
 7023TIP3    H142484   2.755   5.515   3.926 -0.0393 -0.1661  0.2648
 7023TIP3    H242485   2.621   5.587   3.924  0.2348  0.3260 -0.8090
 7024TIP3   OH242486   2.744   4.540  12.785 -0.0936  0.2292  0.4774
 7024TIP3    H142487   2.694   4.461  12.762  1.1223 -0.4513  0.0951
 7024TIP3    H242488   2.764   4.529  12.878 -0.6151  0.4845  0.6215
 7025TIP3   OH242489   1.727   6.350  11.451  0.1420 -0.5532 -0.7718
 7025TIP3    H142490   1.671   6.427  11.463 -0.5621 -1.0285 -0.9617
 7025TIP3    H242491   1.760   6.330  11.538  0.2023 -0.1274 -0.6975
 7026TIP3   OH242492   3.102   2.428   5.477 -0.1444  0.2768 -0.6169
 7026TIP3    H142493   3.103   2.445   5.571 -2.0055 -0.7979 -0.3662
 7026TIP3    H242494   3.019   2.381   5.463  1.4189 -2.0963 -2.3134
 7027TIP3   OH242495   5.613   2.091   3.934 -0.0221  0.0466  0.4415
 7027TIP3    H142496   5.523   2.121   3.929  0.6611  1.8602 -1.4253
 7027TIP3    H242497   5.656   2.153   3.993  0.1925 -0.3758  0.7335
 7028TIP3   OH242498   3.876   4.101  15.339 -0.1200 -1.0253  0.2503
 7028TIP3    H142499   3.967   4.072  15.332  0.0674 -0.5325  0.5861
 7028TIP3    H242500   3.875   4.160  15.415 -0.2417  0.7880 -1.1222
 7029TIP3   OH242501   0.344   6.556   0.476  0.0328 -0.0641 -0.0884
 7029TIP3    H142502   0.278   6.534   0.541  0.2519  0.2994  0.2548
 7029TIP3    H242503   0.393   6.474   0.464  0.4625  0.0679  0.7458
 7030TIP3   OH242504   5.928   0.135  10.774 -0.4640  0.3339  0.0089
 7030TIP3    H142505   6.023   0.134  10.774 -0.4556  0.8503 -0.6789
 7030TIP3    H242506   5.903   0.062  10.718 -0.4742  0.1413  0.2637
 7031TIP3   OH242507   2.953   6.624  13.454 -0.3129  0.2517  0.2642
 7031TIP3    H142508   2.911   6.562  13.514 -0.2329 -0.3276 -0.2757
 7031TIP3    H242509   2.881   6.667  13.409 -0.3432 -0.3079 -0.2255
 7032TIP3   OH242510   0.661   4.735  14.712  0.1354 -0.0109 -0.2933
 7032TIP3    H142511   0.675   4.776  14.627  0.0237 -2.6317 -1.6477
 7032TIP3    H242512   0.576   4.767  14.741  0.6043  1.6331 -0.7334
 7033TIP3   OH242513   3.403   6.392  14.568 -0.3016  0.1462  0.7672
 7033TIP3    H142514   3.335   6.376  14.503 -0.9821  1.3734  1.1572
 7033TIP3    H242515   3.484   6.369  14.523 -0.8947 -0.5095  0.0110
 7034TIP3   OH242516   5.411   2.311  13.347 -0.4742 -0.0149  0.0908
 7034TIP3    H142517   5.372   2.349  13.426 -0.4742 -1.2897  0.7161
 7034TIP3    H242518   5.387   2.371  13.277  1.1622  2.1882  1.3443
 7035TIP3   OH242519   2.831   6.197   0.579  0.5388 -0.0829 -0.2621
 7035TIP3    H142520   2.762   6.244   0.533  1.9696  0.4423 -1.9008
 7035TIP3    H242521   2.863   6.258   0.645  1.0014  0.5123 -1.0333
 7036TIP3   OH242522   1.239   3.055   6.458 -0.5966 -0.1834  0.1787
 7036TIP3    H142523   1.173   2.994   6.491 -2.3518 -0.0388 -2.9285
 7036TIP3    H242524   1.317   3.002   6.444 -0.8838 -0.8992  1.2387
 7037TIP3   OH242525   6.263   3.060   1.833 -0.1307 -1.1047  0.7318
 7037TIP3    H142526   6.211   3.024   1.905  0.4228 -1.8692  0.7517
 7037TIP3    H242527   6.317   2.987   1.803  0.0760 -0.6317 -0.0731
 7038TIP3   OH242528   4.965   1.363   5.258 -0.1611 -0.4382  0.9413
 7038TIP3    H142529   4.908   1.290   5.231 -1.5323  1.0988 -0.4141
 7038TIP3    H242530   5.046   1.350   5.210 -0.7767 -0.5141 -0.0922
 7039TIP3   OH242531   3.681   3.071   6.701 -0.3417  0.2840 -0.1117
 7039TIP3    H142532   3.687   3.031   6.788  0.3349  0.6573  0.0193
 7039TIP3    H242533   3.723   3.008   6.643  1.1907  1.0032  0.1717
 7040TIP3   OH242534   6.181   2.526   3.989 -0.0276 -0.0791 -0.6865
 7040TIP3    H142535   6.088   2.546   3.999 -0.0984  0.0187 -1.5266
 7040TIP3    H242536   6.215   2.594   3.931  1.1060  1.3348  1.6012
 7041TIP3   OH242537   5.324   4.769   2.659  0.5927  0.3012  0.0545
 7041TIP3    H142538   5.352   4.779   2.569 -1.0619  1.4636 -0.3481
 7041TIP3    H242539   5.302   4.676   2.667  0.3876  0.2753 -0.8312
 7042TIP3   OH242540   2.295   2.308   4.125  0.3370 -0.3760 -0.5559
 7042TIP3    H142541   2.227   2.371   4.102 -0.5203 -0.8589  0.6392
 7042TIP3    H242542   2.249   2.224   4.128  0.6648 -0.5064  1.6829
 7043TIP3   OH242543   0.846   2.154  12.889  0.2612  0.1400 -0.3924
 7043TIP3    H142544   0.882   2.242  12.885 -0.6547  0.5354 -0.1473
 7043TIP3    H242545   0.858   2.128  12.981  0.3826  0.0693 -0.4286
 7044TIP3   OH242546   1.332   1.092   3.073  0.0089 -0.3081 -0.2609
 7044TIP3    H142547   1.246   1.075   3.111 -0.4695  0.7581 -0.8377
 7044TIP3    H242548   1.314   1.137   2.990  1.1050 -0.5103 -0.6255
 7045TIP3   OH242549   0.648   5.410   0.980  0.1378  0.2210  0.3936
 7045TIP3    H142550   0.707   5.404   1.055  0.7063 -0.7186 -0.1202
 7045TIP3    H242551   0.601   5.326   0.981 -0.1314  0.3682 -0.0682
 7046TIP3   OH242552   5.404   3.849  15.294  0.0094 -0.1081  0.3120
 7046TIP3    H142553   5.362   3.884  15.215  2.4399  3.1669  0.3776
 7046TIP3    H242554   5.334   3.847  15.359 -2.3800 -4.1557 -2.1836
 7047TIP3   OH242555   0.357   0.565  12.627 -0.0633 -0.0980 -0.2934
 7047TIP3    H142556   0.290   0.548  12.693  0.0209 -0.2534 -0.2470
 7047TIP3    H242557   0.389   0.478  12.601 -0.7953 -0.0886 -1.2652
 7048TIP3   OH242558   4.108   6.062  12.624  0.3461  0.1707 -0.1039
 7048TIP3    H142559   4.068   6.112  12.552 -1.3837  0.9429  1.3688
 7048TIP3    H242560   4.184   6.114  12.650  0.9662 -0.0913 -1.3155
 7049TIP3   OH242561   2.433   4.044  17.211 -0.0611  0.7111  0.1844
 7049TIP3    H142562   2.475   4.101  17.146 -1.5447  0.4403 -1.0449
 7049TIP3    H242563   2.370   3.993  17.160 -0.4585 -0.2969  1.6743
 7050TIP3   OH242564   6.253   4.453   3.034  0.0262 -0.0277 -0.2696
 7050TIP3    H142565   6.204   4.517   2.983  3.5735  0.1898 -3.6574
 7050TIP3    H242566   6.238   4.370   2.989  1.2465 -0.2566 -0.2760
 7051TIP3   OH242567   2.265   3.247  16.707 -0.5232 -0.1430  0.3642
 7051TIP3    H142568   2.329   3.250  16.636 -1.0838  1.4455 -0.0900
 7051TIP3    H242569   2.182   3.269  16.665 -1.0077 -0.0750  1.3462
 7052TIP3   OH242570   0.892   3.195   5.445  0.5580 -0.7937 -0.2238
 7052TIP3    H142571   0.865   3.143   5.521  0.7865 -1.8140 -0.8316
 7052TIP3    H242572   0.814   3.198   5.390  0.2644  0.3120  0.2519
 7053TIP3   OH242573   1.979   6.029  15.552 -0.0681 -0.4416 -0.2520
 7053TIP3    H142574   2.072   6.009  15.563  0.6952  1.6619 -2.5889
 7053TIP3    H242575   1.957   6.083  15.627  0.3689 -1.5884  0.7248
 7054TIP3   OH242576   3.222   6.288  12.546  0.3218  0.2043 -0.0647
 7054TIP3    H142577   3.169   6.264  12.622  1.9312 -0.5255  0.8624
 7054TIP3    H242578   3.165   6.273  12.471 -0.5018 -1.3586  0.8574
 7055TIP3   OH242579   0.986   5.604   2.992  0.0044 -0.0855 -0.7125
 7055TIP3    H142580   0.960   5.634   2.905  1.6426 -0.8447 -1.4714
 7055TIP3    H242581   0.915   5.634   3.050 -0.1860  2.0456 -2.0066
 7056TIP3   OH242582   1.943   6.710   3.964  0.5422 -0.0816  0.3318
 7056TIP3    H142583   1.911   6.655   4.035  0.7487  0.6684  1.0072
 7056TIP3    H242584   1.872   6.711   3.900  0.6603 -1.3798  0.1762
 7057TIP3   OH242585   5.787   2.169  11.450 -0.0125 -0.2308  0.2347
 7057TIP3    H142586   5.740   2.251  11.468 -0.2779 -0.5058  0.8171
 7057TIP3    H242587   5.725   2.116  11.400 -0.0592 -0.3081  0.3737
 7058TIP3   OH242588   5.146   1.585  15.310 -0.4466 -0.3037 -0.1305
 7058TIP3    H142589   5.222   1.642  15.312 -0.0930 -0.7479 -0.6341
 7058TIP3    H242590   5.110   1.596  15.222 -0.1040 -1.1999 -0.3917
 7059TIP3   OH242591   1.675   6.548  12.680 -0.0658  0.4077  0.3330
 7059TIP3    H142592   1.694   6.627  12.731 -0.4192  1.9999 -1.9631
 7059TIP3    H242593   1.582   6.556  12.658  0.1065 -0.2264 -0.6474
 7060TIP3   OH242594   3.733   5.045  12.209  0.0294  0.0583  0.3252
 7060TIP3    H142595   3.791   5.081  12.142  1.0490 -2.8943 -0.4693
 7060TIP3    H242596   3.659   5.011  12.159 -0.5450  0.3379  0.9821
 7061TIP3   OH242597   3.364   5.342   1.972 -0.3463  0.1022 -0.4435
 7061TIP3    H142598   3.456   5.365   1.961 -0.6644  1.8419  0.3198
 7061TIP3    H242599   3.338   5.308   1.887  0.7435  0.5862 -0.9875
 7062TIP3   OH242600   3.932   4.860   5.730  0.1062  0.2072 -0.4497
 7062TIP3    H142601   3.844   4.897   5.731  0.3084  0.6745  0.1711
 7062TIP3    H242602   3.931   4.792   5.798  0.2150  0.1877 -0.4667
 7063TIP3   OH242603   4.345   0.277   5.947  0.0998 -0.6968  0.1994
 7063TIP3    H142604   4.360   0.194   5.993  0.0565 -1.7937 -1.7215
 7063TIP3    H242605   4.298   0.253   5.868 -0.7746  1.2981  0.0743
 7064TIP3   OH242606   1.682   0.220   5.106 -0.1831  0.1793  0.2091
 7064TIP3    H142607   1.730   0.240   5.026 -1.2068 -0.5431 -0.6007
 7064TIP3    H242608   1.593   0.251   5.088 -1.0359 -2.2788  0.1200
 7065TIP3   OH242609   1.560   2.938   3.582  0.2859  0.0626 -0.1421
 7065TIP3    H142610   1.538   2.905   3.670  0.6032  2.0957  0.7349
 7065TIP3    H242611   1.522   2.874   3.522  1.7728 -2.4514  1.4840
 7066TIP3   OH242612   4.161   0.412   2.476  0.3296 -0.0461 -0.1582
 7066TIP3    H142613   4.098   0.396   2.546 -0.1334  0.8121 -0.3730
 7066TIP3    H242614   4.134   0.353   2.406 -0.2018  0.2649 -0.2222
 7067TIP3   OH242615   4.270   5.564  12.482 -0.5376 -0.0682  0.2008
 7067TIP3    H142616   4.344   5.586  12.540  1.2277  0.1645 -2.0387
 7067TIP3    H242617   4.239   5.649  12.451 -0.9344 -0.2171  0.1977
 7068TIP3   OH242618   3.188   5.577  15.972  0.1301  0.1697 -0.0623
 7068TIP3    H142619   3.113   5.526  15.943 -1.4343  1.5656  1.4631
 7068TIP3    H242620   3.195   5.560  16.065  0.3913  1.6808  0.2179
 7069TIP3   OH242621   2.872   4.542  15.182  0.1879 -0.1282 -0.6196
 7069TIP3    H142622   2.895   4.622  15.229  1.4038 -0.3337 -0.8359
 7069TIP3    H242623   2.876   4.567  15.089  0.7415 -0.4807 -0.6923
 7070TIP3   OH242624   5.367   3.055  14.942  0.0756 -0.7603 -0.1146
 7070TIP3    H142625   5.433   3.124  14.935 -0.4977  0.0390  2.0621
 7070TIP3    H242626   5.319   3.060  14.860  2.3368 -0.9870 -1.5120
 7071TIP3   OH242627   1.715   2.434  13.656 -0.0424  0.5260  0.0046
 7071TIP3    H142628   1.638   2.376  13.656  1.5606 -1.7252  1.9900
 7071TIP3    H242629   1.705   2.486  13.736 -0.0211  0.9536 -0.2709
 7072TIP3   OH242630   5.744   6.187   3.245 -0.0374 -0.1613  0.1952
 7072TIP3    H142631   5.796   6.174   3.165  0.4820  2.0695  0.1483
 7072TIP3    H242632   5.788   6.135   3.311  0.2841 -0.9874 -0.6499
 7073TIP3   OH242633   1.517   0.247  13.821 -0.1970  0.6078 -0.0363
 7073TIP3    H142634   1.516   0.336  13.858  1.5403  0.4515  0.4323
 7073TIP3    H242635   1.586   0.202  13.870 -1.3900 -1.1466  0.0571
 7074TIP3   OH242636   3.208   3.078  16.547 -0.0203  0.5456 -0.5758
 7074TIP3    H142637   3.150   3.097  16.473 -1.4447  0.0001  0.3869
 7074TIP3    H242638   3.165   3.118  16.622  1.2486  0.8003  0.0221
 7075TIP3   OH242639   1.423   3.616   2.816 -0.3676 -0.7580 -0.2749
 7075TIP3    H142640   1.496   3.583   2.869 -1.2946 -1.7403  0.4177
 7075TIP3    H242641   1.363   3.542   2.811 -1.2720  0.0242 -0.9171
 7076TIP3   OH242642   2.894   5.575  17.176 -0.3312  0.3482  0.0152
 7076TIP3    H142643   2.851   5.491  17.192 -0.5569  0.4598 -0.0007
 7076TIP3    H242644   2.962   5.580  17.243 -0.5987  0.3466  0.2915
 7077TIP3   OH242645   0.854   4.158   0.741  0.0848  0.3307 -0.1558
 7077TIP3    H142646   0.950   4.150   0.741  0.0841  0.0667  1.6377
 7077TIP3    H242647   0.838   4.247   0.708  0.9445  0.3683 -0.4878
 7078TIP3   OH242648   0.498   2.732  10.962 -0.7302  0.0676 -0.3096
 7078TIP3    H142649   0.545   2.652  10.936  0.0413  0.6277 -0.6396
 7078TIP3    H242650   0.438   2.749  10.889  0.1352  0.6031 -0.9067
 7079TIP3   OH242651   6.777   1.610   3.970  0.5063  0.1178 -0.1980
 7079TIP3    H142652   6.729   1.576   4.045  0.3979 -1.6242 -1.0475
 7079TIP3    H242653   6.791   1.702   3.991 -2.8868  0.6133  0.2349
 7080TIP3   OH242654   5.110   5.025  14.337  0.0611  0.5911 -0.1679
 7080TIP3    H142655   5.134   5.075  14.260 -0.1768 -0.5345 -0.9901
 7080TIP3    H242656   5.193   4.989  14.369 -0.0593 -0.3768 -0.9274
 7081TIP3   OH242657   4.829   1.786  14.732  0.0836  0.0634  0.5053
 7081TIP3    H142658   4.778   1.793  14.652  1.1063  0.3157 -0.1341
 7081TIP3    H242659   4.766   1.800  14.803 -0.7057  0.4299 -0.2750
 7082TIP3   OH242660   4.311   5.318  11.036  0.2244  0.6624  0.0892
 7082TIP3    H142661   4.251   5.254  10.997  2.4930 -1.1903 -0.4883
 7082TIP3    H242662   4.339   5.373  10.963 -0.5692  1.3875  0.3202
 7083TIP3   OH242663   2.520   1.969  11.316  0.4784 -0.4762 -1.1042
 7083TIP3    H142664   2.424   1.975  11.312  0.0443 -5.4486 -0.8980
 7083TIP3    H242665   2.547   1.963  11.224  0.4039 -1.0705 -1.0891
 7084TIP3   OH242666   1.692   3.833  14.647  0.3491  0.1749 -0.0058
 7084TIP3    H142667   1.776   3.788  14.652  0.4649  0.5074  1.0866
 7084TIP3    H242668   1.627   3.763  14.652  0.5527 -0.1327 -1.4057
 7085TIP3   OH242669   0.244   3.674  16.775 -0.2357  0.2454  0.2142
 7085TIP3    H142670   0.199   3.698  16.694  1.1590 -0.0312 -0.6699
 7085TIP3    H242671   0.194   3.717  16.844 -0.0320  2.5151 -0.9962
 7086TIP3   OH242672   3.467   3.169   6.530  0.0844 -0.0539  0.4292
 7086TIP3    H142673   3.374   3.169   6.553  0.0522  0.1651  0.2968
 7086TIP3    H242674   3.511   3.131   6.607 -0.0497  0.4411  0.7575
 7087TIP3   OH242675   1.478   5.915  16.031 -0.2295 -0.4095 -0.0025
 7087TIP3    H142676   1.574   5.917  16.035 -0.1798 -0.4942 -1.1415
 7087TIP3    H242677   1.458   5.853  15.961 -1.0923  1.0821 -1.0919
 7088TIP3   OH242678   2.231   0.758  12.335  0.2505 -0.1273  0.1253
 7088TIP3    H142679   2.240   0.769  12.429 -0.6209 -2.7614  0.5646
 7088TIP3    H242680   2.298   0.815  12.297  0.1336  1.4815  2.3004
 7089TIP3   OH242681   1.378   5.719  15.457 -0.1262  0.2224  0.0543
 7089TIP3    H142682   1.425   5.743  15.377  0.3365 -0.2514  0.1838
 7089TIP3    H242683   1.423   5.766  15.527  0.1977 -0.2764  0.1855
 7090TIP3   OH242684   1.172   5.334  10.875  0.2484 -0.3530 -0.6592
 7090TIP3    H142685   1.158   5.318  10.782 -0.0374  0.6266 -0.7966
 7090TIP3    H242686   1.262   5.367  10.880  0.0669  0.1479 -0.6642
 7091TIP3   OH242687   3.798   2.805   3.141 -0.1731  0.5638 -0.1483
 7091TIP3    H142688   3.875   2.835   3.190  0.7866 -0.3751 -1.0496
 7091TIP3    H242689   3.723   2.838   3.191  0.8100  3.6502 -0.6307
 7092TIP3   OH242690   2.954   5.779   0.677 -0.3164  0.7322  0.2555
 7092TIP3    H142691   2.962   5.702   0.620  0.3839  1.1509 -0.2207
 7092TIP3    H242692   2.944   5.742   0.765 -0.5753  0.0908 -0.0352
 7093TIP3   OH242693   0.104   4.492   3.601  0.1119  1.0343 -0.3754
 7093TIP3    H142694   0.125   4.483   3.508  0.7054 -0.1548 -0.1355
 7093TIP3    H242695   0.053   4.414   3.621 -2.1455  2.4952 -0.2662
 7094TIP3   OH242696   4.395   2.622   5.571  0.0211 -0.0067 -0.0281
 7094TIP3    H142697   4.489   2.615   5.584 -0.2228 -0.1877  1.6263
 7094TIP3    H242698   4.357   2.548   5.618 -1.1629  1.8173  2.0146
 7095TIP3   OH242699   0.835   1.028   0.687 -0.1014 -0.1357  0.7572
 7095TIP3    H142700   0.885   1.058   0.762  0.0612  0.3799  0.4417
 7095TIP3    H242701   0.790   0.949   0.718  2.5920 -1.8670  0.4200
 7096TIP3   OH242702   4.157   3.397  13.045  0.3944 -0.4681 -0.1061
 7096TIP3    H142703   4.099   3.432  12.977  1.0839 -1.7030 -1.3682
 7096TIP3    H242704   4.178   3.309  13.015  1.2994 -0.7727  1.3666
 7097TIP3   OH242705   5.421   5.842   4.362  0.2199  0.5652 -0.1684
 7097TIP3    H142706   5.413   5.913   4.298 -0.9396  1.0389  0.4901
 7097TIP3    H242707   5.340   5.793   4.353 -0.1577  0.9001  1.2424
 7098TIP3   OH242708   2.009   2.320  14.060  0.3531  0.1270  0.2234
 7098TIP3    H142709   2.032   2.367  13.980  1.3964 -0.3485  0.2334
 7098TIP3    H242710   1.988   2.389  14.123  0.9992  0.5564 -0.0270
 7099TIP3   OH242711   4.844   0.132  13.790 -0.2305  0.0585 -0.1816
 7099TIP3    H142712   4.802   0.052  13.758 -1.9136  1.1171 -0.7172
 7099TIP3    H242713   4.937   0.122  13.770 -0.4697 -1.6572 -0.4269
 7100TIP3   OH242714   6.775   1.390  14.623  0.4267  0.1322  0.3483
 7100TIP3    H142715   6.763   1.478  14.660 -0.5759  0.4985 -0.8106
 7100TIP3    H242716   6.759   1.401  14.529  2.9675 -0.7690 -0.2265
 7101TIP3   OH242717   2.086   4.999   5.553  0.1621  0.1113  0.1003
 7101TIP3    H142718   2.044   5.018   5.469 -0.5322  0.6399  0.5659
 7101TIP3    H242719   2.081   5.081   5.601  0.4689 -0.2223  0.7050
 7102TIP3   OH242720   0.219   6.042   2.291  0.2497  0.2840  1.0253
 7102TIP3    H142721   0.285   5.981   2.323 -0.3798 -0.9190  0.0886
 7102TIP3    H242722   0.231   6.121   2.344  1.2527 -0.5518  2.0706
 7103TIP3   OH242723   6.486   1.789  15.006  0.0708  0.1641 -0.2256
 7103TIP3    H142724   6.550   1.738  15.054 -1.9193 -0.8985  1.3619
 7103TIP3    H242725   6.440   1.725  14.951  0.5383  0.9574 -1.5724
 7104TIP3   OH242726   0.289   3.224  17.134 -0.6508 -0.5869  0.0837
 7104TIP3    H142727   0.269   3.250  17.044  0.1777  0.6924  0.2576
 7104TIP3    H242728   0.214   3.170  17.160 -0.8716 -1.0069 -1.3792
 7105TIP3   OH242729   4.919   6.648  14.530  0.0437 -0.6785  0.8188
 7105TIP3    H142730   4.887   6.720  14.476 -2.3692 -2.6953 -0.5375
 7105TIP3    H242731   4.982   6.689  14.589  0.3399  2.1525 -1.3391
 7106TIP3   OH242732   4.486   5.099   0.962 -0.3898  0.2108  0.2352
 7106TIP3    H142733   4.402   5.114   1.007 -1.0728 -0.7269 -0.7050
 7106TIP3    H242734   4.543   5.168   0.996 -1.3515  0.4779  1.3691
 7107TIP3   OH242735   3.034   4.274  16.049  0.2322 -0.4927  0.4756
 7107TIP3    H142736   2.943   4.265  16.077 -0.3360 -2.2005 -1.7791
 7107TIP3    H242737   3.029   4.281  15.953  2.1876  3.5799  0.5487
 7108TIP3   OH242738   3.008   3.037  15.448 -0.4950 -0.1156 -0.0940
 7108TIP3    H142739   3.045   2.998  15.527 -0.4500 -1.1460 -0.6053
 7108TIP3    H242740   2.952   3.108  15.480  0.1959  0.0349  0.8078
 7109TIP3   OH242741   5.085   2.162   3.496  0.5198  0.3072 -0.1772
 7109TIP3    H142742   5.030   2.113   3.434 -0.1876  0.2953  0.4670
 7109TIP3    H242743   5.066   2.254   3.477  2.3267  0.3673 -1.8268
 7110TIP3   OH242744   2.069   3.795   2.490  0.0523  0.2186  0.0835
 7110TIP3    H142745   2.114   3.719   2.525  0.7872  0.9177  0.6886
 7110TIP3    H242746   2.116   3.816   2.409  1.5016  1.5753  1.2520
 7111TIP3   OH242747   2.503   1.002  14.529 -0.2037 -0.3925  0.1267
 7111TIP3    H142748   2.504   1.095  14.553  0.1243 -0.8077  1.7751
 7111TIP3    H242749   2.493   0.956  14.612 -1.5542 -1.8015 -0.7821
 7112TIP3   OH242750   5.439   0.997   1.538 -0.4429  0.3498  0.2071
 7112TIP3    H142751   5.356   0.950   1.532 -0.0146 -0.4332  0.4193
 7112TIP3    H242752   5.474   0.998   1.449  0.3017 -1.1100  0.4706
 7113TIP3   OH242753   6.541   0.759   4.431 -0.1008 -0.1959 -0.0920
 7113TIP3    H142754   6.544   0.665   4.446 -0.9650 -0.3446 -0.7880
 7113TIP3    H242755   6.624   0.779   4.388  0.4888 -0.4767  0.8994
 7114TIP3   OH242756   5.779   4.780  12.129 -0.0144 -0.2489  0.5852
 7114TIP3    H142757   5.774   4.740  12.216 -0.0362  0.4095  0.8886
 7114TIP3    H242758   5.872   4.785  12.110  0.1619  2.1452  1.7740
 7115TIP3   OH242759   1.235   0.623   3.219  0.1719 -0.0399  0.3825
 7115TIP3    H142760   1.170   0.645   3.153  1.0853 -0.2769 -0.6243
 7115TIP3    H242761   1.273   0.706   3.246  0.4801 -0.0245 -0.1069
 7116TIP3   OH242762   6.547   5.351   6.608 -0.4401 -0.2758 -0.4216
 7116TIP3    H142763   6.560   5.318   6.520 -1.3349 -0.1779 -0.5982
 7116TIP3    H242764   6.452   5.359   6.617 -0.2543  3.1811 -0.7661
 7117TIP3   OH242765   4.913   2.468   2.801  0.5411  0.0656 -0.9212
 7117TIP3    H142766   4.975   2.413   2.848  1.2156  2.4623  1.1407
 7117TIP3    H242767   4.959   2.494   2.721  1.9355  1.2086  0.2295
 7118TIP3   OH242768   4.965   5.728  17.182  0.7190 -0.2343  0.1744
 7118TIP3    H142769   5.043   5.707  17.232 -0.9426 -1.9644  2.1283
 7118TIP3    H242770   4.948   5.820  17.202  2.7180  0.4313 -1.0002
 7119TIP3   OH242771   3.741   4.839   2.099 -0.2654 -0.6171 -0.7530
 7119TIP3    H142772   3.749   4.829   2.004  0.5236 -1.9144 -0.5739
 7119TIP3    H242773   3.788   4.920   2.119 -1.1025  0.0792 -1.5497
 7120TIP3   OH242774   4.288   1.071  13.333  0.1375 -0.0054  0.2670
 7120TIP3    H142775   4.249   1.147  13.291  1.7358  1.4590  1.3573
 7120TIP3    H242776   4.271   1.084  13.427  2.8853  0.5032  0.7370
 7121TIP3   OH242777   3.174   6.337   2.216 -0.4139  0.5258 -0.0101
 7121TIP3    H142778   3.265   6.316   2.195 -0.2506  0.8014  0.4118
 7121TIP3    H242779   3.145   6.266   2.274 -0.6815  0.0750 -0.6935
 7122TIP3   OH242780   6.382   4.590   5.033 -0.2971  0.4336 -0.5021
 7122TIP3    H142781   6.436   4.650   4.982 -0.0675  0.0666 -0.6963
 7122TIP3    H242782   6.361   4.638   5.113 -1.3390  1.3060 -1.2982
 7123TIP3   OH242783   1.049   6.375   1.567  0.1487 -0.4747 -0.0829
 7123TIP3    H142784   1.029   6.448   1.627 -0.5521 -0.7444  0.0095
 7123TIP3    H242785   1.142   6.357   1.582  0.8597  1.7359 -1.5507
 7124TIP3   OH242786   2.324   6.350  14.781  0.2263 -0.0111 -0.5331
 7124TIP3    H142787   2.237   6.345  14.741  0.3817 -2.2993 -0.6449
 7124TIP3    H242788   2.370   6.273  14.748  1.6507  0.1336  1.0386
 7125TIP3   OH242789   1.614   4.977  16.060  0.0784 -0.1074  0.1260
 7125TIP3    H142790   1.578   4.926  15.987 -0.7206 -3.0910  2.5304
 7125TIP3    H242791   1.595   4.925  16.138  1.6469  2.6154  2.4186
 7126TIP3   OH242792   1.697   0.246   2.695  0.5542  0.3128 -0.3998
 7126TIP3    H142793   1.602   0.243   2.694  0.4195  0.9821  3.3827
 7126TIP3    H242794   1.724   0.156   2.712  0.4872  0.4435  0.4507
 7127TIP3   OH242795   4.520   1.023   6.413  0.6805 -0.5275 -0.1988
 7127TIP3    H142796   4.584   1.018   6.483  0.7177 -0.1799 -0.2085
 7127TIP3    H242797   4.552   1.093   6.356  0.1600 -0.1939 -0.0755
 7128TIP3   OH242798   3.828   3.968   3.027  0.0712  0.5543  0.0160
 7128TIP3    H142799   3.906   3.917   3.048 -0.2573  0.0150 -0.0802
 7128TIP3    H242800   3.805   4.010   3.110 -0.2373 -0.2364  0.3254
 7129TIP3   OH242801   3.986   5.386  17.144  0.1932 -0.0466  0.3972
 7129TIP3    H142802   4.057   5.327  17.119 -1.8880 -1.8308 -1.5263
 7129TIP3    H242803   4.000   5.464  17.090  0.4624 -0.5642 -0.2866
 7130TIP3   OH242804   1.322   6.503  10.613 -0.7270  0.3018 -0.2130
 7130TIP3    H142805   1.372   6.423  10.601 -2.7431 -1.2973  1.4521
 7130TIP3    H242806   1.386   6.574  10.609  1.0731 -1.3902 -1.7774
 7131TIP3   OH242807   4.080   1.927   3.351  0.1432 -0.4214 -0.6161
 7131TIP3    H142808   4.043   1.889   3.271 -0.2745  0.9607 -1.0857
 7131TIP3    H242809   4.089   2.020   3.332  2.6923 -0.5184 -0.0534
 7132TIP3   OH242810   4.326   2.762  15.795 -0.3039 -0.6025  0.1131
 7132TIP3    H142811   4.408   2.811  15.788 -1.7405  1.8137 -0.3554
 7132TIP3    H242812   4.336   2.688  15.735  1.7193 -0.6274  0.4588
 7133TIP3   OH242813   0.702   6.661   0.216  0.1475  0.3263 -0.0439
 7133TIP3    H142814   0.796   6.643   0.205  0.4694  1.1915  1.2129
 7133TIP3    H242815   0.684   6.732   0.155  0.1217 -0.3642 -0.8603
 7134TIP3   OH242816   4.800   3.983  12.229  0.3026  0.0500  0.1084
 7134TIP3    H142817   4.868   3.988  12.163 -0.2134  0.4805 -0.3912
 7134TIP3    H242818   4.813   4.061  12.283 -1.1904  1.3308 -1.3460
 7135TIP3   OH242819   6.584   5.194  14.916 -0.0053 -0.0869 -0.3561
 7135TIP3    H142820   6.609   5.196  15.009  2.6288 -1.3236 -0.9889
 7135TIP3    H242821   6.601   5.282  14.884 -1.1796  0.4158  0.4013
 7136TIP3   OH242822   2.771   3.462  12.150  0.6370 -0.1247 -0.3292
 7136TIP3    H142823   2.724   3.381  12.130  0.3636  0.0849 -0.5430
 7136TIP3    H242824   2.703   3.523  12.177  1.1173 -0.6912  2.2183
 7137TIP3   OH242825   3.154   5.152   2.126 -0.0412  0.2286 -0.4179
 7137TIP3    H142826   3.147   5.224   2.189  0.9452  0.2822 -0.3542
 7137TIP3    H242827   3.216   5.184   2.061 -0.0380 -0.3453 -0.6968
 7138TIP3   OH242828   5.607   0.654  11.077  0.2181  0.4999 -0.0980
 7138TIP3    H142829   5.623   0.595  11.003  1.2797  0.2866  0.2921
 7138TIP3    H242830   5.660   0.731  11.057  1.2783  0.0379  0.9256
 7139TIP3   OH242831   0.077   0.422   3.329 -0.2567 -0.1065 -0.0105
 7139TIP3    H142832   0.049   0.348   3.275 -1.2569 -1.0716  1.8090
 7139TIP3    H242833   0.172   0.417   3.329 -0.2343 -0.0447 -1.7385
 7140TIP3   OH242834   2.667   3.097   2.514  0.6265 -0.2499  0.2054
 7140TIP3    H142835   2.668   3.012   2.470 -0.8090  0.3205 -0.9424
 7140TIP3    H242836   2.590   3.094   2.571  0.4482  0.3674  0.0013
 7141TIP3   OH242837   5.855   0.033  16.695 -0.3016  0.2820  0.0670
 7141TIP3    H142838   5.764   0.063  16.689 -0.1199  0.9233  0.4604
 7141TIP3    H242839   5.906   0.101  16.652  0.1345  0.6469  1.1377
 7142TIP3   OH242840   3.727   1.027  17.078 -0.1996  0.0660  0.4066
 7142TIP3    H142841   3.660   1.051  17.142 -1.5061  0.0416 -0.9187
 7142TIP3    H242842   3.806   1.013  17.130 -1.1997  0.1750  1.9935
 7143TIP3   OH242843   2.883   3.129   2.729  0.1666 -0.0317  0.5210
 7143TIP3    H142844   2.855   3.149   2.818 -1.3022  0.6727 -0.0749
 7143TIP3    H242845   2.801   3.126   2.679  1.0393  0.4765 -0.9652
 7144TIP3   OH242846   6.023   6.427   1.627  0.0829 -0.1004  0.0774
 7144TIP3    H142847   6.035   6.522   1.625 -0.7668  0.0117  0.1597
 7144TIP3    H242848   6.039   6.400   1.536  1.8591 -0.0814  0.3669
 7145TIP3   OH242849   3.022   4.633   2.990  0.3921 -0.3253 -0.0190
 7145TIP3    H142850   2.992   4.542   2.997  1.0029 -0.5190  0.0928
 7145TIP3    H242851   3.052   4.655   3.078 -1.6454  0.6567  0.4644
 7146TIP3   OH242852   1.386   3.886   3.008 -0.6686  0.2595  0.6837
 7146TIP3    H142853   1.308   3.941   3.002 -1.2902 -0.7476 -0.6245
 7146TIP3    H242854   1.369   3.813   2.950  1.5673  0.4179 -0.2403
 7147TIP3   OH242855   2.251   5.237   3.049  0.1724  0.5162  0.5256
 7147TIP3    H142856   2.204   5.285   2.981  2.6167  0.9328 -0.8917
 7147TIP3    H242857   2.237   5.145   3.028  0.2284  0.6363 -0.0277
 7148TIP3   OH242858   6.133   3.826  15.072 -0.3695 -0.1808 -0.6301
 7148TIP3    H142859   6.116   3.837  15.165 -0.5263  0.6720 -0.7553
 7148TIP3    H242860   6.079   3.751  15.046 -0.6302 -0.1674 -0.1260
 7149TIP3   OH242861   6.063   6.302  15.398  0.2252  0.2691  0.5418
 7149TIP3    H142862   6.000   6.242  15.359  0.6286  0.4110 -0.3347
 7149TIP3    H242863   6.130   6.246  15.436 -0.2785  0.1252  1.2255
 7150TIP3   OH242864   3.791   0.436   5.836 -0.2935  0.1910  1.1130
 7150TIP3    H142865   3.830   0.418   5.750 -0.4962 -2.6871  1.5792
 7150TIP3    H242866   3.801   0.531   5.847  0.7472  0.4527 -1.5818
 7151TIP3   OH242867   4.396   2.381   2.228 -0.0889  0.1747  0.1025
 7151TIP3    H142868   4.452   2.448   2.189  1.3505 -1.7099 -1.1837
 7151TIP3    H242869   4.314   2.386   2.179  0.6582 -0.2014 -1.1984
 7152TIP3   OH242870   0.645   4.161  12.358 -0.0691 -0.2505  0.1099
 7152TIP3    H142871   0.593   4.227  12.312  1.6485  0.0388 -1.4761
 7152TIP3    H242872   0.622   4.079  12.315  0.2905 -0.2185 -0.1399
 7153TIP3   OH242873   5.575   3.101  13.389  0.0089  0.2915  0.3201
 7153TIP3    H142874   5.591   3.066  13.301  0.0907  0.3101  0.3277
 7153TIP3    H242875   5.562   3.023  13.443 -0.9164  0.3101  0.1218
 7154TIP3   OH242876   0.160   5.458  14.468  0.3824  0.4435  0.4961
 7154TIP3    H142877   0.251   5.439  14.445 -0.1000  0.4302 -1.4976
 7154TIP3    H242878   0.166   5.521  14.540  1.9533  0.2917  0.5275
 7155TIP3   OH242879   2.774   4.025   4.397  0.0896 -0.2004 -0.1280
 7155TIP3    H142880   2.711   4.010   4.326 -1.5042 -4.7543  2.0180
 7155TIP3    H242881   2.816   3.940   4.410  2.1939  1.1804  2.6459
 7156TIP3   OH242882   0.490   0.825  14.071  0.4371 -0.1501 -0.3834
 7156TIP3    H142883   0.516   0.741  14.108 -0.0014 -0.1561 -0.0902
 7156TIP3    H242884   0.486   0.885  14.146 -2.1626 -0.5806 -0.1400
 7157TIP3   OH242885   2.075   6.185   3.223  0.6332  0.0662 -0.0067
 7157TIP3    H142886   2.138   6.224   3.163 -0.7828  3.3468  0.4902
 7157TIP3    H242887   1.991   6.192   3.177  0.0865 -0.7439  0.8488
 7158TIP3   OH242888   1.524   5.695   6.471  0.0585 -0.3085  0.1818
 7158TIP3    H142889   1.439   5.651   6.470 -0.0838 -0.1669  2.5564
 7158TIP3    H242890   1.581   5.635   6.518  0.9779  0.1492 -0.3304
 7159TIP3   OH242891   4.421   1.629  14.616 -0.0649 -0.5866  0.0162
 7159TIP3    H142892   4.354   1.650  14.551  0.1099 -2.3668 -0.7754
 7159TIP3    H242893   4.498   1.603  14.564  1.3853  1.7835  0.9105
 7160TIP3   OH242894   2.600   4.726   3.928  0.1115  0.1499 -0.7622
 7160TIP3    H142895   2.525   4.747   3.872 -0.6971  1.7393  0.8381
 7160TIP3    H242896   2.639   4.649   3.888  0.1980  1.7961 -4.1050
 7161TIP3   OH242897   5.688   6.729   1.229  0.2982 -0.5245 -0.4876
 7161TIP3    H142898   5.764   6.777   1.262 -0.0664 -0.3976  0.1671
 7161TIP3    H242899   5.682   6.652   1.285  0.8729 -1.3538 -1.5269
 7162TIP3   OH242900   2.540   4.488  11.902 -0.3523  0.1515  0.2397
 7162TIP3    H142901   2.452   4.526  11.897 -0.8288 -0.7822  1.2760
 7162TIP3    H242902   2.530   4.412  11.960  0.7550 -1.0526 -1.1163
 7163TIP3   OH242903   6.082   3.307   4.258  0.0229 -0.6640 -0.0491
 7163TIP3    H142904   6.035   3.229   4.285  0.2371 -1.2240 -1.2844
 7163TIP3    H242905   6.015   3.375   4.253 -0.5830 -1.3264 -1.2415
 7164TIP3   OH242906   4.986   5.494  10.937  0.2194  0.3584  0.1375
 7164TIP3    H142907   4.991   5.590  10.934  0.1303  0.3856  0.7887
 7164TIP3    H242908   4.988   5.473  11.030 -0.5587 -0.2297  0.0282
 7165TIP3   OH242909   6.304   0.434   0.305  0.1476 -0.0591  0.0238
 7165TIP3    H142910   6.231   0.387   0.265 -0.7951  0.6317  0.9053
 7165TIP3    H242911   6.382   0.382   0.282 -0.7518 -1.4351  0.0603
 7166TIP3   OH242912   4.315   3.338   1.233  0.3570 -0.2388 -0.0508
 7166TIP3    H142913   4.272   3.267   1.282 -0.3884  0.5768  0.4979
 7166TIP3    H242914   4.354   3.393   1.301  1.2693 -0.3333 -0.4995
 7167TIP3   OH242915   4.454   0.889  13.510  0.0465 -0.6570 -0.9404
 7167TIP3    H142916   4.395   0.944  13.459 -0.3559  1.6911  1.8731
 7167TIP3    H242917   4.530   0.876  13.454 -1.0479  0.4586 -2.7352
 7168TIP3   OH242918   3.073   2.410  13.014 -0.7253  0.6710  1.5320
 7168TIP3    H142919   3.011   2.432  12.945 -0.3488  1.8506  1.5612
 7168TIP3    H242920   3.112   2.328  12.985  1.2750  2.4208 -0.9672
 7169TIP3   OH242921   1.356   1.432  17.189  0.1824  0.4174 -0.0552
 7169TIP3    H142922   1.333   1.381  17.268  0.7497  0.4382  0.1201
 7169TIP3    H242923   1.375   1.366  17.123  1.4759  0.3976  0.3308
 7170TIP3   OH242924   1.906   5.662  12.127  0.1896  0.1581 -0.0764
 7170TIP3    H142925   1.905   5.705  12.212  0.2407 -0.2370  0.1246
 7170TIP3    H242926   1.816   5.630  12.116  0.4538 -0.7321  0.3130
 7171TIP3   OH242927   6.395   0.381  14.630  0.1189  0.4474 -0.2791
 7171TIP3    H142928   6.389   0.414  14.540  0.2400 -0.1966 -0.5284
 7171TIP3    H242929   6.368   0.455  14.685 -0.0808  0.8028 -0.8529
 7172TIP3   OH242930   1.283   1.267  15.366  0.1684 -0.5625  0.3475
 7172TIP3    H142931   1.294   1.325  15.441  1.3572 -1.8710  1.2310
 7172TIP3    H242932   1.364   1.217  15.362  0.2130 -0.3664 -1.9688
 7173TIP3   OH242933   4.400   4.469   1.072  0.0050 -0.2307 -0.5124
 7173TIP3    H142934   4.463   4.514   1.016 -0.7188  0.3928 -0.8447
 7173TIP3    H242935   4.315   4.497   1.038 -0.4467 -1.1423 -0.1380
 7174TIP3   OH242936   1.397   5.497  17.225 -0.2017 -0.5760  0.0694
 7174TIP3    H142937   1.411   5.415  17.178  3.5503  0.4688 -0.7424
 7174TIP3    H242938   1.395   5.564  17.157 -0.6615  0.3008  0.9324
 7175TIP3   OH242939   0.216   4.181   3.374 -0.3180  0.2780 -0.3920
 7175TIP3    H142940   0.263   4.262   3.394 -0.9379  0.1684  1.6277
 7175TIP3    H242941   0.251   4.153   3.290 -0.4398  2.8969 -1.3756
 7176TIP3   OH242942   2.528   4.837   1.470  0.4405 -0.3473 -0.8223
 7176TIP3    H142943   2.528   4.858   1.564  0.1620 -0.7711 -0.7249
 7176TIP3    H242944   2.619   4.815   1.450  0.4038 -0.7876 -0.5260
 7177TIP3   OH242945   6.420   0.677   6.109  0.1728 -0.2823  0.6743
 7177TIP3    H142946   6.467   0.598   6.081  0.6351 -0.3411  1.6119
 7177TIP3    H242947   6.328   0.654   6.100  0.3034 -1.0092  1.1700
 7178TIP3   OH242948   6.375   2.272   3.310 -0.1974  0.2737  0.3760
 7178TIP3    H142949   6.396   2.324   3.233  0.4109 -1.9040 -0.9699
 7178TIP3    H242950   6.279   2.263   3.307 -0.3199  1.4235  0.7056
 7179TIP3   OH242951   6.282   2.426   5.052 -0.3501  0.1008  0.3299
 7179TIP3    H142952   6.243   2.346   5.018 -0.1690 -0.0034  0.3667
 7179TIP3    H242953   6.291   2.410   5.146  3.0393 -1.2820 -0.1303
 7180TIP3   OH242954   1.059   4.427   3.330 -0.4276 -0.0515  0.1159
 7180TIP3    H142955   1.121   4.498   3.344 -3.0786  2.0053  2.1285
 7180TIP3    H242956   1.059   4.378   3.412 -0.7467 -0.6300 -0.2232
 7181TIP3   OH242957   4.843   2.675   1.393 -0.2607 -0.0429  1.0309
 7181TIP3    H142958   4.899   2.660   1.317 -0.7113 -1.8050  1.0046
 7181TIP3    H242959   4.817   2.766   1.387 -0.2951 -0.1721 -0.9355
 7182TIP3   OH242960   5.885   0.227  14.588  0.6706 -0.0174  0.6911
 7182TIP3    H142961   5.816   0.161  14.589  0.4845  0.1200 -1.6578
 7182TIP3    H242962   5.963   0.179  14.560  1.1510  0.1894  1.6643
 7183TIP3   OH242963   6.322   5.330  16.361  0.5251 -0.6877 -0.5990
 7183TIP3    H142964   6.350   5.271  16.431  0.6417 -0.0023 -0.0607
 7183TIP3    H242965   6.286   5.406  16.407  0.5239 -0.2677 -1.2865
 7184TIP3   OH242966   4.606   1.123   3.423  0.2714 -1.2770 -0.3803
 7184TIP3    H142967   4.646   1.037   3.419  2.7900 -0.2452  1.5114
 7184TIP3    H242968   4.546   1.118   3.498  2.0401 -0.7870  1.1176
 7185TIP3   OH242969   5.276   4.234  11.111  0.4964  0.7734 -0.0406
 7185TIP3    H142970   5.283   4.226  11.206  2.9419 -0.2181 -0.2760
 7185TIP3    H242971   5.268   4.328  11.095 -1.2905  0.8596  1.1920
 7186TIP3   OH242972   1.824   5.598   3.696  0.0405  0.0904  0.4134
 7186TIP3    H142973   1.902   5.653   3.684 -0.4240  0.7559  0.4116
 7186TIP3    H242974   1.772   5.645   3.761 -0.5656 -0.1378  0.0974
 7187TIP3   OH242975   1.669   3.085   0.873  0.4911  0.0066  0.0584
 7187TIP3    H142976   1.757   3.069   0.908 -0.3085 -1.5661  1.4097
 7187TIP3    H242977   1.634   3.155   0.928  1.2600  1.3396 -1.1298
 7188TIP3   OH242978   3.602   0.926   0.890 -0.1822  0.5439 -0.3035
 7188TIP3    H142979   3.542   0.953   0.820  1.1455  2.2071 -0.8174
 7188TIP3    H242980   3.607   0.831   0.881 -1.1234  0.5932 -1.5780
 7189TIP3   OH242981   3.850   1.553   2.172 -0.3561 -0.2852 -0.1641
 7189TIP3    H142982   3.828   1.646   2.166 -0.4775 -0.2840  0.2332
 7189TIP3    H242983   3.878   1.529   2.084  2.8057  0.8878  0.4800
 7190TIP3   OH242984   1.299   0.540   4.085  0.2888 -0.2754 -0.1049
 7190TIP3    H142985   1.325   0.571   3.999  0.5868  1.5195  0.6169
 7190TIP3    H242986   1.379   0.503   4.122  0.4276 -0.0357 -0.1632
 7191TIP3   OH242987   0.491   1.100   5.850 -0.2880 -0.1801  0.2723
 7191TIP3    H142988   0.478   1.016   5.893 -2.1468 -0.1009 -0.0982
 7191TIP3    H242989   0.582   1.098   5.821 -0.6223 -2.5675 -0.7629
 7192TIP3   OH242990   1.612   0.608  12.182 -0.3677  0.3443 -0.0184
 7192TIP3    H142991   1.574   0.578  12.265 -3.2542  0.9917 -1.0456
 7192TIP3    H242992   1.623   0.702  12.194  0.4510  0.2399  0.0802
 7193TIP3   OH242993   4.030   4.230  12.542 -0.0642 -0.1243 -0.1235
 7193TIP3    H142994   4.031   4.251  12.449 -1.6631  2.0156  0.2995
 7193TIP3    H242995   4.082   4.299  12.583  0.4458 -0.9302  0.6110
 7194TIP3   OH242996   6.160   4.881  12.814 -0.2157 -0.5715  0.1458
 7194TIP3    H142997   6.248   4.910  12.836 -0.6499 -0.0490  1.2328
 7194TIP3    H242998   6.171   4.824  12.737  0.9573  0.1619 -0.2305
 7195TIP3   OH242999   4.738   2.222   1.716  0.7817  0.3588  0.1978
 7195TIP3    H143000   4.818   2.254   1.758  1.5772 -1.3515  0.0413
 7195TIP3    H243001   4.683   2.299   1.705  2.9735  1.8111 -0.9092
 7196TIP3   OH243002   2.375   5.059  10.498 -0.9006 -0.0458  0.0694
 7196TIP3    H143003   2.399   5.120  10.567  0.2248  0.7693 -1.0097
 7196TIP3    H243004   2.291   5.093  10.464 -0.1659  1.0685 -0.6859
 7197TIP3   OH243005   1.154   6.776  12.216 -0.5263  0.0733  0.2437
 7197TIP3    H143006   1.097   6.728  12.156  0.9418 -0.5627 -0.6850
 7197TIP3    H243007   1.133   6.868  12.202 -0.3998 -0.0896 -1.0647
 7198TIP3   OH243008   4.862   5.521  13.362  0.2998 -0.8482  0.4171
 7198TIP3    H143009   4.823   5.457  13.422 -0.8622 -0.6509 -0.1143
 7198TIP3    H243010   4.788   5.556  13.313  0.7619  1.9363  1.6483
 7199TIP3   OH243011   2.562   2.154  16.199 -0.5099 -0.1316  0.3402
 7199TIP3    H143012   2.575   2.239  16.157  0.2665  0.0675  0.9838
 7199TIP3    H243013   2.609   2.160  16.282 -0.3768 -1.2170  0.3560
 7200TIP3   OH243014   5.223   3.560  13.761  0.3314  0.1532 -0.1256
 7200TIP3    H143015   5.224   3.482  13.706  2.9016  1.6772 -2.3684
 7200TIP3    H243016   5.262   3.532  13.844  0.1089 -1.2402 -0.4964
 7201TIP3   OH243017   0.369   6.255  11.738 -0.0075 -0.1794  0.2271
 7201TIP3    H143018   0.386   6.199  11.662  1.6080  1.7268 -0.8443
 7201TIP3    H243019   0.449   6.250  11.790  0.2312  1.2607  0.0192
 7202TIP3   OH243020   0.536   1.757  10.407 -0.0085 -0.0800  0.2801
 7202TIP3    H143021   0.590   1.826  10.447 -0.6605 -0.5033  1.9648
 7202TIP3    H243022   0.447   1.792  10.408 -0.5204 -1.2887  2.1159
 7203TIP3   OH243023   4.427   4.369   1.333 -0.5440 -0.3057 -0.4613
 7203TIP3    H143024   4.380   4.437   1.380 -0.1358  0.1674 -0.7275
 7203TIP3    H243025   4.412   4.389   1.240 -0.3053 -0.4897 -0.5425
 7204TIP3   OH243026   1.415   6.548   0.820 -0.3471 -0.1078 -0.0159
 7204TIP3    H143027   1.405   6.468   0.871 -0.2812  1.6602  2.9053
 7204TIP3    H243028   1.507   6.550   0.795 -0.1929 -0.5615  0.5220
 7205TIP3   OH243029   6.231   3.835  13.705  0.0804  0.1051  0.4949
 7205TIP3    H143030   6.289   3.856  13.778  1.3607 -0.5239 -0.3169
 7205TIP3    H243031   6.165   3.905  13.705  1.0468  1.0207  1.2162
 7206TIP3   OH243032   4.270   1.212  11.895 -0.2713 -0.4118 -0.6499
 7206TIP3    H143033   4.256   1.192  11.988 -0.1708 -0.8870 -0.7353
 7206TIP3    H243034   4.182   1.227  11.861 -0.2918 -0.0415 -0.4314
 7207TIP3   OH243035   3.644   1.500  14.081  0.7886  0.0293  0.7105
 7207TIP3    H143036   3.706   1.433  14.053 -1.7340 -2.0612 -0.0670
 7207TIP3    H243037   3.616   1.543  14.000  1.1185  0.8652  1.0368
 7208TIP3   OH243038   6.023   3.665   3.978 -0.0435 -0.7625  0.4951
 7208TIP3    H143039   5.986   3.674   3.890  2.4860  0.6927 -0.4896
 7208TIP3    H243040   5.999   3.746   4.022 -2.2328 -1.9457  1.5606
 7209TIP3   OH243041   1.787   4.143   2.023 -0.0988  0.1927 -0.2055
 7209TIP3    H143042   1.877   4.175   2.017  0.3452 -0.7367  1.1832
 7209TIP3    H243043   1.735   4.207   1.974  1.3221  0.6921 -1.1023
 7210TIP3   OH243044   4.774   1.623   3.632  0.5670 -0.5777  0.3420
 7210TIP3    H143045   4.742   1.645   3.720 -0.3294 -2.3548  0.4862
 7210TIP3    H243046   4.695   1.600   3.583  1.1094  0.0097 -0.8129
 7211TIP3   OH243047   0.692   1.311  15.428  0.0485 -0.1355 -0.1512
 7211TIP3    H143048   0.620   1.347  15.479  0.1105 -1.4580  0.9027
 7211TIP3    H243049   0.771   1.350  15.467 -0.0192  0.4603 -0.5978
 7212TIP3   OH243050   0.902   3.930   2.041  0.1291 -0.6777 -0.5340
 7212TIP3    H143051   0.884   3.852   2.093 -0.1505 -1.8485 -2.3476
 7212TIP3    H243052   0.884   3.904   1.951  1.6245  0.9821 -1.3569
 7213TIP3   OH243053   3.444   5.613  13.087 -0.0711  0.4948  0.2892
 7213TIP3    H143054   3.422   5.601  12.995 -0.8220 -2.2065  0.7747
 7213TIP3    H243055   3.529   5.570  13.097  0.7621  2.1769  0.5334
 7214TIP3   OH243056   6.516   5.773   4.378  0.1514  0.3083  0.5135
 7214TIP3    H143057   6.538   5.704   4.441 -1.1676 -0.7614 -0.1826
 7214TIP3    H243058   6.427   5.799   4.400  0.8054  2.1452  1.0695
 7215TIP3   OH243059   5.056   5.092  11.839 -0.1920 -0.0148  0.2175
 7215TIP3    H143060   5.021   5.144  11.911 -0.9357  0.2723 -0.3414
 7215TIP3    H243061   5.095   5.156  11.779  1.0444 -0.3089  0.6936
 7216TIP3   OH243062   1.344   3.815   0.094 -0.2301 -0.5616 -0.0045
 7216TIP3    H143063   1.318   3.898   0.133  0.4218 -0.8532  1.0683
 7216TIP3    H243064   1.437   3.825   0.076 -0.6932 -0.1214 -2.3067
 7217TIP3   OH243065   2.071   3.161   4.548 -0.1440 -0.6358 -0.7569
 7217TIP3    H143066   2.050   3.159   4.642  0.3534  0.9484 -0.6031
 7217TIP3    H243067   2.054   3.252   4.522  2.2109 -0.4348 -1.6307
 7218TIP3   OH243068   4.296   0.523  16.256 -0.4333 -0.0202  0.2084
 7218TIP3    H143069   4.237   0.477  16.315  1.4794 -1.4458  1.0757
 7218TIP3    H243070   4.308   0.609  16.296 -2.3896  0.5340 -0.3270
 7219TIP3   OH243071   0.866   3.787   2.991  0.0546 -0.1724 -0.7713
 7219TIP3    H143072   0.853   3.731   3.067  1.0496  0.7312  0.0837
 7219TIP3    H243073   0.839   3.733   2.916 -0.5353 -1.2093  0.1774
 7220TIP3   OH243074   3.573   3.244  15.840  0.7228 -0.2195 -0.0197
 7220TIP3    H143075   3.661   3.242  15.802  1.1178  1.6577  0.7254
 7220TIP3    H243076   3.527   3.311  15.788 -0.3536 -1.3918 -0.5843
 7221TIP3   OH243077   6.767   6.382  13.327 -0.5029 -0.5693  0.1107
 7221TIP3    H143078   6.852   6.347  13.353  0.3181  0.6744 -0.8357
 7221TIP3    H243079   6.712   6.305  13.316  1.0819 -1.5397 -1.2856
 7222TIP3   OH243080   5.906   6.708   2.425 -0.3070 -0.2456 -0.0315
 7222TIP3    H143081   5.961   6.637   2.456  0.2904 -0.2656 -1.0906
 7222TIP3    H243082   5.959   6.752   2.357 -0.9770  0.7000  0.0392
 7223TIP3   OH243083   4.108   6.235   2.483  0.2611 -0.3402  0.1494
 7223TIP3    H143084   4.075   6.240   2.572 -0.6888 -0.2549 -0.2035
 7223TIP3    H243085   4.034   6.204   2.431  0.5709  0.3777 -0.7360
 7224TIP3   OH243086   0.338   5.532  13.357 -0.3529  0.0351 -0.3675
 7224TIP3    H143087   0.332   5.479  13.278 -0.3461 -0.8039  0.1953
 7224TIP3    H243088   0.394   5.606  13.332  1.1207 -1.1638 -0.6330
 7225TIP3   OH243089   3.813   1.671  15.720 -0.5534 -0.4677  0.0538
 7225TIP3    H143090   3.884   1.655  15.782 -0.1737  0.8723 -0.0067
 7225TIP3    H243091   3.857   1.701  15.640 -1.1105 -0.9752 -0.4502
 7226TIP3   OH243092   3.532   2.336   2.110  0.2988  0.0381 -0.6591
 7226TIP3    H143093   3.439   2.322   2.132  0.1348  1.7161 -0.2195
 7226TIP3    H243094   3.535   2.331   2.015 -0.4692  1.2055 -0.7544
 7227TIP3   OH243095   5.098   5.727   3.727  0.3133 -0.1571 -0.0468
 7227TIP3    H143096   5.022   5.718   3.669  0.1919 -0.4804  0.1627
 7227TIP3    H243097   5.145   5.644   3.718 -0.0748 -0.4806  0.8452
 7228TIP3   OH243098   1.560   5.561   5.129 -0.1592 -0.2349  0.0680
 7228TIP3    H143099   1.591   5.615   5.202  1.3138 -2.1125  0.8553
 7228TIP3    H243100   1.634   5.558   5.069 -1.6178  1.9491 -1.9495
 7229TIP3   OH243101   5.407   3.320  15.239  0.3016  0.2762  0.0644
 7229TIP3    H143102   5.437   3.375  15.166 -2.2945  1.4739 -0.1614
 7229TIP3    H243103   5.412   3.376  15.316 -1.1734  0.4507  0.0466
 7230TIP3   OH243104   6.102   3.520   5.888  0.0023  0.5270  0.0835
 7230TIP3    H143105   6.089   3.496   5.980  1.0165  0.7860  0.3032
 7230TIP3    H243106   6.031   3.582   5.869 -1.5791 -1.2490  0.0109
 7231TIP3   OH243107   6.299   0.026  16.953 -0.1942 -0.0044 -0.0929
 7231TIP3    H143108   6.369   0.085  16.982  0.1710 -0.0959 -0.7810
 7231TIP3    H243109   6.315  -0.055  17.003  0.3355 -0.1067 -0.4258
 7232TIP3   OH243110   4.535   2.957  15.738  0.1011  0.0996  0.2593
 7232TIP3    H143111   4.630   2.968  15.736  0.2574 -0.0336  3.6588
 7232TIP3    H243112   4.501   3.044  15.757 -0.4516  0.0962 -0.6867
 7233TIP3   OH243113   2.095   6.626   0.502 -0.5841  0.0471  0.6239
 7233TIP3    H143114   2.092   6.562   0.430  0.3443  0.3896  0.2757
 7233TIP3    H243115   2.086   6.711   0.458 -1.4942  0.1788  1.0561
 7234TIP3   OH243116   4.755   2.885   6.103  0.2189  0.2835 -0.4432
 7234TIP3    H143117   4.732   2.792   6.106 -0.8851  0.5575 -0.3242
 7234TIP3    H243118   4.671   2.930   6.096  0.8918  1.1545 -3.4446
 7235TIP3   OH243119   0.496   5.568   2.207 -0.6509 -0.0877 -0.2169
 7235TIP3    H143120   0.533   5.503   2.148 -1.0341 -1.3929  0.9622
 7235TIP3    H243121   0.528   5.652   2.174  1.6165 -1.0359 -0.4820
 7236TIP3   OH243122   2.584   6.248  14.186 -0.3468 -0.1399  0.1120
 7236TIP3    H143123   2.498   6.213  14.163 -0.5373  1.0413 -1.0694
 7236TIP3    H243124   2.639   6.228  14.110 -0.0209  0.5780  0.1511
 7237TIP3   OH243125   4.926   2.261   1.905  0.3027 -0.5013 -0.2896
 7237TIP3    H143126   4.983   2.294   1.836  1.0572 -0.1773  0.4741
 7237TIP3    H243127   4.935   2.324   1.976 -1.3366 -0.2359 -0.3119
 7238TIP3   OH243128   2.004   2.614  12.641  0.0775 -0.1450 -0.0665
 7238TIP3    H143129   1.966   2.526  12.641  0.7376 -0.4344  0.2192
 7238TIP3    H243130   2.030   2.628  12.733  0.7172  0.0222 -0.2711
 7239TIP3   OH243131   5.359   2.976   2.228  0.7779 -0.1287 -0.4601
 7239TIP3    H143132   5.325   2.990   2.139  1.9311  1.4250 -0.6743
 7239TIP3    H243133   5.282   2.982   2.284  0.1453 -0.3980 -1.2805
 7240TIP3   OH243134   4.530   1.993   4.999 -0.0550 -0.1288  0.1177
 7240TIP3    H143135   4.458   1.940   4.964  1.3150 -2.0129  0.1310
 7240TIP3    H243136   4.525   2.075   4.948 -0.8635 -1.0878 -1.3957
 7241TIP3   OH243137   0.584   5.230  13.408  0.2507 -0.9518  0.1303
 7241TIP3    H143138   0.514   5.292  13.429  0.8860  0.0870 -0.7200
 7241TIP3    H243139   0.657   5.256  13.464  1.0778  0.1728 -1.4080
 7242TIP3   OH243140   3.919   6.117   4.663  0.3545 -0.0077  0.1164
 7242TIP3    H143141   3.852   6.066   4.707  0.0752  0.8004  0.6315
 7242TIP3    H243142   4.002   6.080   4.694  0.1567 -0.8694 -0.3649
 7243TIP3   OH243143   0.903   1.086  11.146  0.4026  0.2194  0.0679
 7243TIP3    H143144   0.961   1.139  11.200 -0.1291  1.3126 -0.4124
 7243TIP3    H243145   0.825   1.072  11.200  0.4797  0.0670  0.1375
 7244TIP3   OH243146   1.707   6.539  16.572 -0.1681 -0.2202 -0.3605
 7244TIP3    H143147   1.647   6.609  16.548  1.3934  1.3432  0.1440
 7244TIP3    H243148   1.662   6.492  16.642  0.4902  2.9483  2.3435
 7245TIP3   OH243149   4.917   6.527   0.436  0.0829 -0.0774 -0.3671
 7245TIP3    H143150   4.993   6.554   0.384 -0.3520  0.0254 -0.9584
 7245TIP3    H243151   4.847   6.517   0.371 -0.1234 -1.2447  0.0327
 7246TIP3   OH243152   0.245   0.544   4.811 -0.2725 -0.2824 -0.0740
 7246TIP3    H143153   0.256   0.600   4.888  1.2950 -0.2756 -0.2795
 7246TIP3    H243154   0.153   0.518   4.813 -0.8531  1.7474  0.4101
 7247TIP3   OH243155   6.261   5.923  14.616  0.0571 -0.0826 -0.0905
 7247TIP3    H143156   6.348   5.957  14.636  0.2970 -0.7558  0.0042
 7247TIP3    H243157   6.201   5.983  14.662  0.5975 -1.8907  3.1336
 7248TIP3   OH243158   4.886   0.948  10.756  0.3665  0.6303 -0.4305
 7248TIP3    H143159   4.810   0.937  10.814 -0.0149  2.6714 -0.5130
 7248TIP3    H243160   4.962   0.930  10.812 -0.0256  1.9857  0.5681
 7249TIP3   OH243161   0.110   5.643   0.932  0.3685  0.1456  0.5982
 7249TIP3    H143162   0.037   5.698   0.905  1.2442  0.7515 -0.5525
 7249TIP3    H243163   0.068   5.564   0.967 -0.8715  1.1813  1.5026
 7250TIP3   OH243164   2.095   4.903  13.996  0.2657  0.0304  0.6522
 7250TIP3    H143165   2.186   4.873  13.995  0.4821  0.6744  0.8908
 7250TIP3    H243166   2.055   4.858  14.071 -0.0231 -1.4306 -0.3508
 7251TIP3   OH243167   6.164   3.753  14.010  0.2257  0.0997 -0.3280
 7251TIP3    H143168   6.159   3.848  14.018 -1.3274  0.1280 -1.5804
 7251TIP3    H243169   6.167   3.722  14.101 -1.1391  1.2410  0.1222
 7252TIP3   OH243170   1.710   5.826   0.167  0.4027  0.2004 -0.4677
 7252TIP3    H143171   1.713   5.874   0.250  0.1420  1.5136 -1.2044
 7252TIP3    H243172   1.694   5.735   0.192  1.5555  0.3823  0.9857
 7253TIP3   OH243173   4.875   4.186  16.055  0.1275  0.2816 -0.0730
 7253TIP3    H143174   4.869   4.221  16.144  0.9085  0.7828 -0.2090
 7253TIP3    H243175   4.922   4.254  16.006 -0.0037 -0.1429 -0.7846
 7254TIP3   OH243176   6.359   3.361   4.307 -0.0301 -0.6969 -0.0471
 7254TIP3    H143177   6.269   3.334   4.289 -0.4727  0.8821 -0.3051
 7254TIP3    H243178   6.358   3.387   4.399  0.3010 -1.1772  0.0956
 7255TIP3   OH243179   2.736   5.026  12.758 -0.2177 -0.4175  0.6848
 7255TIP3    H143180   2.760   4.942  12.719  2.3253 -0.1771  1.6179
 7255TIP3    H243181   2.708   5.004  12.847 -3.8034 -0.7155 -0.4642
 7256TIP3   OH243182   4.504   3.485  14.205  0.0817  0.2127  0.1402
 7256TIP3    H143183   4.515   3.427  14.130  0.5174 -0.7519  0.9298
 7256TIP3    H243184   4.580   3.543  14.202  0.5253 -0.3578  0.2952
 7257TIP3   OH243185   6.570   6.318   1.784  0.0074 -0.0463  0.3801
 7257TIP3    H143186   6.647   6.365   1.753  0.9932 -2.2699 -0.5970
 7257TIP3    H243187   6.601   6.230   1.806 -1.5848  0.0002  3.1977
 7258TIP3   OH243188   1.014   1.380  14.322 -0.2892 -0.3935  0.3780
 7258TIP3    H143189   1.041   1.290  14.342  0.9330 -0.0637  0.2683
 7258TIP3    H243190   0.931   1.371  14.275  0.3121 -1.5131 -0.4867
 7259TIP3   OH243191   2.294   4.586  16.259 -0.2700  0.2523  0.1490
 7259TIP3    H143192   2.224   4.538  16.303  0.3701  0.0227  0.9178
 7259TIP3    H243193   2.255   4.671  16.239 -0.3775  0.5759  1.6791
 7260TIP3   OH243194   6.597   1.456  11.041 -0.0430  1.0758  0.4667
 7260TIP3    H143195   6.576   1.413  10.957 -0.7106  2.2954 -0.0034
 7260TIP3    H243196   6.687   1.486  11.030  0.2277  0.3262  0.5803
 7261TIP3   OH243197   4.843   6.615  16.435 -0.0103  0.3069 -0.8572
 7261TIP3    H143198   4.913   6.679  16.445  0.8254 -0.6123 -0.6981
 7261TIP3    H243199   4.863   6.569  16.353 -1.2508  1.0263 -1.5803
 7262TIP3   OH243200   0.577   0.640  11.047 -0.1509 -0.4352  0.3658
 7262TIP3    H143201   0.669   0.625  11.070 -0.5673 -3.4757  0.2424
 7262TIP3    H243202   0.580   0.688  10.965  1.3513 -0.1674  0.5692
 7263TIP3   OH243203   2.971   6.756  15.891 -0.4626 -0.3548 -0.0898
 7263TIP3    H143204   2.956   6.688  15.825 -2.4558  0.5775 -0.6272
 7263TIP3    H243205   2.926   6.833  15.857  0.0164  0.6393  1.4999
 7264TIP3   OH243206   5.940   1.623   6.256  0.0635 -0.3379 -0.0416
 7264TIP3    H143207   5.860   1.656   6.298 -0.5140 -1.8527  0.0890
 7264TIP3    H243208   5.996   1.596   6.329  0.7776  0.8665 -0.1258
 7265TIP3   OH243209   0.897   0.096   0.291 -0.5046 -0.0789  0.0751
 7265TIP3    H143210   0.843   0.071   0.366 -1.1131  3.4218  0.8571
 7265TIP3    H243211   0.980   0.126   0.328 -0.5419  0.9991 -0.6775
 7266TIP3   OH243212   4.044   2.002   1.655 -0.3602  0.4491  0.1444
 7266TIP3    H143213   4.063   2.094   1.671 -1.1800  0.8809 -1.2485
 7266TIP3    H243214   4.079   1.985   1.567  0.8474 -0.8813  0.8592
 7267TIP3   OH243215   0.559   5.595  13.606 -0.2557 -0.0359  0.5705
 7267TIP3    H143216   0.532   5.649  13.532 -1.7274 -1.4240  0.0614
 7267TIP3    H243217   0.478   5.574  13.651  0.6446  0.8936  2.6695
 7268TIP3   OH243218   1.953   4.549   2.218 -0.5940  0.0078 -0.4217
 7268TIP3    H143219   1.909   4.627   2.186 -1.0424 -0.9081 -2.1015
 7268TIP3    H243220   1.886   4.480   2.214  0.4417 -0.9841 -1.2466
 7269TIP3   OH243221   5.308   0.052  11.860 -0.5178  0.3771 -0.2869
 7269TIP3    H143222   5.228   0.101  11.838 -0.3290  0.0070 -1.8621
 7269TIP3    H243223   5.363   0.060  11.782  0.0599 -1.2281 -0.0629
 7270TIP3   OH243224   5.429   1.889   1.297  0.3262 -0.4292  0.0651
 7270TIP3    H143225   5.381   1.889   1.380 -1.1462 -1.1019 -0.7850
 7270TIP3    H243226   5.490   1.815   1.305  0.0320 -0.6337  0.4435
 7271TIP3   OH243227   5.429   0.717   3.547 -0.2945 -0.0149  0.1868
 7271TIP3    H143228   5.344   0.732   3.588 -0.1167 -1.1285  1.0086
 7271TIP3    H243229   5.476   0.800   3.557 -1.5779  0.8706 -1.0181
 7272TIP3   OH243230   4.585   6.205  15.254 -0.2411 -0.6362 -0.0196
 7272TIP3    H143231   4.512   6.246  15.301 -0.7303 -1.9416  0.3776
 7272TIP3    H243232   4.548   6.183  15.168 -0.6739 -2.3482  0.5857
 7273TIP3   OH243233   6.374   4.329   2.378  0.1858 -0.5583  0.0651
 7273TIP3    H143234   6.445   4.315   2.316 -0.4172  0.8416 -0.9727
 7273TIP3    H243235   6.417   4.364   2.456  0.4910  2.0630 -1.2074
 7274TIP3   OH243236   1.555   0.847  13.402  0.5934  0.3363 -0.1484
 7274TIP3    H143237   1.564   0.764  13.449  1.5304  0.6261  0.1932
 7274TIP3    H243238   1.545   0.822  13.310  0.8955 -0.1489 -0.0482
 7275TIP3   OH243239   2.080   3.408   5.233  0.1511 -0.0710 -0.2801
 7275TIP3    H143240   2.154   3.379   5.288 -0.4449 -1.1845 -0.0385
 7275TIP3    H243241   2.055   3.492   5.270  0.7360 -0.0980  0.1984
 7276TIP3   OH243242   1.376   4.948  16.768 -0.0478 -0.2201  0.3867
 7276TIP3    H143243   1.368   4.886  16.841 -0.1921  0.5763  1.0584
 7276TIP3    H243244   1.314   5.018  16.789  0.8715  0.6744  0.1730
 7277TIP3   OH243245   4.911   5.799   1.500 -0.2761  0.0334 -0.3453
 7277TIP3    H143246   4.883   5.755   1.580  0.9452 -0.1403 -0.0142
 7277TIP3    H243247   4.982   5.856   1.527  1.9451 -1.9663 -1.7310
 7278TIP3   OH243248   0.534   3.268  15.629 -0.6217 -0.0054  0.4093
 7278TIP3    H143249   0.563   3.329  15.561 -0.0700 -0.0542  0.6006
 7278TIP3    H243250   0.470   3.212  15.584  0.3906 -0.6022 -0.3130
 7279TIP3   OH243251   6.472   1.269   4.639  0.2784 -0.0826 -0.2982
 7279TIP3    H143252   6.403   1.254   4.574  0.9996 -2.2995 -0.5921
 7279TIP3    H243253   6.431   1.249   4.723 -0.7155  2.9877 -0.0048
 7280TIP3   OH243254   5.065   3.804   0.518  0.2838 -0.1539  0.2958
 7280TIP3    H143255   5.147   3.803   0.567  0.6303 -0.2808 -0.2785
 7280TIP3    H243256   5.091   3.826   0.428 -0.3712  0.3536  0.2260
 7281TIP3   OH243257   1.165   4.028   2.078  0.1570  0.0267 -0.2303
 7281TIP3    H143258   1.080   4.002   2.043 -0.1697  2.5977 -1.4399
 7281TIP3    H243259   1.169   4.123   2.066  3.1166 -0.0058 -0.0283
 7282TIP3   OH243260   0.736   5.616   5.192 -0.6034 -0.3078  0.3448
 7282TIP3    H143261   0.802   5.667   5.145 -0.9557  1.0824  1.3194
 7282TIP3    H243262   0.654   5.661   5.175 -1.0880 -1.1706  0.3541
 7283TIP3   OH243263   2.428   2.633  16.165 -0.5436  0.5833  0.0584
 7283TIP3    H143264   2.361   2.569  16.140 -0.6784  0.9875 -0.6479
 7283TIP3    H243265   2.405   2.711  16.115 -0.1259  1.0412  0.5861
 7284TIP3   OH243266   0.840   6.076  17.048 -0.5714  0.0018  0.3510
 7284TIP3    H143267   0.914   6.041  17.097 -0.8988  1.4283  1.9051
 7284TIP3    H243268   0.789   5.999  17.023  0.2412 -0.8213  1.1792
 7285TIP3   OH243269   4.195   0.513   5.568 -0.2023  0.1085  0.0248
 7285TIP3    H143270   4.169   0.540   5.480 -0.5602 -1.3988 -0.3459
 7285TIP3    H243271   4.170   0.587   5.624 -1.6102  0.3612 -0.8926
 7286TIP3   OH243272   2.840   2.038   6.603 -0.1775 -0.2749 -0.2094
 7286TIP3    H143273   2.864   1.952   6.567 -0.4544 -0.0425 -0.9621
 7286TIP3    H243274   2.870   2.035   6.693  1.3585 -0.5334 -0.7186
 7287TIP3   OH243275   0.003   0.926   2.501  0.1703 -0.5422  0.2588
 7287TIP3    H143276   0.052   0.845   2.513  1.1976 -0.1270 -1.0366
 7287TIP3    H243277  -0.029   0.921   2.411 -2.8870 -1.1940  1.3289
 7288TIP3   OH243278   4.073   5.333   2.095  0.5879 -0.0244 -0.5115
 7288TIP3    H143279   4.062   5.376   2.010  2.3140  0.4089 -0.5293
 7288TIP3    H243280   4.008   5.373   2.151  0.5871  0.9098 -1.1784
 7289TIP3   OH243281   6.121   6.174  13.334  0.6579 -0.8129 -0.5198
 7289TIP3    H143282   6.129   6.169  13.430  4.2994  1.3460 -0.5982
 7289TIP3    H243283   6.212   6.172  13.303 -0.2832  1.9264 -3.7125
 7290TIP3   OH243284   6.047   0.284  15.781  0.0689  0.2730  0.6015
 7290TIP3    H143285   5.997   0.338  15.720  0.8747 -0.3113 -0.5714
 7290TIP3    H243286   6.024   0.319  15.867 -0.1644  1.8532 -0.0917
 7291TIP3   OH243287   6.299   4.311   3.269 -0.6283 -0.2402 -1.1631
 7291TIP3    H143288   6.339   4.370   3.334  0.3781  0.3688 -2.3166
 7291TIP3    H243289   6.282   4.367   3.193 -1.2789 -1.0703 -1.6389
 7292TIP3   OH243290   4.504   0.129  12.155  1.0226  0.0056  0.2218
 7292TIP3    H143291   4.474   0.115  12.065  0.2536  0.2800  0.4334
 7292TIP3    H243292   4.497   0.042  12.195  0.4502  0.0766  0.2859
 7293TIP3   OH243293   3.246   3.615  11.596 -0.0266 -0.0584  0.5012
 7293TIP3    H143294   3.175   3.586  11.538 -1.2419 -0.1143  1.9729
 7293TIP3    H243295   3.276   3.534  11.638  1.1599 -0.0816 -0.3751
 7294TIP3   OH243296   2.238   3.730  13.341  0.2188 -0.4220  0.2593
 7294TIP3    H143297   2.152   3.771  13.348  0.5299  0.2603  0.1346
 7294TIP3    H243298   2.266   3.718  13.432  1.9825  3.6152  0.3503
 7295TIP3   OH243299   1.059   1.578  12.700  0.2850 -0.3168 -0.5311
 7295TIP3    H143300   0.975   1.597  12.740  1.1163 -0.3591  1.2792
 7295TIP3    H243301   1.122   1.632  12.748  1.1327  0.6614 -2.6800
 7296TIP3   OH243302   1.974   0.871  11.642 -0.0364  0.4561 -0.6352
 7296TIP3    H143303   1.957   0.958  11.677 -3.1117 -1.1587  2.1417
 7296TIP3    H243304   2.031   0.829  11.706 -2.9647 -1.3603  0.9074
 7297TIP3   OH243305   2.566   3.526   0.812  0.7934  0.5681 -0.0825
 7297TIP3    H143306   2.657   3.495   0.815  0.2318 -1.5837 -2.6098
 7297TIP3    H243307   2.516   3.448   0.788 -1.7461  1.7428  1.2021
 7298TIP3   OH243308   2.495   2.820   4.010  0.0539  0.3863  0.6594
 7298TIP3    H143309   2.510   2.864   3.926 -0.9344 -1.6614 -0.6207
 7298TIP3    H243310   2.532   2.733   3.999 -0.6127 -0.1120  2.1601
 7299TIP3   OH243311   3.295   3.752  15.513  0.4846 -0.2108 -0.3292
 7299TIP3    H143312   3.208   3.786  15.490  1.3282  2.2447 -0.0539
 7299TIP3    H243313   3.285   3.718  15.602  0.6159  3.3776  1.1385
 7300TIP3   OH243314   4.954   0.014  17.103 -0.3014 -0.1513  0.3248
 7300TIP3    H143315   4.896  -0.044  17.054  0.1175 -1.2277  1.0942
 7300TIP3    H243316   5.029  -0.041  17.127 -0.0857  0.5920  1.4022
 7301TIP3   OH243317   4.083   6.396   1.673  0.1637  0.1953  0.1350
 7301TIP3    H143318   4.115   6.486   1.663  0.0958  0.3972  1.6798
 7301TIP3    H243319   4.045   6.393   1.761  0.5715 -1.4628  0.2728
 7302TIP3   OH243320   1.674   0.055  16.378  0.0903  0.0100 -0.2199
 7302TIP3    H143321   1.645   0.052  16.287  0.8090  0.5932 -0.4726
 7302TIP3    H243322   1.733   0.130  16.382 -0.3429  0.3108  0.8502
 7303TIP3   OH243323   6.435   2.565  17.221 -0.2978  0.6148  0.4927
 7303TIP3    H143324   6.507   2.629  17.221 -1.0188  1.4278  0.2242
 7303TIP3    H243325   6.364   2.609  17.268 -0.1014 -0.7978  2.1862
 7304TIP3   OH243326   4.890   3.933   4.127 -0.4333 -0.0309  0.0928
 7304TIP3    H143327   4.974   3.887   4.136 -0.1530  0.4849  0.1053
 7304TIP3    H243328   4.830   3.866   4.094  0.0360 -0.3501 -0.1200
 7305TIP3   OH243329   3.455   6.581   5.705 -0.4766  0.3863 -0.4208
 7305TIP3    H143330   3.534   6.635   5.702  0.2452 -0.5056  1.4754
 7305TIP3    H243331   3.422   6.580   5.615  1.7981  0.5983 -1.2813
 7306TIP3   OH243332   4.179   2.474   3.722 -0.3646 -0.0254 -0.2967
 7306TIP3    H143333   4.216   2.506   3.804 -0.4572 -0.5362 -0.0535
 7306TIP3    H243334   4.232   2.397   3.700 -0.2888  0.1546 -0.7587
 7307TIP3   OH243335   6.629   0.653  17.130 -0.5244  0.1159  0.7970
 7307TIP3    H143336   6.542   0.643  17.169 -1.9435  0.7384 -2.0453
 7307TIP3    H243337   6.651   0.566  17.097  0.8669 -0.5121  3.2863
 7308TIP3   OH243338   5.185   1.321  15.327  0.0762  0.4134 -0.6951
 7308TIP3    H143339   5.092   1.311  15.346  0.4202  0.8045  1.2707
 7308TIP3    H243340   5.199   1.416  15.324  0.7148  0.3672  0.5937
 7309TIP3   OH243341   0.481   1.805   1.468 -0.3389  0.3965  0.4754
 7309TIP3    H143342   0.418   1.813   1.397  0.0578  0.4506  0.1279
 7309TIP3    H243343   0.529   1.888   1.467  0.4506 -0.0605  0.0504
 7310TIP3   OH243344   4.813   5.089  13.626 -0.1296  0.9852 -0.5458
 7310TIP3    H143345   4.777   5.002  13.608  2.7876 -0.2254 -0.7087
 7310TIP3    H243346   4.846   5.084  13.716  0.8624  1.6352 -0.8652
 7311TIP3   OH243347   6.660   4.408  12.614  0.3121  0.1804  0.5335
 7311TIP3    H143348   6.689   4.459  12.538 -1.0593 -1.5058 -1.1498
 7311TIP3    H243349   6.718   4.437  12.685  2.3691  0.9883 -1.3966
 7312TIP3   OH243350   3.800   2.975   3.383  0.1842  0.4284 -0.4840
 7312TIP3    H143351   3.841   3.059   3.362  1.0934 -0.2405 -1.4272
 7312TIP3    H243352   3.712   2.999   3.412  0.1153  1.6570 -1.6189
 7313TIP3   OH243353   4.111   4.692  12.701 -0.4227  0.5552 -0.3965
 7313TIP3    H143354   4.047   4.648  12.757  2.1934 -1.7006  0.9385
 7313TIP3    H243355   4.113   4.782  12.734 -1.5678  0.1847  0.7379
 7314TIP3   OH243356   5.247   0.950   3.453 -0.0150  0.2769  0.3517
 7314TIP3    H143357   5.304   0.963   3.529  2.4453 -2.5463 -0.9158
 7314TIP3    H243358   5.178   0.892   3.484  2.0165 -2.3808  0.0105
 7315TIP3   OH243359   3.309   0.613   2.698 -0.1891  0.5300 -0.0386
 7315TIP3    H143360   3.367   0.542   2.672 -1.4224 -0.8197  0.8087
 7315TIP3    H243361   3.241   0.570   2.751  0.5347  2.6989  2.7416
 7316TIP3   OH243362   2.119   5.464   1.865 -0.3274  0.3611  0.0363
 7316TIP3    H143363   2.194   5.436   1.814 -1.5660  0.2345 -1.7736
 7316TIP3    H243364   2.065   5.385   1.874  0.1789  0.2247  2.1162
 7317TIP3   OH243365   0.076   5.238   5.775  0.0047  0.5206  0.2830
 7317TIP3    H143366   0.140   5.214   5.842 -0.1652  0.4566  0.4229
 7317TIP3    H243367   0.008   5.171   5.782  0.2396  0.2148 -0.2985
 7318TIP3   OH243368   1.057   0.437  11.066  1.0448 -0.2191  0.3816
 7318TIP3    H143369   1.149   0.460  11.052  0.1122  2.1225 -2.3093
 7318TIP3    H243370   1.031   0.390  10.986 -0.3647 -0.0190  0.7016
 7319TIP3   OH243371   5.988   6.311   5.700  0.0785 -0.2941 -0.0849
 7319TIP3    H143372   5.917   6.274   5.752 -0.0986 -1.1469 -0.9185
 7319TIP3    H243373   6.068   6.282   5.745 -0.0658 -1.4047 -0.5441
 7320TIP3   OH243374   4.147   6.245  14.161  0.2609  0.3519  0.0481
 7320TIP3    H143375   4.087   6.263  14.088 -0.6165  0.4317  0.7836
 7320TIP3    H243376   4.147   6.150  14.170 -0.6960  0.4214  0.8273
 7321TIP3   OH243377   1.263   5.409   0.898  0.2516 -0.6446 -0.1745
 7321TIP3    H143378   1.182   5.443   0.860  0.6138 -0.7720 -1.0547
 7321TIP3    H243379   1.327   5.479   0.884  0.4582 -0.8115 -0.0661
 7322TIP3   OH243380   3.350   5.659  10.309  0.3031  0.1059  0.4139
 7322TIP3    H143381   3.267   5.699  10.284  0.4522  0.0389 -0.1867
 7322TIP3    H243382   3.336   5.628  10.398 -0.8858 -1.5103 -0.3226
 7323TIP3   OH243383   4.188   3.951   0.505  0.4310 -0.3014 -0.3497
 7323TIP3    H143384   4.245   3.910   0.439  0.7175 -2.9817  1.4653
 7323TIP3    H243385   4.236   4.028   0.533  1.5715 -0.6273 -1.3333
 7324TIP3   OH243386   4.632   1.476  12.804  0.4388 -0.4784 -0.2716
 7324TIP3    H143387   4.630   1.432  12.889 -0.1456 -0.0953 -0.0861
 7324TIP3    H243388   4.665   1.564  12.823 -1.3356  0.1687 -0.1852
 7325TIP3   OH243389   1.819   6.355   4.764 -0.2336  0.4013  0.3686
 7325TIP3    H143390   1.726   6.337   4.774 -0.3450  0.6063 -0.2993
 7325TIP3    H243391   1.854   6.276   4.723 -0.5859  1.3784 -1.8485
 7326TIP3   OH243392   2.798   1.502   2.937  0.3487  0.4828 -0.0526
 7326TIP3    H143393   2.854   1.461   2.871  1.0113 -0.4466  1.0748
 7326TIP3    H243394   2.764   1.429   2.988 -1.2926  1.0949 -0.2418
 7327TIP3   OH243395   2.145   4.494   5.017  0.7439  0.1513  0.1470
 7327TIP3    H143396   2.196   4.470   4.939  1.9651  1.1713  0.6181
 7327TIP3    H243397   2.106   4.412   5.045 -0.5157 -0.0682 -2.1094
 7328TIP3   OH243398   0.332   3.406   6.470  0.6505 -0.2176 -0.1666
 7328TIP3    H143399   0.318   3.381   6.561  0.0412 -0.6115 -0.3698
 7328TIP3    H243400   0.368   3.327   6.428  0.5482 -0.1590 -0.3644
 7329TIP3   OH243401   1.182   4.355   5.871 -0.1863  0.4458  0.3668
 7329TIP3    H143402   1.136   4.350   5.786  1.2308  0.6634 -0.4292
 7329TIP3    H243403   1.135   4.294   5.927  0.2906 -1.5066 -1.2881
 7330TIP3   OH243404   1.354   3.533   3.334 -0.5241  0.6071  0.1817
 7330TIP3    H143405   1.441   3.570   3.324 -0.4014  0.4793  0.7551
 7330TIP3    H243406   1.309   3.591   3.395 -1.3580  1.5354 -1.2853
 7331TIP3   OH243407   5.606   5.844  15.650 -0.0826  0.3908  0.3151
 7331TIP3    H143408   5.557   5.857  15.569 -0.4630  0.3255  0.5322
 7331TIP3    H243409   5.560   5.772  15.694  3.1353 -3.1888 -1.8153
 7332TIP3   OH243410   5.156   2.250  11.890  0.4658 -0.2983 -0.2768
 7332TIP3    H143411   5.167   2.286  11.978  1.3757  0.0494 -0.5371
 7332TIP3    H243412   5.238   2.268  11.845 -0.2950  0.2571 -1.4703
 7333TIP3   OH243413   4.261   3.402   0.427 -0.7209 -0.0552 -0.4155
 7333TIP3    H143414   4.277   3.465   0.498 -0.8025 -0.0078 -0.4389
 7333TIP3    H243415   4.266   3.317   0.470 -0.8032 -0.0249 -0.3458
 7334TIP3   OH243416   0.140   0.120   4.350  0.3067  0.4164  0.2732
 7334TIP3    H143417   0.079   0.049   4.370 -0.3305  1.4185  1.9309
 7334TIP3    H243418   0.104   0.162   4.272 -0.7210  0.5355  0.8125
 7335TIP3   OH243419   1.389   4.172  17.147  0.6399 -0.0020  0.1121
 7335TIP3    H143420   1.403   4.204  17.058 -0.5693  0.6006  0.1226
 7335TIP3    H243421   1.302   4.132  17.145  0.1554  0.9420  1.2445
 7336TIP3   OH243422   0.449   0.780  12.210  0.5585  0.2775  0.1675
 7336TIP3    H143423   0.433   0.699  12.259  0.1043  0.6379  0.6181
 7336TIP3    H243424   0.387   0.776  12.137  0.5338  0.2191  0.1917
 7337TIP3   OH243425   1.969   4.371   1.423 -0.0506 -0.2707  0.7219
 7337TIP3    H143426   2.021   4.296   1.395  1.8264  1.2114  0.1313
 7337TIP3    H243427   1.880   4.337   1.432  0.5819 -2.3085 -0.5242
 7338TIP3   OH243428   2.885   5.272  14.999 -0.2764 -0.6131 -0.1551
 7338TIP3    H143429   2.878   5.284  14.905 -1.0692  2.5604  0.2312
 7338TIP3    H243430   2.794   5.260  15.029 -0.3533  1.3696  0.4956
 7339TIP3   OH243431   4.934   2.561  11.320 -0.3465 -0.2685  0.7767
 7339TIP3    H143432   4.915   2.497  11.388  0.2826  0.6431  1.8474
 7339TIP3    H243433   4.899   2.643  11.354  1.6000  0.5687  0.8576
 7340TIP3   OH243434   3.537   5.215   3.700  0.5613  0.1464  0.5141
 7340TIP3    H143435   3.485   5.162   3.638 -0.4981  2.2825 -0.4664
 7340TIP3    H243436   3.583   5.278   3.644  1.7267  0.3410  1.6801
 7341TIP3   OH243437   5.903   1.655   2.685  0.3131  0.4884  0.4298
 7341TIP3    H143438   5.829   1.711   2.663  0.2049  0.3144  0.3473
 7341TIP3    H243439   5.924   1.608   2.604 -0.7276 -0.8836  0.9365
 7342TIP3   OH243440   6.461   2.657  16.165 -0.8237 -0.6557  0.4560
 7342TIP3    H143441   6.556   2.649  16.176 -0.5409  0.7784 -0.8174
 7342TIP3    H243442   6.446   2.750  16.153 -2.3701 -0.9068  0.3437
 7343TIP3   OH243443   3.408   2.646   1.819 -0.6050  0.3233  0.2344
 7343TIP3    H143444   3.345   2.586   1.780 -0.3978  1.2193 -1.5270
 7343TIP3    H243445   3.464   2.590   1.873 -1.7843 -0.7294  0.3885
 7344TIP3   OH243446   0.829   1.824   2.325  0.0046 -0.3296 -0.0763
 7344TIP3    H143447   0.815   1.733   2.297 -1.2778 -0.5085  1.1250
 7344TIP3    H243448   0.772   1.876   2.267  1.7949 -0.1497 -1.6990
 7345TIP3   OH243449   1.546   4.962   5.443  0.3271  0.0086  0.3095
 7345TIP3    H143450   1.586   4.934   5.361 -0.9149  0.4447 -0.4419
 7345TIP3    H243451   1.474   5.019   5.417  0.1754  0.4736  1.7114
 7346TIP3   OH243452   3.521   6.148  12.920 -0.3168  0.4096 -0.4042
 7346TIP3    H143453   3.610   6.183  12.910  0.5218 -1.2855  0.9347
 7346TIP3    H243454   3.468   6.225  12.939  1.2524  1.1622  1.0937
 7347TIP3   OH243455   4.366   1.280   5.844  0.3856 -0.2204  0.2089
 7347TIP3    H143456   4.415   1.361   5.843  1.1535 -0.6605 -1.8570
 7347TIP3    H243457   4.275   1.307   5.830  0.3690  0.4221  1.5532
 7348TIP3   OH243458   2.633   5.940  16.957 -0.5376  0.4707  0.2724
 7348TIP3    H143459   2.539   5.920  16.956 -0.2856 -0.7992  0.9320
 7348TIP3    H243460   2.664   5.906  17.041  0.8545 -0.7577 -0.7158
 7349TIP3   OH243461   0.264   3.908  11.126  0.3270 -0.2462  0.0018
 7349TIP3    H143462   0.286   3.968  11.054  1.8016 -0.5203  0.2005
 7349TIP3    H243463   0.169   3.902  11.124  0.3424 -0.3044 -2.0013
 7350TIP3   OH243464   3.016   3.921  14.107  0.0426 -0.5543  0.5014
 7350TIP3    H143465   3.087   3.941  14.167  0.5676  0.5362 -0.4686
 7350TIP3    H243466   2.971   4.004  14.094  0.9325 -0.4317 -1.8971
 7351TIP3   OH243467   1.898   1.362   4.328  0.0570  0.2102  0.1693
 7351TIP3    H143468   1.804   1.366   4.343 -0.0728 -3.0184  0.5197
 7351TIP3    H243469   1.936   1.389   4.412 -0.4956  3.6681 -0.6453
 7352TIP3   OH243470   2.481   6.150   5.271 -0.0327  0.5312  0.5598
 7352TIP3    H143471   2.486   6.227   5.327 -1.6143  0.0087  1.4405
 7352TIP3    H243472   2.493   6.076   5.330  0.4922  0.0548 -0.1324
 7353TIP3   OH243473   0.254   6.307  17.117 -0.1115  0.5769 -0.2363
 7353TIP3    H143474   0.246   6.331  17.209  1.2160  1.4622 -0.3479
 7353TIP3    H243475   0.316   6.234  17.116  0.7663  1.3200 -0.5376
 7354TIP3   OH243476   2.596   5.924   4.449 -0.8702 -0.6248  0.1032
 7354TIP3    H143477   2.617   5.841   4.494 -1.8689 -0.7363  0.3686
 7354TIP3    H243478   2.632   5.991   4.506 -0.6795 -0.8437  0.2438
 7355TIP3   OH243479   6.662   2.104  14.332  0.2049  0.1003  0.4427
 7355TIP3    H143480   6.748   2.065  14.344 -0.3159 -1.0525  0.4352
 7355TIP3    H243481   6.672   2.193  14.367  1.6090  0.2545 -0.2928
 7356TIP3   OH243482   3.819   4.523  17.180 -0.7658 -0.3379  0.4655
 7356TIP3    H143483   3.826   4.530  17.085  1.0290  2.2837  0.7550
 7356TIP3    H243484   3.755   4.590  17.205  0.7141  0.7799  1.3307
 7357TIP3   OH243485   2.413   5.674  12.077 -0.5647 -0.6448  0.2698
 7357TIP3    H143486   2.401   5.718  12.161 -0.0256  0.2428 -0.1213
 7357TIP3    H243487   2.324   5.649  12.051 -0.7909 -0.4387  0.8337
 7358TIP3   OH243488   6.618   0.440  15.564 -0.2661  0.2841  0.3116
 7358TIP3    H143489   6.530   0.465  15.539 -0.4443  0.3790  1.0189
 7358TIP3    H243490   6.665   0.523  15.575  0.1678  0.2179 -0.9428
 7359TIP3   OH243491   1.916   3.287  14.707 -0.2248  0.2558 -0.0587
 7359TIP3    H143492   2.004   3.304  14.743  0.0530 -0.9797 -0.1233
 7359TIP3    H243493   1.886   3.210  14.754 -0.2168 -0.8758 -1.8634
 7360TIP3   OH243494   3.415   4.490  16.799  0.2198 -0.5015  0.3594
 7360TIP3    H143495   3.437   4.464  16.888  1.1105 -0.1213  0.2596
 7360TIP3    H243496   3.323   4.466  16.789  0.2165 -0.8902  1.2516
 7361TIP3   OH243497   4.381   3.647   1.788  0.5744 -0.6395 -0.2157
 7361TIP3    H143498   4.327   3.593   1.846 -0.4218 -0.0640 -0.5989
 7361TIP3    H243499   4.419   3.713   1.846 -0.6359  0.1002 -0.2597
 7362TIP3   OH243500   3.058   1.561   4.111 -0.2609 -0.1480 -0.4941
 7362TIP3    H143501   3.136   1.509   4.088  1.3411  1.8686  0.2042
 7362TIP3    H243502   3.091   1.651   4.117 -2.3792  0.5400  1.2295
 7363TIP3   OH243503   1.496   5.966   3.357 -0.8856  0.1956  0.3155
 7363TIP3    H143504   1.401   5.966   3.349 -1.0157 -1.5286  1.8204
 7363TIP3    H243505   1.522   5.875   3.342  0.6019  0.7910 -0.8596
 7364TIP3   OH243506   0.364   5.490   1.405  0.1908  0.0874 -0.5938
 7364TIP3    H143507   0.423   5.433   1.453  0.7581  0.2555 -1.0944
 7364TIP3    H243508   0.322   5.544   1.473  0.7512  0.1088 -0.2666
 7365TIP3   OH243509   3.707   3.711   1.750 -0.5076 -0.1246 -0.3252
 7365TIP3    H143510   3.737   3.638   1.696 -1.0648 -0.4370 -0.2210
 7365TIP3    H243511   3.739   3.789   1.705 -1.0889 -0.3778 -1.1848
 7366TIP3   OH243512   6.757   0.284  16.593  0.3640  0.2686 -0.2766
 7366TIP3    H143513   6.775   0.327  16.676 -1.9434 -1.6112  1.2617
 7366TIP3    H243514   6.792   0.195  16.603  0.3787  0.1319 -1.4320
 7367TIP3   OH243515   4.424   2.917   4.288  0.2168 -0.2069 -0.2306
 7367TIP3    H143516   4.368   2.894   4.214 -0.5600  1.0291 -0.0472
 7367TIP3    H243517   4.363   2.954   4.353  1.5358  3.6777 -1.0689
 7368TIP3   OH243518   5.293   5.880   2.150  0.1347 -0.3564  0.2098
 7368TIP3    H143519   5.367   5.820   2.140  0.7644 -0.1694  3.1496
 7368TIP3    H243520   5.229   5.830   2.201 -0.3486  0.6344  0.5767
 7369TIP3   OH243521   0.953   5.937  16.454  0.0857  0.2891  0.2612
 7369TIP3    H143522   1.034   5.887  16.454 -0.4586 -0.6097 -0.1868
 7369TIP3    H243523   0.889   5.879  16.496 -1.0005 -0.1632 -1.9393
 7370TIP3   OH243524   3.698   5.215  17.204 -0.3182  0.3284  0.1231
 7370TIP3    H143525   3.703   5.119  17.206 -0.8357  0.3202  1.4544
 7370TIP3    H243526   3.717   5.241  17.294  1.8313  1.5787 -0.6619
 7371TIP3   OH243527   5.729   6.243  17.067 -0.2513 -0.5600  0.9106
 7371TIP3    H143528   5.714   6.286  16.983  1.7015 -0.6950  0.4675
 7371TIP3    H243529   5.673   6.166  17.065 -0.2740 -0.5241 -0.2487
 7372TIP3   OH243530   5.041   0.813  14.477 -0.2645  0.4558 -0.2692
 7372TIP3    H143531   5.050   0.908  14.491 -0.7149  0.2601  1.5404
 7372TIP3    H243532   5.004   0.781  14.560 -0.8653 -1.1904 -1.1675
 7373TIP3   OH243533   5.968   1.315  14.471  0.2684 -0.3805  0.1299
 7373TIP3    H143534   5.974   1.316  14.566 -0.6019 -1.2652  0.1919
 7373TIP3    H243535   5.976   1.223  14.447 -1.0172 -0.3164 -0.5639
 7374TIP3   OH243536   5.750   5.758   4.132  0.0898 -0.2045  0.7549
 7374TIP3    H143537   5.700   5.708   4.067  0.3310  0.4107  0.0839
 7374TIP3    H243538   5.687   5.821   4.168 -0.1349 -0.7837  1.3756
 7375TIP3   OH243539   2.768   6.503  14.186 -0.1113  0.2493  0.4692
 7375TIP3    H143540   2.686   6.454  14.173  0.4083 -0.6327  0.4515
 7375TIP3    H243541   2.755   6.549  14.269 -0.1794 -0.8152  1.0585
 7376TIP3   OH243542   4.024   4.276  11.613  0.1415 -0.0198 -0.2937
 7376TIP3    H143543   4.065   4.191  11.595  1.8501  0.3654  1.5528
 7376TIP3    H243544   3.930   4.257  11.616  0.5325 -1.9570  0.5876
 7377TIP3   OH243545   0.388   2.343  17.048  0.2282  0.3893 -0.8966
 7377TIP3    H143546   0.472   2.384  17.027 -0.7755  3.1277  0.1594
 7377TIP3    H243547   0.402   2.302  17.133 -0.0469  2.7156  0.3286
 7378TIP3   OH243548   5.170   5.978  16.183  0.0882 -0.5862  0.0657
 7378TIP3    H143549   5.224   6.027  16.245  0.3977 -2.0303  0.9585
 7378TIP3    H243550   5.229   5.957  16.111  1.1807 -3.4859  1.7383
 7379TIP3   OH243551   0.051   3.679  10.673 -0.1688  0.1609 -0.3404
 7379TIP3    H143552   0.034   3.693  10.579  0.1966  1.5543 -0.2117
 7379TIP3    H243553   0.053   3.767  10.710  2.5919 -0.1916  0.4623
 7380TIP3   OH243554   3.971   5.381  13.097 -0.9498  0.2982 -0.3380
 7380TIP3    H143555   4.022   5.347  13.023 -0.0463 -0.5508  0.6741
 7380TIP3    H243556   3.939   5.466  13.066 -1.7640 -0.6607 -2.2345
 7381TIP3   OH243557   0.636   4.925   4.369  0.1889  0.5398 -0.3699
 7381TIP3    H143558   0.661   4.832   4.363 -1.1466  0.1891 -0.6754
 7381TIP3    H243559   0.606   4.947   4.281  0.4131  1.2351 -0.2730
 7382TIP3   OH243560   6.420   2.414   2.357 -0.2846  0.6679 -0.7642
 7382TIP3    H143561   6.450   2.328   2.327 -0.7565  0.1756  0.1254
 7382TIP3    H243562   6.423   2.470   2.280 -0.2323 -0.2292 -1.4125
 7383TIP3   OH243563   5.423   1.060  11.212 -0.5226 -0.2181  0.1741
 7383TIP3    H143564   5.484   1.080  11.140 -0.7260 -0.7889 -0.1633
 7383TIP3    H243565   5.355   1.127  11.204 -0.1875  0.1326  0.2539
 7384TIP3   OH243566   3.104   5.022  13.592 -0.1483  0.5531  0.8084
 7384TIP3    H143567   3.146   5.083  13.531 -2.0844  2.6001  1.4431
 7384TIP3    H243568   3.141   5.044  13.677 -0.7114  0.7509  1.0072
 7385TIP3   OH243569   3.237   4.357  13.707  0.3872 -0.5346  0.3513
 7385TIP3    H143570   3.196   4.365  13.793 -0.6018  1.3851 -0.2706
 7385TIP3    H243571   3.308   4.294  13.720  1.2597  0.9030  2.9512
 7386TIP3   OH243572   5.396   0.734   4.100  0.7265 -0.0772  0.3305
 7386TIP3    H143573   5.461   0.798   4.129  0.0799  0.7549 -0.0336
 7386TIP3    H243574   5.315   0.785   4.091 -0.0675 -1.1713  1.1391
 7387TIP3   OH243575   5.546   3.841  12.594  0.6051  0.3771  0.0195
 7387TIP3    H143576   5.462   3.797  12.583 -0.0393  2.0404 -2.0264
 7387TIP3    H243577   5.552   3.858  12.688 -0.5660 -1.2367  0.4098
 7388TIP3   OH243578   5.225   4.516   2.324  0.2033  0.5621 -0.3707
 7388TIP3    H143579   5.223   4.530   2.419 -2.2992 -0.0622 -0.3023
 7388TIP3    H243580   5.241   4.423   2.314  0.1903  0.5807 -0.5652
 7389TIP3   OH243581   1.949   5.410   5.978  0.3816 -0.1145  0.0366
 7389TIP3    H143582   1.879   5.391   5.915  1.1470 -0.0484 -0.8435
 7389TIP3    H243583   1.929   5.355   6.054 -0.1685 -0.7007 -0.5302
 7390TIP3   OH243584   0.848   3.164   0.064  0.0840 -0.0311 -0.3357
 7390TIP3    H143585   0.921   3.226   0.058 -0.5185  0.6910 -0.3311
 7390TIP3    H243586   0.870   3.108   0.138 -0.6147  1.8431  1.3338
 7391TIP3   OH243587   3.479   4.362   4.746 -0.2275 -0.2979 -0.1291
 7391TIP3    H143588   3.461   4.456   4.753 -0.3813 -0.3015 -0.4313
 7391TIP3    H243589   3.537   4.342   4.819 -1.4789 -0.2912  0.8936
 7392TIP3   OH243590   3.910   4.010   3.763 -0.2055 -0.2199 -0.1175
 7392TIP3    H143591   3.875   4.096   3.787  0.5697 -0.0808  0.5294
 7392TIP3    H243592   3.960   3.983   3.840 -0.7840 -1.4314 -0.1640
 7393TIP3   OH243593   2.106   3.432   1.050  0.5181 -0.5330 -0.4549
 7393TIP3    H143594   2.140   3.507   1.002 -0.6213  0.2087 -0.1286
 7393TIP3    H243595   2.151   3.435   1.135  0.0726  0.1130 -0.2355
 7394TIP3   OH243596   3.896   2.799   2.663 -0.3095  0.3583  0.4314
 7394TIP3    H143597   3.916   2.883   2.621  0.1775  0.4259  0.7989
 7394TIP3    H243598   3.954   2.737   2.620  0.3351  0.4638  1.1504
 7395TIP3   OH243599   6.541   2.870  15.669  0.3531  0.3798 -0.0461
 7395TIP3    H143600   6.609   2.910  15.616 -0.3245 -0.5857 -1.6829
 7395TIP3    H243601   6.588   2.806  15.723  0.9354  0.7235 -0.1468
 7396TIP3   OH243602   0.596   4.721  17.079 -0.1151  0.4338 -0.2441
 7396TIP3    H143603   0.551   4.803  17.061  0.4680  0.3620 -2.2137
 7396TIP3    H243604   0.678   4.747  17.120 -0.4274  0.7726  0.1602
 7397TIP3   OH243605   3.463   0.137  14.944 -0.2587 -0.3847  0.1277
 7397TIP3    H143606   3.509   0.164  14.865  0.3938 -0.9618  0.3001
 7397TIP3    H243607   3.531   0.100  15.000 -0.5498  0.9218  1.3771
 7398TIP3   OH243608   4.416   2.102  12.012 -0.5694 -0.2216 -0.8103
 7398TIP3    H143609   4.350   2.121  11.944  0.0554  1.4290 -0.9806
 7398TIP3    H243610   4.406   2.174  12.075  1.5733  0.4937 -1.2350
 7399TIP3   OH243611   4.512   3.132  12.946 -0.0345  0.7624 -1.3426
 7399TIP3    H143612   4.422   3.113  12.921  0.2137 -0.5427 -1.2551
 7399TIP3    H243613   4.504   3.197  13.015 -1.1463 -2.5744  1.8252
 7400TIP3   OH243614   4.577   0.128  15.567  0.2285 -0.0275  0.4092
 7400TIP3    H143615   4.633   0.066  15.614  1.0387  0.6989  0.3940
 7400TIP3    H243616   4.490   0.088  15.571  0.2470  0.0778  2.6529
 7401TIP3   OH243617   0.901   3.089   3.251 -0.3780  0.2334  0.5090
 7401TIP3    H143618   0.813   3.124   3.238 -0.0151  0.8238 -0.3862
 7401TIP3    H243619   0.888   2.995   3.258 -0.9495  0.2078 -0.8236
 7402TIP3   OH243620   2.890   5.123  10.891  0.2305  0.0828 -0.1732
 7402TIP3    H143621   2.877   5.166  10.975 -0.6553  1.0602 -0.7917
 7402TIP3    H243622   2.802   5.115  10.854  0.6410 -0.0262 -1.1530
 7403TIP3   OH243623   5.618   5.250   4.700  0.0591 -0.5001 -0.6220
 7403TIP3    H143624   5.564   5.173   4.683 -3.4596  1.7163  0.0564
 7403TIP3    H243625   5.669   5.227   4.778 -0.6135 -2.2852 -0.6880
 7404TIP3   OH243626   2.273   5.910   1.342  0.4456  0.1482 -0.5528
 7404TIP3    H143627   2.302   5.937   1.429  0.1642  0.5270 -0.5743
 7404TIP3    H243628   2.210   5.840   1.358  1.0088 -0.3439 -0.4865
 7405TIP3   OH243629   2.063   0.673  11.829 -0.1941 -0.4962 -0.6908
 7405TIP3    H143630   2.063   0.592  11.778 -1.4245 -0.2923 -1.0454
 7405TIP3    H243631   2.013   0.652  11.908  1.4443 -0.7223  0.2987
 7406TIP3   OH243632   4.945   6.242   1.880  0.0822  0.9497  0.2239
 7406TIP3    H143633   4.867   6.273   1.835  0.4953  1.0295 -0.4570
 7406TIP3    H243634   4.942   6.147   1.871  0.3499  0.9889 -0.2922
 7407TIP3   OH243635   6.605   6.466  12.962 -0.0954 -0.0621  0.2428
 7407TIP3    H143636   6.653   6.468  12.879 -1.6166 -1.5138 -0.6878
 7407TIP3    H243637   6.674   6.471  13.029  1.2661 -0.6691 -1.0809
 7408TIP3   OH243638   3.994   0.612  12.704 -0.3275 -0.6180 -0.6568
 7408TIP3    H143639   3.946   0.560  12.769  2.4546 -0.7479  1.3917
 7408TIP3    H243640   3.978   0.703  12.730  0.1384 -0.6427 -0.2949
 7409TIP3   OH243641   2.222   2.840   3.960 -0.2588  0.1825 -0.0406
 7409TIP3    H143642   2.235   2.908   3.894  1.0790 -0.1198 -0.1058
 7409TIP3    H243643   2.310   2.810   3.982 -0.8101 -1.4015  0.1286
 7410TIP3   OH243644   1.518   4.474   0.511  0.8309  0.9686  0.6671
 7410TIP3    H143645   1.443   4.416   0.519  2.5242 -1.5708 -1.0205
 7410TIP3    H243646   1.487   4.548   0.459  0.0570 -1.1496 -1.9926
 7411TIP3   OH243647   1.485   6.698   3.002  0.0621  0.1996 -0.1578
 7411TIP3    H143648   1.550   6.764   3.029  0.8952 -0.1519 -1.2730
 7411TIP3    H243649   1.450   6.665   3.084  0.8788  0.8157  0.4556
 7412TIP3   OH243650   2.337   6.365  15.485 -0.6015  0.1564 -0.3409
 7412TIP3    H143651   2.255   6.413  15.488 -0.1330  1.0218 -0.8241
 7412TIP3    H243652   2.401   6.424  15.525  0.3368  0.7194 -2.5507
 7413TIP3   OH243653   5.078   0.303   0.910  0.1127  0.1693  0.2495
 7413TIP3    H143654   5.099   0.232   0.971  0.9533  0.6691  0.5454
 7413TIP3    H243655   5.000   0.344   0.947  0.8573  0.7277  1.2286
 7414TIP3   OH243656   0.953   6.690   3.346  0.4279 -0.0308  0.0279
 7414TIP3    H143657   1.020   6.751   3.377  0.7068  0.8392 -2.2312
 7414TIP3    H243658   0.924   6.725   3.262 -0.9385 -1.8705 -0.3198
 7415TIP3   OH243659   2.581   2.304  11.573  0.0969  0.0378 -0.0903
 7415TIP3    H143660   2.670   2.333  11.591  0.0540  1.1730 -1.6026
 7415TIP3    H243661   2.570   2.318  11.479 -0.6913 -2.8334 -0.4730
 7416TIP3   OH243662   5.109   0.890  11.813  0.6048  0.3596  0.2578
 7416TIP3    H143663   5.079   0.981  11.822 -0.0706 -0.0786  2.6241
 7416TIP3    H243664   5.194   0.889  11.857  0.5522 -0.1817  0.3449
 7417TIP3   OH243665   4.452   2.439   0.260  0.5729  0.0428 -0.3201
 7417TIP3    H143666   4.460   2.520   0.211 -1.4636 -0.7755 -2.0805
 7417TIP3    H243667   4.541   2.404   0.263  1.2169  1.6327 -0.7865
 7418TIP3   OH243668   3.491   5.658   6.477 -0.0513  0.1786  0.1556
 7418TIP3    H143669   3.503   5.748   6.449 -2.6802  0.4581 -0.2199
 7418TIP3    H243670   3.564   5.640   6.535  1.7666  1.7882 -1.5829
 7419TIP3   OH243671   3.196   1.721   0.101 -0.1717  0.3169  0.4198
 7419TIP3    H143672   3.286   1.712   0.072 -0.5776  0.2120 -0.8557
 7419TIP3    H243673   3.172   1.810   0.078  0.1101  0.8628  2.2272
 7420TIP3   OH243674   1.315   0.206  14.427 -0.3472 -0.4290  0.0631
 7420TIP3    H143675   1.273   0.247  14.503  0.8820 -0.9691  1.0461
 7420TIP3    H243676   1.409   0.220  14.442 -0.1321  0.0527 -1.7040
 7421TIP3   OH243677   0.647   4.574  13.077  0.2112 -0.5004  0.4385
 7421TIP3    H143678   0.716   4.526  13.031  0.0953 -1.8816  1.6476
 7421TIP3    H243679   0.601   4.621  13.008  2.1777  0.2240 -0.4203
 7422TIP3   OH243680   4.919   0.558  14.426  0.2286 -0.2512 -0.2484
 7422TIP3    H143681   4.940   0.651  14.422 -1.6912  0.2187 -0.2087
 7422TIP3    H243682   4.904   0.532  14.335  2.4928 -0.9704 -0.4412
 7423TIP3   OH243683   5.580   0.163   3.579  0.2507  0.1058  0.6956
 7423TIP3    H143684   5.604   0.195   3.492  1.2940 -0.0147  0.9333
 7423TIP3    H243685   5.626   0.079   3.587 -0.6511 -0.3698  0.9684
 7424TIP3   OH243686   0.491   0.300  12.564 -0.0874 -0.5873  0.0852
 7424TIP3    H143687   0.532   0.241  12.628 -1.2085 -0.3063  1.0896
 7424TIP3    H243688   0.403   0.263  12.551 -1.2022  1.4307  1.5479
 7425TIP3   OH243689   6.327   1.523  13.287  0.2372  0.1070 -0.0182
 7425TIP3    H143690   6.319   1.573  13.368 -0.8118 -0.6385  0.3524
 7425TIP3    H243691   6.256   1.555  13.231  1.1501  0.8427 -0.7724
 7426TIP3   OH243692   0.979   0.864   3.491  0.2105 -0.3555  0.7529
 7426TIP3    H143693   0.886   0.843   3.488 -0.8479  3.9271 -0.7611
 7426TIP3    H243694   1.007   0.865   3.400  1.6857 -1.2589  1.1732
 7427TIP3   OH243695   4.658   1.816  15.227 -0.2510  0.0065 -0.4678
 7427TIP3    H143696   4.574   1.777  15.252  0.0912 -1.1336 -1.0752
 7427TIP3    H243697   4.654   1.821  15.131 -0.0020  0.8253 -0.4396
 7428TIP3   OH243698   5.853   2.227   2.289 -0.1855  0.0927 -0.0688
 7428TIP3    H143699   5.939   2.268   2.275 -0.8213  1.4900 -0.0438
 7428TIP3    H243700   5.795   2.272   2.227 -1.4711  1.1145  1.7878
 7429TIP3   OH243701   3.456   2.418  12.004 -0.7547  0.2786 -0.4226
 7429TIP3    H143702   3.492   2.459  12.082 -1.7232 -0.1577  0.2585
 7429TIP3    H243703   3.473   2.324  12.016  0.5804  0.3501 -1.5194
 7430TIP3   OH243704   2.016   3.078  15.423  0.2658 -0.0345  0.3685
 7430TIP3    H143705   1.992   3.170  15.438 -2.8197 -1.0785  2.2327
 7430TIP3    H243706   2.083   3.060  15.490 -0.6547  0.2788  1.3933
 7431TIP3   OH243707   5.239   3.578   4.461  0.5124 -0.1261 -0.2837
 7431TIP3    H143708   5.277   3.521   4.394  0.9501 -0.2015  0.0219
 7431TIP3    H243709   5.199   3.518   4.524  2.2287 -0.1670  0.7874
 7432TIP3   OH243710   2.455   2.581   3.482 -0.1390  0.2753  0.2298
 7432TIP3    H143711   2.436   2.673   3.501  0.9463  0.7304 -0.8554
 7432TIP3    H243712   2.550   2.577   3.471 -0.4115 -0.5292 -2.0965
 7433TIP3   OH243713   3.886   1.595   1.213 -0.2882 -0.0445  0.2709
 7433TIP3    H143714   3.979   1.608   1.198  0.4502 -1.4470  3.2837
 7433TIP3    H243715   3.855   1.553   1.132  1.1948  2.3820 -1.6116
 7434TIP3   OH243716   6.072   6.504  12.965 -0.2855  0.2646 -0.0418
 7434TIP3    H143717   6.160   6.515  12.930  0.1946 -0.8687  0.7687
 7434TIP3    H243718   6.073   6.552  13.048 -0.3616  0.0938  0.0599
 7435TIP3   OH243719   1.174   3.661   2.662 -0.1051  0.4081 -0.0566
 7435TIP3    H143720   1.140   3.751   2.662  0.1819  0.5510 -2.0227
 7435TIP3    H243721   1.264   3.669   2.693 -1.0981  0.3417  2.9424
 7436TIP3   OH243722   3.339   0.227  11.711 -0.6063 -0.1650 -0.5392
 7436TIP3    H143723   3.379   0.153  11.665 -0.9106 -0.4965 -0.2697
 7436TIP3    H243724   3.294   0.277  11.642 -1.4874 -0.9380 -0.5319
 7437TIP3   OH243725   0.077   4.646   6.824 -0.3443 -0.2054  0.2739
 7437TIP3    H143726   0.108   4.722   6.774  1.3287  1.1429  3.1925
 7437TIP3    H243727   0.125   4.572   6.788  3.6847  1.2835  2.1953
 7438TIP3   OH243728   6.770   1.457   0.668 -0.1640  0.5897 -0.3792
 7438TIP3    H143729   6.755   1.394   0.598  0.8353 -0.5931  0.4586
 7438TIP3    H243730   6.839   1.418   0.722 -2.4174  0.4167  2.5314
 7439TIP3   OH243731   1.084   1.175  11.895 -0.1238  0.1099 -0.0590
 7439TIP3    H143732   1.126   1.091  11.875 -0.3600  0.1450 -0.7229
 7439TIP3    H243733   1.008   1.178  11.836  0.2850  1.1049 -0.5362
 7440TIP3   OH243734   5.497   3.193  16.313  0.2191  0.4059  0.4564
 7440TIP3    H143735   5.502   3.285  16.338 -1.4115  0.1530  1.8161
 7440TIP3    H243736   5.555   3.148  16.375 -1.1383  0.2011  1.6040
 7441TIP3   OH243737   2.648   6.138   4.655 -0.3394 -0.4305  0.3651
 7441TIP3    H143738   2.737   6.164   4.680 -0.1396 -1.0173  0.2721
 7441TIP3    H243739   2.616   6.211   4.602  0.6271 -0.8556 -0.8385
 7442TIP3   OH243740   4.560   6.143   5.419 -0.0373 -0.2179  0.2251
 7442TIP3    H143741   4.579   6.212   5.482 -0.9982  0.1290  0.1390
 7442TIP3    H243742   4.530   6.069   5.472  0.4667 -0.3971  0.2712
 7443TIP3   OH243743   0.899   2.254   4.620  0.2772 -0.1235 -0.3617
 7443TIP3    H143744   0.891   2.332   4.565  1.5454 -1.3420 -2.3563
 7443TIP3    H243745   0.993   2.232   4.617 -0.0498 -1.6861  0.1729
 7444TIP3   OH243746   0.659   1.079  15.272 -0.2376 -0.4888  0.1350
 7444TIP3    H143747   0.657   1.149  15.337 -0.6706  0.4191 -0.8289
 7444TIP3    H243748   0.741   1.032  15.289  0.3638  0.6428  0.4111
 7445TIP3   OH243749   2.832   6.372  12.857  0.9148  0.3692 -0.2914
 7445TIP3    H143750   2.758   6.312  12.855  1.7370 -0.6432 -2.0493
 7445TIP3    H243751   2.797   6.454  12.822  0.3735  0.1955 -0.1593
 7446TIP3   OH243752   1.979   1.872  16.444  0.0757  0.4548  0.6923
 7446TIP3    H143753   1.909   1.902  16.502 -1.1295 -2.5102  0.8257
 7446TIP3    H243754   2.025   1.805  16.494 -0.6151 -1.7350 -1.4732
 7447TIP3   OH243755   1.681   5.385  13.766  0.0638 -0.0718 -0.1496
 7447TIP3    H143756   1.675   5.381  13.671 -1.1923  1.7579 -0.1628
 7447TIP3    H243757   1.591   5.380  13.797  0.1949  2.5128  0.7794
 7448TIP3   OH243758   1.692   2.596  11.199 -0.0524 -0.4511  0.0814
 7448TIP3    H143759   1.716   2.609  11.108  1.1863 -1.5808  0.2382
 7448TIP3    H243760   1.667   2.504  11.205 -1.2685 -0.1024  0.6435
 7449TIP3   OH243761   4.628   4.755   2.511 -0.5003  0.5334  0.5220
 7449TIP3    H143762   4.637   4.814   2.585  2.4659  0.4447  0.2923
 7449TIP3    H243763   4.651   4.808   2.434  0.7461 -0.5148  0.1569
 7450TIP3   OH243764   3.078   0.890  11.904 -0.0477  0.2069  0.0325
 7450TIP3    H143765   3.083   0.986  11.899 -0.3907  0.1128 -2.9653
 7450TIP3    H243766   2.997   0.868  11.858  0.4739 -1.5663 -0.0664
 7451TIP3   OH243767   0.187   3.006   2.945  0.0922 -0.3500 -0.5641
 7451TIP3    H143768   0.117   2.961   2.897  1.8006 -0.4336 -3.1177
 7451TIP3    H243769   0.208   3.082   2.891  1.1627  0.3315  0.7722
 7452TIP3   OH243770   0.529   6.131  12.525 -0.4351 -0.2500  0.0518
 7452TIP3    H143771   0.487   6.076  12.591  1.0964  0.3610  1.5763
 7452TIP3    H243772   0.535   6.076  12.448 -0.8628 -1.4965  0.8954
 7453TIP3   OH243773   5.926   2.679   1.494 -0.0120 -0.7555  0.7049
 7453TIP3    H143774   5.948   2.633   1.575  0.1734 -0.3273  0.9051
 7453TIP3    H243775   5.947   2.617   1.424 -0.6254 -1.3040  0.9985
 7454TIP3   OH243776   5.873   3.357   0.839  0.1354 -0.3472 -0.6448
 7454TIP3    H143777   5.866   3.267   0.870 -0.1620 -0.6486 -1.5893
 7454TIP3    H243778   5.787   3.377   0.803 -0.0100  0.5411  0.1612
 7455TIP3   OH243779   1.627   2.570   4.434 -0.4264  0.4132  0.0620
 7455TIP3    H143780   1.633   2.476   4.421  1.1451  0.6740 -1.3252
 7455TIP3    H243781   1.671   2.586   4.518 -1.5747 -0.1858  0.7809
 7456TIP3   OH243782   1.262   4.448  14.112  0.3040 -0.6963  0.1123
 7456TIP3    H143783   1.196   4.379  14.120  1.4869 -1.9345 -0.3685
 7456TIP3    H243784   1.263   4.470  14.019 -0.7734  0.6953  0.4280
 7457TIP3   OH243785   5.229   2.074   3.202  0.2626  0.4026  0.6665
 7457TIP3    H143786   5.135   2.081   3.214  0.8394  3.1929  4.5058
 7457TIP3    H243787   5.255   2.157   3.163  1.2575  0.0622  0.5752
 7458TIP3   OH243788   1.163   1.274   2.127  0.2857  0.2086  0.3886
 7458TIP3    H143789   1.078   1.273   2.169  0.0784  1.1914  0.0064
 7458TIP3    H243790   1.144   1.257   2.034  0.3468  2.0108  0.0421
 7459TIP3   OH243791   5.998   0.038  15.130 -0.1885 -0.2500 -0.1282
 7459TIP3    H143792   5.970  -0.013  15.205  1.5013 -0.2937  0.4917
 7459TIP3    H243793   6.085   0.003  15.108  0.2019  1.1071 -0.8287
 7460TIP3   OH243794   1.223   5.153   2.193  0.0169 -0.2169  0.0665
 7460TIP3    H143795   1.280   5.088   2.151 -0.9199 -0.8246 -0.2789
 7460TIP3    H243796   1.164   5.100   2.247 -2.0535  0.1905 -1.7349
 7461TIP3   OH243797   1.582   3.219  12.160 -0.1709 -0.3232  0.0899
 7461TIP3    H143798   1.634   3.145  12.129 -1.3791 -1.6911  1.2497
 7461TIP3    H243799   1.610   3.232  12.251 -0.0943  0.5219 -0.0517
 7462TIP3   OH243800   3.269   4.966   1.754  0.3511 -0.1724  0.7896
 7462TIP3    H143801   3.175   4.980   1.744  0.7353  2.1676  0.0464
 7462TIP3    H243802   3.289   4.889   1.701 -0.7770  0.7161 -0.9317
 7463TIP3   OH243803   3.908   6.516   0.273  0.3165 -0.3628  0.5273
 7463TIP3    H143804   3.829   6.562   0.244  0.7757 -0.0374 -0.2132
 7463TIP3    H243805   3.977   6.582   0.268  0.9182 -1.0527 -0.2276
 7464TIP3   OH243806   5.515   0.188   2.918  0.0610  0.0950 -0.2405
 7464TIP3    H143807   5.482   0.101   2.893 -1.0886 -0.3286  2.5170
 7464TIP3    H243808   5.516   0.238   2.837 -1.8105 -1.7064 -1.4110
 7465TIP3   OH243809   6.507   3.277   1.396 -0.2318  0.2021 -0.0796
 7465TIP3    H143810   6.430   3.325   1.364  1.2112  1.6850 -1.4584
 7465TIP3    H243811   6.554   3.252   1.316  0.0352 -1.8592  0.7089
 7466TIP3   OH243812   6.522   4.548   3.635 -0.4311 -0.7756  0.4413
 7466TIP3    H143813   6.489   4.531   3.723 -3.0638 -0.6488 -0.4753
 7466TIP3    H243814   6.460   4.612   3.599  0.9256 -0.4288 -1.3060
 7467TIP3   OH243815   4.878   6.308  11.854 -0.1150 -0.0045 -0.3133
 7467TIP3    H143816   4.876   6.297  11.949  0.7709  0.6772 -0.2138
 7467TIP3    H243817   4.806   6.369  11.836  0.7460  1.1673  0.1114
 7468TIP3   OH243818   4.890   4.650   6.108 -0.3779  0.5640 -0.3674
 7468TIP3    H143819   4.819   4.587   6.110 -1.0948  1.3722  0.4042
 7468TIP3    H243820   4.923   4.652   6.198  0.3439  0.5031 -0.6234
 7469TIP3   OH243821   1.547   2.995   3.059  0.2413  0.3290  0.2252
 7469TIP3    H143822   1.607   3.063   3.090  2.6654 -1.4299 -0.4914
 7469TIP3    H243823   1.572   2.982   2.967 -0.6750 -1.0189  0.1657
 7470TIP3   OH243824   3.248   1.544  15.894  1.2645  0.2070 -0.2891
 7470TIP3    H143825   3.222   1.551  15.986  2.5297  0.9715  0.0343
 7470TIP3    H243826   3.291   1.458  15.888 -3.6828 -2.3319 -1.4797
 7471TIP3   OH243827   6.340   1.889  11.683 -0.3774 -0.0171 -0.5554
 7471TIP3    H143828   6.436   1.888  11.685 -0.4007 -1.8194  0.4887
 7471TIP3    H243829   6.318   1.858  11.595  0.0007  0.6860 -0.8991
 7472TIP3   OH243830   5.589   5.479  12.899 -0.8474 -0.1227  0.7405
 7472TIP3    H143831   5.510   5.526  12.872 -0.6506 -1.2686 -1.9113
 7472TIP3    H243832   5.654   5.500  12.832  0.7123 -0.3045  2.1511
 7473TIP3   OH243833   5.280   0.245   6.153 -0.3241  0.0668 -0.0627
 7473TIP3    H143834   5.374   0.260   6.138 -0.6467  1.5327 -0.6971
 7473TIP3    H243835   5.237   0.312   6.099 -1.7107 -0.0671  0.8842
 7474TIP3   OH243836   3.554   5.774  15.389  0.2256 -0.1872 -0.3171
 7474TIP3    H143837   3.639   5.734  15.405 -0.3174 -0.6813  1.4687
 7474TIP3    H243838   3.498   5.702  15.360  0.2558  0.0109 -0.8584
 7475TIP3   OH243839   4.190   5.177  17.132 -0.0002 -0.0141  0.3480
 7475TIP3    H143840   4.154   5.105  17.184 -0.7994  0.9356  1.1135
 7475TIP3    H243841   4.276   5.195  17.172 -0.0362 -0.1730  0.4961
 7476TIP3   OH243842   4.081   5.692  11.386 -0.2372  0.2222 -0.1865
 7476TIP3    H143843   4.136   5.620  11.355 -0.5958 -0.7630  1.3955
 7476TIP3    H243844   4.096   5.762  11.323  0.4303 -1.0967 -1.5331
 7477TIP3   OH243845   5.384   3.139  14.462 -0.0632  0.2542  0.6889
 7477TIP3    H143846   5.372   3.163  14.370  0.6598 -1.6914  0.0638
 7477TIP3    H243847   5.477   3.116  14.468 -0.1564  0.1892  1.8740
 7478TIP3   OH243848   0.754   0.331   4.887 -0.2389 -0.1529  0.2201
 7478TIP3    H143849   0.707   0.254   4.856 -1.2805 -0.1627  1.7713
 7478TIP3    H243850   0.704   0.405   4.852  0.2554 -0.1671 -0.5297
 7479TIP3   OH243851   3.798   2.059  15.369  0.2013  0.0150  0.2713
 7479TIP3    H143852   3.711   2.047  15.332  1.1662 -1.2538 -1.6893
 7479TIP3    H243853   3.801   2.151  15.395 -0.7863  0.7763 -2.1520
 7480TIP3   OH243854   3.001   6.235   2.815 -0.7809 -0.3393  0.0484
 7480TIP3    H143855   2.964   6.209   2.900 -0.5855 -0.6964  0.0240
 7480TIP3    H243856   3.022   6.152   2.771  1.7774 -0.1582  0.8287
 7481TIP3   OH243857   0.913   0.881   1.082 -0.2471  0.2252  0.2916
 7481TIP3    H143858   0.904   0.876   1.177  0.2934  0.0727  0.3366
 7481TIP3    H243859   0.846   0.822   1.048  1.5254 -2.0342  0.6562
 7482TIP3   OH243860   3.271   3.223   1.758 -0.6842 -0.2715  0.2013
 7482TIP3    H143861   3.341   3.161   1.779 -1.3357 -0.7207  1.0662
 7482TIP3    H243862   3.221   3.179   1.689 -1.4325 -0.9307  1.1530
 7483TIP3   OH243863   4.791   1.433   2.276  0.1329  0.4291 -0.1024
 7483TIP3    H143864   4.725   1.378   2.319  1.4264 -0.3611  0.9471
 7483TIP3    H243865   4.749   1.518   2.265 -0.0778  0.8282  3.2918
 7484TIP3   OH243866   5.516   2.988   3.321 -0.3759  0.2361 -0.8765
 7484TIP3    H143867   5.544   3.053   3.257 -0.6701  1.6626  0.4247
 7484TIP3    H243868   5.538   2.904   3.280  2.1514  1.1914 -1.5703
 7485TIP3   OH243869   4.449   2.639  13.950 -0.2627 -0.2190 -1.0298
 7485TIP3    H143870   4.384   2.686  13.898 -0.6794  0.2801 -0.0928
 7485TIP3    H243871   4.498   2.709  13.995 -0.1726 -0.6370 -0.4708
 7486TIP3   OH243872   5.458   0.427   4.435 -0.4490  0.9872 -0.2288
 7486TIP3    H143873   5.547   0.430   4.471 -1.1296  1.4674  1.4107
 7486TIP3    H243874   5.402   0.407   4.509 -1.8254  1.5537 -1.0943
 7487TIP3   OH243875   0.973   1.273   4.826 -0.3691  0.1894 -0.0993
 7487TIP3    H143876   0.964   1.188   4.869  0.8583  0.4290  0.6606
 7487TIP3    H243877   1.048   1.264   4.769  0.4299  1.0805  0.7869
 7488TIP3   OH243878   5.525   1.958  15.761  0.5955  0.2673  0.1609
 7488TIP3    H143879   5.491   1.877  15.723 -0.1729  1.7159 -2.2851
 7488TIP3    H243880   5.462   1.980  15.830 -1.2545  0.7359 -1.6288
 7489TIP3   OH243881   0.894   3.008  11.919 -0.0967 -0.5289 -0.1292
 7489TIP3    H143882   0.972   2.995  11.865 -0.0377  0.3035 -0.2493
 7489TIP3    H243883   0.896   2.937  11.983  0.1624 -1.1657 -0.8347
 7490TIP3   OH243884   6.422   4.401  11.629 -0.0697  0.1611 -0.2359
 7490TIP3    H143885   6.467   4.334  11.578 -0.8331  2.3055 -3.8859
 7490TIP3    H243886   6.473   4.408  11.710  3.0317 -1.1729 -1.9889
 7491TIP3   OH243887   2.353   6.454   2.221  0.0611 -0.6826 -0.2409
 7491TIP3    H143888   2.364   6.359   2.226 -1.5230 -0.8211  0.9841
 7491TIP3    H243889   2.258   6.467   2.230  0.1645  0.9634 -1.3385
 7492TIP3   OH243890   0.283   0.274  15.978  0.2353 -0.3205  0.0550
 7492TIP3    H143891   0.280   0.341  15.909  0.0455  0.2518  0.6149
 7492TIP3    H243892   0.209   0.217  15.960  0.0645 -0.0521 -0.0953
 7493TIP3   OH243893   6.458   2.446   6.037  0.0852 -0.5030  0.3094
 7493TIP3    H143894   6.401   2.379   6.001 -1.7869  1.6215 -0.7744
 7493TIP3    H243895   6.467   2.423   6.129 -1.3047 -1.7097  0.1556
 7494TIP3   OH243896   5.156   3.416  16.285  0.1056 -0.0660  0.2355
 7494TIP3    H143897   5.179   3.336  16.333  1.3085 -1.0895 -2.0067
 7494TIP3    H243898   5.239   3.448  16.249 -0.3406  2.2592  1.1123
 7495TIP3   OH243899   0.759   3.980  11.993  0.3790 -0.6523  0.3892
 7495TIP3    H143900   0.742   3.985  11.899  3.3107 -0.4611 -0.1488
 7495TIP3    H243901   0.787   3.889  12.008  2.3745 -0.0133  0.6348
 7496TIP3   OH243902   1.769   2.376  14.972 -0.2167 -0.4714 -0.1808
 7496TIP3    H143903   1.863   2.370  14.986 -0.3539 -2.5743  0.0788
 7496TIP3    H243904   1.759   2.430  14.894  1.1559  0.5212  0.3279
 7497TIP3   OH243905   5.954   2.855   4.109 -0.3326  0.1871  0.4274
 7497TIP3    H143906   5.906   2.773   4.106  0.7346 -0.4404  0.0677
 7497TIP3    H243907   5.902   2.916   4.056 -1.0956 -0.2773  0.6536
 7498TIP3   OH243908   1.147   2.702  13.704  0.1192  0.4612  0.1348
 7498TIP3    H143909   1.123   2.685  13.795  0.6846 -1.7453 -0.0978
 7498TIP3    H243910   1.151   2.615  13.664 -1.2881  1.4924 -2.3025
 7499TIP3   OH243911   3.397   0.486  11.064  0.3173 -0.6503  0.6444
 7499TIP3    H143912   3.334   0.515  11.130 -1.5411 -1.9584 -0.5304
 7499TIP3    H243913   3.373   0.534  10.985  2.2701  0.5823  0.7490
 7500TIP3   OH243914   1.137   5.388   3.062 -0.3502 -0.0849  0.0324
 7500TIP3    H143915   1.078   5.457   3.031  0.6198  0.4608 -0.6368
 7500TIP3    H243916   1.090   5.306   3.045 -0.4382  0.2818 -1.5883
 7501TIP3   OH243917   6.145   0.863   4.961 -0.4212  0.5775  0.7100
 7501TIP3    H143918   6.201   0.917   5.016  1.8037 -1.8406  0.9263
 7501TIP3    H243919   6.118   0.920   4.889  1.6457  2.0417  1.0579
 7502TIP3   OH243920   1.978   4.738  13.061  0.3669  0.9486  0.2899
 7502TIP3    H143921   1.887   4.732  13.093  0.4040 -1.5690  0.0417
 7502TIP3    H243922   2.023   4.790  13.127 -1.0388  1.3935  0.9304
 7503TIP3   OH243923   3.401   0.720  13.238 -0.3937 -0.2546  0.2498
 7503TIP3    H143924   3.391   0.813  13.218  1.9922 -0.2084 -0.8502
 7503TIP3    H243925   3.363   0.675  13.162  2.8728 -0.1160 -1.5251
 7504TIP3   OH243926   0.094   3.880  13.556  0.2052  0.1802  0.2601
 7504TIP3    H143927   0.094   3.793  13.517 -0.7534  0.8571 -1.3075
 7504TIP3    H243928   0.065   3.867  13.646 -0.9293 -1.0008 -0.2670
 7505TIP3   OH243929   5.133   1.761  14.936 -0.3126  0.5696 -0.6109
 7505TIP3    H143930   5.225   1.735  14.932 -0.1758  0.9378  0.1185
 7505TIP3    H243931   5.089   1.688  14.980 -0.2020  0.8472 -0.0428
 7506TIP3   OH243932   0.696   1.231  13.759 -0.7788 -0.5494  0.1292
 7506TIP3    H143933   0.740   1.282  13.827  0.0508 -0.3680 -0.5326
 7506TIP3    H243934   0.677   1.147  13.800 -0.7654 -0.2460  0.7556
 7507TIP3   OH243935   0.350   1.241  12.194  0.0078 -0.0513  0.7546
 7507TIP3    H143936   0.428   1.187  12.178  0.8995  0.8722  1.8708
 7507TIP3    H243937   0.281   1.198  12.144  1.4816 -0.2597 -1.1903
 7508TIP3   OH243938   4.532   2.218   1.210  0.1183  0.4944  0.5118
 7508TIP3    H143939   4.598   2.196   1.276  0.2879 -1.5496 -0.3050
 7508TIP3    H243940   4.460   2.157   1.226  0.4990 -0.5663 -1.6610
 7509TIP3   OH243941   2.775   3.411   4.233  0.2327  0.1215  0.3379
 7509TIP3    H143942   2.690   3.437   4.196  0.4080  1.6397  0.9745
 7509TIP3    H243943   2.763   3.415   4.327  1.3098  1.3923  0.4388
 7510TIP3   OH243944   1.267   1.867  12.069  0.4305  0.1577 -0.1204
 7510TIP3    H143945   1.280   1.785  12.023  0.3733 -0.9604  1.8232
 7510TIP3    H243946   1.354   1.891  12.101 -0.0037 -0.6181  1.7112
 7511TIP3   OH243947   6.380   1.631   0.654  0.3553 -0.4463 -0.5059
 7511TIP3    H143948   6.416   1.611   0.568 -0.6312 -0.1707 -0.9862
 7511TIP3    H243949   6.285   1.632   0.641  0.1247 -2.1243  0.9492
 7512TIP3   OH243950   0.328   5.090   3.238 -0.6025 -0.1494  0.2442
 7512TIP3    H143951   0.361   5.153   3.174  0.1593 -1.3473 -0.5733
 7512TIP3    H243952   0.234   5.103   3.239 -0.5085  0.6126 -0.3286
 7513TIP3   OH243953   3.550   5.086   2.199  0.2496 -0.0694 -0.2771
 7513TIP3    H143954   3.523   5.042   2.118  1.6997 -2.2050  0.3813
 7513TIP3    H243955   3.531   5.023   2.268  2.4735  0.2819  0.6663
 7514TIP3   OH243956   2.973   3.969  16.948  0.1365  0.3841 -0.0252
 7514TIP3    H143957   2.902   3.908  16.967  1.5042 -1.2977 -0.1930
 7514TIP3    H243958   3.016   3.983  17.033 -1.1880  2.4554  0.3300
 7515TIP3   OH243959   0.948   6.099   0.126 -0.4178 -0.0003 -0.3156
 7515TIP3    H143960   0.941   6.035   0.055  0.8150  1.3229 -1.6667
 7515TIP3    H243961   1.042   6.114   0.135 -0.6394  0.8261  0.7126
 7516TIP3   OH243962   6.434   4.985  16.188  0.0770  0.0137  0.3256
 7516TIP3    H143963   6.451   5.078  16.173 -0.0847 -0.3213 -2.1161
 7516TIP3    H243964   6.449   4.944  16.103  0.3498 -2.2293  1.4259
 7517TIP3   OH243965   2.428   4.159   6.885  0.7337  0.2114  0.0412
 7517TIP3    H143966   2.496   4.096   6.911  0.1902  0.3149  1.7733
 7517TIP3    H243967   2.366   4.107   6.834  1.0828 -0.3102  0.1433
 7518TIP3   OH243968   0.267   3.538   1.256  0.0744 -0.3061  0.3345
 7518TIP3    H143969   0.353   3.559   1.292  0.1663 -0.3737  0.1521
 7518TIP3    H243970   0.214   3.514   1.333 -0.2577  1.3294  0.6488
 7519TIP3   OH243971   6.613   5.682   1.128  0.1450 -0.0339  0.3411
 7519TIP3    H143972   6.563   5.642   1.199 -0.6042  1.3655  0.6309
 7519TIP3    H243973   6.548   5.732   1.079  0.9932  0.5554 -0.1919
 7520TIP3   OH243974   1.850   4.665   3.716 -0.1509 -0.0931 -0.3036
 7520TIP3    H143975   1.783   4.694   3.778  0.2649 -0.4961  0.3461
 7520TIP3    H243976   1.923   4.726   3.730 -0.5173  0.5682 -1.2656
 7521TIP3   OH243977   1.348   3.430   0.572 -0.1947  0.8101 -0.1600
 7521TIP3    H143978   1.312   3.381   0.646  0.7924  0.2149 -0.0717
 7521TIP3    H243979   1.408   3.370   0.530  0.8634  1.8626 -0.1821
 7522TIP3   OH243980   0.070   3.133   0.014 -0.0835  0.2981  0.1080
 7522TIP3    H143981  -0.010   3.113  -0.034 -0.0706  0.4537  0.0231
 7522TIP3    H243982   0.058   3.222   0.046  1.3578  1.5045 -2.5373
 7523TIP3   OH243983   6.083   3.638  14.827  0.0239  0.0407  0.1603
 7523TIP3    H143984   6.074   3.732  14.809 -2.9572 -0.4439 -1.3024
 7523TIP3    H243985   6.039   3.627  14.912  0.5733  0.0119  0.4373
 7524TIP3   OH243986   3.714   6.084   1.924 -0.1684  0.1532 -0.3798
 7524TIP3    H143987   3.796   6.125   1.953  0.2511  0.3643 -1.8289
 7524TIP3    H243988   3.740   6.025   1.853 -1.1341 -0.5657 -0.1458
 7525TIP3   OH243989   6.503   1.933  15.970  0.0827 -0.1983  0.3042
 7525TIP3    H143990   6.449   1.946  16.048 -0.3622  0.2764 -0.0903
 7525TIP3    H243991   6.528   1.840  15.974  0.7902  0.0340  1.4868
 7526TIP3   OH243992   3.776   3.221  11.093  0.0167 -0.1377 -0.1356
 7526TIP3    H143993   3.719   3.297  11.085 -0.8647 -0.8617 -0.7785
 7526TIP3    H243994   3.790   3.191  11.003  0.1276 -0.9053  0.1302
 7527TIP3   OH243995   6.088   3.701   2.863 -0.4433  0.5523 -0.1204
 7527TIP3    H143996   6.043   3.768   2.915 -1.7771 -2.6812  3.0762
 7527TIP3    H243997   6.020   3.662   2.810 -0.0596  0.3696 -0.4762
 7528TIP3   OH243998   4.841   5.555   6.245 -0.2375  0.4789 -0.4826
 7528TIP3    H143999   4.883   5.599   6.171 -0.7097  0.6784 -0.6275
 7528TIP3    H244000   4.908   5.555   6.314  1.2398 -2.2203 -1.8258
 7529TIP3   OH244001   5.064   0.621  15.798 -0.4818  0.1627  0.0425
 7529TIP3    H144002   4.986   0.572  15.771  0.5080 -1.0600 -0.6329
 7529TIP3    H244003   5.074   0.688  15.730  1.2458 -2.0887 -1.9993
 7530TIP3   OH244004   4.246   1.607   1.972  0.3353 -0.1773  0.0494
 7530TIP3    H144005   4.193   1.641   1.901  0.8539  1.0382  0.2305
 7530TIP3    H244006   4.334   1.598   1.935  1.0698  2.3327  1.0279
 7531TIP3   OH244007   6.241   1.537  16.092  0.1701 -0.2894 -0.8227
 7531TIP3    H144008   6.167   1.551  16.151  1.7249  1.3570  0.8043
 7531TIP3    H244009   6.286   1.460  16.128  1.9952  1.6180  1.1533
 7532TIP3   OH244010   6.706   5.345  13.354  0.2798 -0.3053 -0.5307
 7532TIP3    H144011   6.644   5.272  13.345  2.4305 -1.9615 -2.7014
 7532TIP3    H244012   6.656   5.422  13.327 -1.5529 -1.2202  0.1435
 7533TIP3   OH244013   2.065   6.023  14.158  0.1295  0.2817 -0.1267
 7533TIP3    H144014   2.006   5.953  14.130 -0.0034  0.2272  0.2966
 7533TIP3    H244015   2.010   6.080  14.212 -0.2426  1.6965 -1.9268
 7534TIP3   OH244016   3.985   4.010   3.486 -0.1086  0.3390 -0.2355
 7534TIP3    H144017   3.926   4.081   3.509 -0.7677 -0.0345 -0.7683
 7534TIP3    H244018   3.987   3.954   3.564 -0.9059  0.0490 -0.4207
 7535TIP3   OH244019   2.076   1.415   2.222 -0.0825  0.0027 -0.3300
 7535TIP3    H144020   2.168   1.388   2.216 -0.1178 -0.0199 -0.7760
 7535TIP3    H244021   2.079   1.507   2.245  0.0825  0.5830 -2.5575
 7536TIP3   OH244022   1.937   2.673   5.006 -0.0822  0.4852  0.2955
 7536TIP3    H144023   1.889   2.590   5.012  0.8510 -0.0757  0.0492
 7536TIP3    H244024   1.909   2.710   4.922 -0.8410  0.6474  0.6082
 7537TIP3   OH244025   1.147   2.338  16.380 -0.3922  0.3976  0.5096
 7537TIP3    H144026   1.225   2.331  16.325  0.6931 -1.5232  2.2214
 7537TIP3    H244027   1.077   2.303  16.326  0.9426 -2.9576  0.8363
 7538TIP3   OH244028   3.759   5.180   0.228  0.0631  0.3296  0.1014
 7538TIP3    H144029   3.741   5.096   0.272 -0.2607 -0.4828 -1.5404
 7538TIP3    H244030   3.816   5.227   0.289 -2.6526  0.4354  2.7052
 7539TIP3   OH244031   2.630   3.745   2.375 -0.0779  0.0546  0.1669
 7539TIP3    H144032   2.698   3.708   2.319  0.1702 -1.1628  1.2662
 7539TIP3    H244033   2.666   3.828   2.405  0.8313 -0.4768  0.5660
 7540TIP3   OH244034   4.894   4.810   2.058  0.1272  1.0724 -0.0977
 7540TIP3    H144035   4.898   4.718   2.032  0.8130  1.1123 -0.1306
 7540TIP3    H244036   4.956   4.818   2.130 -1.2628  1.1139  1.1338
 7541TIP3   OH244037   2.677   4.615  16.062 -0.5310 -0.2626  0.3737
 7541TIP3    H144038   2.642   4.537  16.019  1.4630 -1.8406  1.5079
 7541TIP3    H244039   2.715   4.666  15.991 -0.3036 -1.1809 -0.1764
 7542TIP3   OH244040   5.140   5.848  12.850  0.4618 -0.6260 -0.2013
 7542TIP3    H144041   5.062   5.899  12.872  0.8842 -0.1489  0.2069
 7542TIP3    H244042   5.106   5.768  12.809 -0.2538 -0.6732  0.4823
 7543TIP3   OH244043   0.178   1.174   3.200  0.1298  0.2020 -0.4079
 7543TIP3    H144044   0.128   1.111   3.252  1.2550 -2.0283 -1.9129
 7543TIP3    H244045   0.112   1.231   3.161 -0.9179  0.0115  1.0269
 7544TIP3   OH244046   3.220   4.714  11.063 -0.3144  0.1674  0.5474
 7544TIP3    H144047   3.213   4.701  10.968 -1.1590 -1.6425  0.8231
 7544TIP3    H244048   3.144   4.767  11.085  0.2258  1.1216  0.1257
 7545TIP3   OH244049   4.730   1.718  11.917 -0.0935 -0.4238 -0.2727
 7545TIP3    H144050   4.715   1.698  12.010 -1.8876  0.8073 -0.2649
 7545TIP3    H244051   4.808   1.668  11.894 -1.8819 -3.9404  0.8403
 7546TIP3   OH244052   2.555   5.932  14.280  0.4624  0.0589  1.0055
 7546TIP3    H144053   2.462   5.954  14.277  0.3275 -0.3778  1.9565
 7546TIP3    H244054   2.593   5.995  14.341  0.2731 -1.5879  2.8661
 7547TIP3   OH244055   0.413   1.936   4.859 -0.1755 -0.7372 -0.0695
 7547TIP3    H144056   0.374   2.019   4.833 -2.4941 -1.7136  0.0960
 7547TIP3    H244057   0.460   1.906   4.781  0.2860  0.4894 -0.2742
 7548TIP3   OH244058   3.590   2.251   0.550 -0.1677 -0.0114  0.1801
 7548TIP3    H144059   3.564   2.295   0.631 -0.7308  1.1676 -0.6337
 7548TIP3    H244060   3.569   2.313   0.481  2.3346 -0.1256 -0.7272
 7549TIP3   OH244061   2.428   6.671  11.837  0.3315 -0.1424  0.0741
 7549TIP3    H144062   2.335   6.668  11.859  0.0525 -1.5030 -1.2420
 7549TIP3    H244063   2.454   6.761  11.857 -1.2767  0.2651  0.3977
 7550TIP3   OH244064   1.379   6.061  16.699 -0.1448 -0.0564  0.1482
 7550TIP3    H144065   1.327   6.042  16.621 -0.1021 -1.0370  0.3490
 7550TIP3    H244066   1.345   6.144  16.731  1.4411  1.5810 -2.2676
 7551TIP3   OH244067   3.910   2.047  13.574 -0.0221  0.8854 -1.0868
 7551TIP3    H144068   3.916   2.096  13.656  0.0791  0.2582 -0.7201
 7551TIP3    H244069   3.966   1.971  13.587 -2.6631 -1.0217 -0.4738
 7552TIP3   OH244070   4.643   0.198  13.023 -0.2981 -0.3559  0.7671
 7552TIP3    H144071   4.735   0.173  13.011  0.1870  1.0109  1.5361
 7552TIP3    H244072   4.629   0.196  13.117 -0.5017  1.2825  0.7955
 7553TIP3   OH244073   5.247   6.148   1.805  0.2356  0.1675 -0.1903
 7553TIP3    H144074   5.258   6.233   1.763  0.9319  0.2656  0.1673
 7553TIP3    H244075   5.325   6.139   1.861  0.3745 -0.8751 -0.5281
 7554TIP3   OH244076   1.292   2.139   4.667 -1.0284 -0.2398  0.6290
 7554TIP3    H144077   1.311   2.230   4.644 -1.3866 -0.3259 -0.0070
 7554TIP3    H244078   1.210   2.143   4.716 -0.6323 -0.1354  1.2903
 7555TIP3   OH244079   5.318   5.493  12.613  0.5958 -0.0438 -0.2974
 7555TIP3    H144080   5.224   5.481  12.622  0.8320 -2.0215 -0.2916
 7555TIP3    H244081   5.344   5.538  12.693 -0.4080  0.9858 -0.5357
 7556TIP3   OH244082   1.917   6.146  14.348 -0.6721  0.1193 -0.7332
 7556TIP3    H144083   1.976   6.180  14.416  0.7948  2.0109 -2.8593
 7556TIP3    H244084   1.852   6.096  14.396  0.3079  1.4172  2.0836
 7557TIP3   OH244085   3.738   5.814   1.312 -0.1113 -0.3349  0.4115
 7557TIP3    H144086   3.745   5.759   1.390  2.1536  0.8834  1.1293
 7557TIP3    H244087   3.699   5.895   1.344  0.2503 -0.0613  0.1609
 7558TIP3   OH244088   1.499   3.477  12.135 -0.0147 -0.8007  0.2903
 7558TIP3    H144089   1.412   3.475  12.096  0.4377 -0.1736 -0.7527
 7558TIP3    H244090   1.517   3.385  12.158 -0.8746 -0.9538  0.3655
 7559TIP3   OH244091   5.609   1.568  14.146 -0.3196 -0.5471  0.8929
 7559TIP3    H144092   5.684   1.599  14.094 -0.4216 -0.9766  0.4804
 7559TIP3    H244093   5.536   1.567  14.084 -0.8455  0.5843  1.4874
 7560TIP3   OH244094   1.476   3.802  16.633 -0.4469  0.2183 -0.5510
 7560TIP3    H144095   1.496   3.784  16.725  0.9464  0.7664 -0.7357
 7560TIP3    H244096   1.450   3.894  16.631 -1.0310  0.0554 -0.6232
 7561TIP3   OH244097   6.197   5.960  17.054 -0.0168  0.3539  0.3309
 7561TIP3    H144098   6.165   6.011  16.980  1.8457  1.3163  0.1693
 7561TIP3    H244099   6.271   5.910  17.018 -0.9895 -1.4983  0.8129
 7562TIP3   OH244100   1.839   0.875   0.253  0.3085  0.5013 -0.1334
 7562TIP3    H144101   1.903   0.904   0.319 -1.6756 -0.7270  2.3862
 7562TIP3    H244102   1.820   0.784   0.276 -2.4350  0.8848 -0.7578
 7563TIP3   OH244103   1.245   6.401  14.411  0.1608 -0.8389  0.2549
 7563TIP3    H144104   1.263   6.314  14.375 -0.6615 -1.2164  0.7440
 7563TIP3    H244105   1.265   6.461  14.339 -0.2855 -1.5080 -0.4344
 7564TIP3   OH244106   6.731   4.299   1.994  0.6521  0.0156 -0.0564
 7564TIP3    H144107   6.802   4.341   2.042  0.3241 -0.5317  0.9254
 7564TIP3    H244108   6.720   4.214   2.036 -0.9115  0.2861  0.1203
 7565TIP3   OH244109   4.502   5.585  11.389 -0.6960  0.8101 -0.0596
 7565TIP3    H144110   4.590   5.551  11.371  0.1083  2.3087  0.8344
 7565TIP3    H244111   4.515   5.680  11.398 -2.6287  1.2194 -1.2028
 7566TIP3   OH244112   6.755   4.457   2.312  0.1653 -0.7001 -0.3044
 7566TIP3    H144113   6.769   4.504   2.394 -0.3964 -3.0676  1.2130
 7566TIP3    H244114   6.707   4.378   2.337 -0.1542 -1.4136 -2.9409
 7567TIP3   OH244115   6.280   0.012   6.228  0.5704 -0.1350  0.1999
 7567TIP3    H144116   6.187  -0.011   6.225  0.6623 -0.3033 -1.3462
 7567TIP3    H244117   6.314  -0.038   6.303 -1.1102  1.9761  2.4651
 7568TIP3   OH244118   1.217   5.990  14.849 -0.0427 -0.1281  0.5180
 7568TIP3    H144119   1.276   5.995  14.774 -1.9144 -0.0262 -0.9928
 7568TIP3    H244120   1.163   5.913  14.832 -3.6493  2.5206 -0.6914
 7569TIP3   OH244121   4.545   2.885   4.797  0.0687  0.2658 -0.1293
 7569TIP3    H144122   4.567   2.919   4.884  1.3540  0.0831 -0.3778
 7569TIP3    H244123   4.452   2.907   4.786  0.0369  0.7817  1.0582
 7570TIP3   OH244124   3.902   5.012  15.535 -0.4209 -0.4644 -0.1756
 7570TIP3    H144125   3.868   4.966  15.459 -0.8936 -1.0944  0.4180
 7570TIP3    H244126   3.884   5.104  15.517 -1.6663 -0.7188 -0.2507
 7571TIP3   OH244127   5.985   3.542  12.244 -0.6504  0.5963 -0.2157
 7571TIP3    H144128   5.963   3.594  12.321 -1.2197  0.0721 -0.0117
 7571TIP3    H244129   6.010   3.606  12.178  0.3101  1.0200  0.5512
 7572TIP3   OH244130   2.182   0.638   1.404  0.3799 -0.0075 -0.0341
 7572TIP3    H144131   2.151   0.728   1.394 -0.2980 -0.4966 -2.5485
 7572TIP3    H244132   2.274   0.641   1.380  0.3932  0.0259  0.0205
 7573TIP3   OH244133   5.133   4.820  16.159  0.4095 -1.1219 -0.2277
 7573TIP3    H144134   5.166   4.804  16.247  2.2168 -0.5158 -0.7737
 7573TIP3    H244135   5.211   4.837  16.107 -0.5789 -2.1124 -2.0920
 7574TIP3   OH244136   0.868   0.576  11.207  0.1091 -0.5963 -0.1482
 7574TIP3    H144137   0.944   0.534  11.169 -0.8284 -0.9464 -1.6678
 7574TIP3    H244138   0.892   0.669  11.212  0.7768 -0.7619 -0.2579
 7575TIP3   OH244139   2.789   5.187  16.364  0.1562 -0.0211 -0.3369
 7575TIP3    H144140   2.784   5.091  16.370  0.0511  0.0250  0.3435
 7575TIP3    H244141   2.703   5.217  16.389 -0.2998  0.2036 -2.0742
 7576TIP3   OH244142   1.042   4.698  13.520  0.1646 -0.6082 -0.9325
 7576TIP3    H144143   0.959   4.685  13.564  1.9196 -2.2789  2.0412
 7576TIP3    H244144   1.084   4.770  13.568  1.7634 -1.9261 -0.3146
 7577TIP3   OH244145   2.012   0.404   4.743  0.5824  0.4903  0.0740
 7577TIP3    H144146   2.024   0.345   4.669 -1.3624  1.9744 -1.4642
 7577TIP3    H244147   1.956   0.474   4.710  0.3537  1.6307  2.7182
 7578TIP3   OH244148   5.242   6.159   4.036 -0.1294  0.0764 -0.5761
 7578TIP3    H144149   5.283   6.104   3.970  0.5610  0.2342 -0.2805
 7578TIP3    H244150   5.311   6.220   4.064 -0.2513 -0.3225  0.6587
 7579TIP3   OH244151   4.502   5.075  14.162 -0.0168 -0.3491  0.2684
 7579TIP3    H144152   4.531   5.026  14.239 -0.6838 -3.2210 -1.2376
 7579TIP3    H244153   4.408   5.087  14.175 -0.5619 -2.8681 -1.1405
 7580TIP3   OH244154   0.122   1.770   0.712  0.5627  0.3528  0.2443
 7580TIP3    H144155   0.153   1.834   0.776  0.8481 -0.2237  0.6873
 7580TIP3    H244156   0.130   1.686   0.757 -0.7885  0.1131  0.0285
 7581TIP3   OH244157   1.437   5.751  14.909  0.3675 -0.1880  0.5375
 7581TIP3    H144158   1.503   5.744  14.978  0.5511 -2.2903  0.2059
 7581TIP3    H244159   1.480   5.797  14.838  1.2306 -0.8583  0.6235
 7582TIP3   OH244160   3.612   6.215  13.645 -0.0455  0.4182  0.4126
 7582TIP3    H144161   3.523   6.189  13.623  0.4899 -0.4182 -0.8379
 7582TIP3    H244162   3.625   6.181  13.734 -1.2619  1.3119  0.9458
 7583TIP3   OH244163   2.766   3.447  13.586  0.3092  0.4884 -0.1863
 7583TIP3    H144164   2.857   3.444  13.616  0.3895  3.3764  0.0676
 7583TIP3    H244165   2.773   3.450  13.491  0.3196 -2.1709 -0.3070
 7584TIP3   OH244166   0.659   2.596   3.039  0.0728  0.9828 -0.2749
 7584TIP3    H144167   0.660   2.552   2.954 -1.0908 -0.8851  0.6443
 7584TIP3    H244168   0.716   2.672   3.028  2.3316 -0.8815 -1.8546
 7585TIP3   OH244169   3.697   1.467   2.855 -0.4796 -0.3271 -0.3961
 7585TIP3    H144170   3.703   1.385   2.903 -0.2227  0.0307  0.1832
 7585TIP3    H244171   3.620   1.511   2.891 -1.4600 -0.9340 -1.6793
 7586TIP3   OH244172   4.727   6.166  16.265  0.4094  0.5691  0.1075
 7586TIP3    H144173   4.689   6.254  16.256  0.7458  0.7689  0.6040
 7586TIP3    H244174   4.790   6.160  16.193 -2.0535 -0.5599 -2.0158
 7587TIP3   OH244175   2.157   1.095   2.560 -0.0933 -0.0187  0.3761
 7587TIP3    H144176   2.076   1.143   2.580  0.0329  0.5074 -0.3534
 7587TIP3    H244177   2.133   1.038   2.487  0.2965  0.4348 -0.1105
 7588TIP3   OH244178   1.735   5.261   0.132  0.3165 -0.4417 -0.0412
 7588TIP3    H144179   1.755   5.189   0.193  2.1591  0.3715  0.3284
 7588TIP3    H244180   1.642   5.249   0.113 -0.1776 -1.0855  2.4715
 7589TIP3   OH244181   3.468   6.061   1.614  0.7482 -0.1405  0.0354
 7589TIP3    H144182   3.446   6.073   1.522  1.6335  0.3376 -0.1123
 7589TIP3    H244183   3.545   6.004   1.613  0.0228 -1.1618  0.5304
 7590TIP3   OH244184   3.189   4.301   3.920 -0.1302 -0.2801 -0.4317
 7590TIP3    H144185   3.256   4.295   3.988 -2.4383  0.8305  1.9967
 7590TIP3    H244186   3.152   4.212   3.916 -0.5038 -0.1571  0.2910
 7591TIP3   OH244187   5.369   2.085   1.715 -0.1366 -0.5526 -0.1791
 7591TIP3    H144188   5.462   2.066   1.729 -0.1562  0.5377  1.4787
 7591TIP3    H244189   5.361   2.094   1.620  1.3522 -1.1015 -0.3771
 7592TIP3   OH244190   1.057   1.592  17.202  0.0481  0.3836 -0.6122
 7592TIP3    H144191   1.142   1.626  17.173  0.0689  0.5836 -0.3193
 7592TIP3    H244192   1.073   1.499  17.218  0.1772  0.3898 -0.7020
 7593TIP3   OH244193   0.425   5.041  16.160  0.2051 -0.3790 -0.1332
 7593TIP3    H144194   0.409   5.057  16.067  0.0850  1.8291  0.2289
 7593TIP3    H244195   0.509   5.084  16.177 -0.3332  0.2308  1.0197
 7594TIP3   OH244196   0.592   3.077   1.319 -0.7720  0.5860  0.5388
 7594TIP3    H144197   0.505   3.059   1.284 -1.3341  1.0433  1.6832
 7594TIP3    H244198   0.626   3.147   1.264 -0.0150 -1.4478 -1.6520
 7595TIP3   OH244199   2.875   6.320  16.739  0.0623 -0.1589 -0.0583
 7595TIP3    H144200   2.869   6.241  16.793  0.1065  0.9309  1.5714
 7595TIP3    H244201   2.968   6.334  16.726  0.2074  1.4205  2.3973
 7596TIP3   OH244202   2.878   0.954  12.652 -0.4711 -0.6408  0.4449
 7596TIP3    H144203   2.828   0.915  12.723 -0.0620  1.2276  1.8204
 7596TIP3    H244204   2.927   1.025  12.694  1.0969 -0.5969 -1.3962
 7597TIP3   OH244205   1.328   2.102   0.349 -0.0842 -0.1976 -0.6562
 7597TIP3    H144206   1.316   2.041   0.277 -1.5858 -0.9864  0.2173
 7597TIP3    H244207   1.416   2.086   0.381  0.4224 -0.1578 -2.0297
 7598TIP3   OH244208   5.191   2.621  12.753 -0.3930  0.4532  0.1488
 7598TIP3    H144209   5.166   2.713  12.746 -1.9519 -0.0064 -0.5591
 7598TIP3    H244210   5.142   2.588  12.828  0.9191  0.4392  1.0048
 7599TIP3   OH244211   2.104   4.028   1.496 -0.4172  0.2764 -0.3395
 7599TIP3    H144212   2.060   3.986   1.422  0.4586 -0.0467 -0.6786
 7599TIP3    H244213   2.091   3.967   1.569 -0.4260  0.1189 -0.4717
 7600TIP3   OH244214   0.525   0.522  14.762 -0.6299 -0.2994 -0.0349
 7600TIP3    H144215   0.595   0.581  14.732  0.8153 -1.9883 -0.0201
 7600TIP3    H244216   0.494   0.562  14.843  0.1206  0.5997 -0.1726
 7601TIP3   OH244217   0.123   6.617   2.510 -0.0324  0.1357 -0.2424
 7601TIP3    H144218   0.196   6.623   2.572  1.2431 -0.8378 -1.5902
 7601TIP3    H244219   0.073   6.541   2.540 -0.5207  0.8238  0.7059
 7602TIP3   OH244220   5.998   5.649   0.277  0.4994  0.5234  0.2535
 7602TIP3    H144221   6.052   5.592   0.223 -0.3806 -0.8303  0.7702
 7602TIP3    H244222   6.047   5.659   0.359 -0.2577 -1.1683  0.9424
 7603TIP3   OH244223   0.144   2.079   0.519 -0.0182  0.5178 -0.4834
 7603TIP3    H144224   0.094   2.099   0.597 -1.1876  0.4894 -1.2055
 7603TIP3    H244225   0.079   2.077   0.448  1.1996  1.8804 -1.6811
 7604TIP3   OH244226   1.124   3.729  13.255  0.1908 -0.2299  0.5012
 7604TIP3    H144227   1.082   3.695  13.334 -2.6122  1.1513 -0.3307
 7604TIP3    H244228   1.152   3.651  13.207 -1.1267 -1.2001  1.2759
 7605TIP3   OH244229   5.235   2.933  16.816 -0.5114  0.0416  0.7488
 7605TIP3    H144230   5.229   2.902  16.906 -1.0337 -0.5078  0.5231
 7605TIP3    H244231   5.185   2.869  16.764 -2.8202  1.9912  0.4668
 7606TIP3   OH244232   1.132   5.430   3.652  0.2896  0.1938 -0.7777
 7606TIP3    H144233   1.069   5.412   3.582  0.8921  0.3406 -1.3582
 7606TIP3    H244234   1.103   5.513   3.689 -0.8698 -0.5763  0.0970
 7607TIP3   OH244235   3.653   6.603   0.154  0.3396  0.0203  0.5435
 7607TIP3    H144236   3.615   6.570   0.073 -1.8814  1.6225  0.9014
 7607TIP3    H244237   3.631   6.537   0.220  1.5642 -0.9479  0.0025
 7608TIP3   OH244238   0.177   5.984   1.381  0.2474 -0.2264  0.4998
 7608TIP3    H144239   0.108   5.929   1.343  1.2593 -1.5129  0.4988
 7608TIP3    H244240   0.231   6.010   1.306 -0.8266  1.6736  0.3477
 7609TIP3   OH244241   5.213   0.873   5.517  0.1390  0.3819 -0.1688
 7609TIP3    H144242   5.215   0.797   5.575 -0.4954  0.2542 -0.3038
 7609TIP3    H244243   5.205   0.948   5.576  0.2582  0.3050 -0.0556
 7610TIP3   OH244244   6.643   3.268   4.280 -0.3180 -0.7483  0.3186
 7610TIP3    H144245   6.560   3.316   4.273 -0.8429 -1.7443 -0.5846
 7610TIP3    H244246   6.688   3.308   4.354 -1.0886  0.5940  0.0847
 7611TIP3   OH244247   1.345   4.809  11.625 -0.6723  0.4630  0.4045
 7611TIP3    H144248   1.252   4.824  11.613 -0.4454  0.5917 -1.3542
 7611TIP3    H244249   1.357   4.716  11.606 -0.5089  0.3544  1.0372
 7612TIP3   OH244250   1.575   1.860  11.462  0.2038  0.1823  0.6794
 7612TIP3    H144251   1.656   1.911  11.458  0.5440 -0.4881 -1.2187
 7612TIP3    H244252   1.529   1.895  11.538  1.1659  2.1964  0.3595
 7613TIP3   OH244253   4.909   0.614   4.362  0.0203  0.0410  0.3278
 7613TIP3    H144254   4.822   0.636   4.330  0.0694  0.4320  0.4604
 7613TIP3    H244255   4.940   0.545   4.304 -0.9933 -1.1751  1.2013
 7614TIP3   OH244256   6.442   3.138  14.816 -0.5349  0.0245  0.2426
 7614TIP3    H144257   6.441   3.193  14.895  0.6053 -0.6002  0.7035
 7614TIP3    H244258   6.514   3.174  14.763 -0.6941 -0.1444 -0.0908
 7615TIP3   OH244259   4.128   2.469   1.051  0.5020 -0.3959 -0.4287
 7615TIP3    H144260   4.057   2.523   1.086  1.5644 -0.5307  2.0256
 7615TIP3    H244261   4.142   2.402   1.118  1.1872 -1.9547 -2.0991
 7616TIP3   OH244262   5.867   5.346   4.058  0.7462 -0.6898  0.0195
 7616TIP3    H144263   5.940   5.398   4.023 -0.2553  1.2665  0.7991
 7616TIP3    H244264   5.861   5.271   3.998  1.9736  0.2713 -1.3581
 7617TIP3   OH244265   5.575   1.688  16.689 -0.4226 -0.0765 -0.5684
 7617TIP3    H144266   5.608   1.769  16.728  1.7256 -1.3902  0.4678
 7617TIP3    H244267   5.519   1.717  16.617 -0.8174  2.3339  0.6688
 7618TIP3   OH244268   2.511   2.358  14.574 -0.4408  0.0688 -0.4448
 7618TIP3    H144269   2.448   2.320  14.512 -0.8734 -0.6678  0.4236
 7618TIP3    H244270   2.530   2.445  14.539  0.7066 -1.0087 -2.5935
 7619TIP3   OH244271   5.127   4.428  13.900 -0.0800 -0.3846  0.1780
 7619TIP3    H144272   5.120   4.362  13.831 -0.6804 -0.2069  0.0729
 7619TIP3    H244273   5.164   4.380  13.975  0.7659 -0.5294 -0.3248
 7620TIP3   OH244274   6.490   1.983   3.876  0.2518 -0.1614  0.3634
 7620TIP3    H144275   6.580   2.009   3.859  0.2793 -0.9184 -0.6821
 7620TIP3    H244276   6.493   1.888   3.883 -0.5696 -0.2557 -0.3934
 7621TIP3   OH244277   2.278   5.007   1.696  0.9661 -0.0421 -0.0025
 7621TIP3    H144278   2.305   5.030   1.607 -1.1076  0.0936 -0.6219
 7621TIP3    H244279   2.183   4.993   1.690  0.5388  1.4599  2.5027
 7622TIP3   OH244280   3.916   6.005  11.386 -0.7562  0.3268  0.0160
 7622TIP3    H144281   3.832   5.972  11.415 -0.9194  0.4811 -0.2787
 7622TIP3    H244282   3.924   6.092  11.426 -0.9267  0.4885 -0.3014
 7623TIP3   OH244283   2.634   5.786   2.149 -0.0880  0.1339  0.1338
 7623TIP3    H144284   2.647   5.846   2.076 -0.3608  0.3131  0.2338
 7623TIP3    H244285   2.683   5.707   2.123  0.3016  0.4109  0.0232
 7624TIP3   OH244286   5.015   6.056  14.992 -0.1519 -0.5175 -0.0343
 7624TIP3    H144287   4.939   6.080  15.045  1.4708 -0.2310  2.2934
 7624TIP3    H244288   5.009   6.112  14.914 -0.2394  2.4152  1.9792
 7625TIP3   OH244289   2.706   2.985   5.545 -0.3339 -0.0935 -0.4111
 7625TIP3    H144290   2.652   2.939   5.481  0.3118 -1.4055 -0.0374
 7625TIP3    H244291   2.661   2.972   5.629 -1.1076  1.5074 -0.5597
 7626TIP3   OH244292   2.927   1.936  16.268  0.4265 -0.0623 -0.0852
 7626TIP3    H144293   2.883   1.883  16.201 -0.3168 -1.1810  1.2648
 7626TIP3    H244294   2.967   2.008  16.219 -1.7825  0.2451 -1.5048
 7627TIP3   OH244295   4.484   1.857   3.191  0.1559 -0.1475  0.0069
 7627TIP3    H144296   4.471   1.888   3.281  1.6339  1.2461 -0.2368
 7627TIP3    H244297   4.401   1.817   3.167 -0.3220 -0.3752  1.9330
 7628TIP3   OH244298   4.319   4.996  11.549  0.3237  0.2148 -0.0950
 7628TIP3    H144299   4.230   5.028  11.560  0.7770  1.3331  0.4003
 7628TIP3    H244300   4.344   4.963  11.636 -0.1776 -1.5894 -0.6278
 7629TIP3   OH244301   5.717   4.033   3.042 -0.3998 -0.0080 -0.0615
 7629TIP3    H144302   5.733   4.032   3.136  1.6627 -1.2230 -0.4018
 7629TIP3    H244303   5.687   4.122   3.024  0.0479  0.4896  1.6039
 7630TIP3   OH244304   4.722   3.715  10.848 -0.3652  0.1552  0.2175
 7630TIP3    H144305   4.774   3.662  10.908  0.2970 -0.5205 -0.9175
 7630TIP3    H244306   4.652   3.657  10.819  0.0166  0.0814 -0.5755
 7631TIP3   OH244307   2.683   3.765   1.020  0.1464  0.2751 -0.4462
 7631TIP3    H144308   2.636   3.844   1.047 -0.6117 -0.1489 -0.5322
 7631TIP3    H244309   2.628   3.726   0.953  0.2889 -0.5829 -0.0695
 7632TIP3   OH244310   1.773   4.004  15.452  0.3997  0.0105  0.2903
 7632TIP3    H144311   1.752   4.000  15.359 -1.8670  0.8786  0.7120
 7632TIP3    H244312   1.828   4.082  15.462  0.3431  0.1223 -0.2675
 7633TIP3   OH244313   4.604   2.682   1.219 -0.1370 -0.4097  0.0812
 7633TIP3    H144314   4.664   2.609   1.235  0.3084  0.1739  1.0969
 7633TIP3    H244315   4.517   2.642   1.216  0.1455 -1.0323  0.2064
 7634TIP3   OH244316   1.109   4.138  15.964 -0.1460  0.4697 -0.0411
 7634TIP3    H144317   1.178   4.204  15.958 -0.7248  1.1246  0.3825
 7634TIP3    H244318   1.027   4.188  15.966 -0.5536 -0.2150  1.1388
 7635TIP3   OH244319   3.768   2.910   4.209  0.0239 -0.0575  0.8183
 7635TIP3    H144320   3.680   2.932   4.239 -0.8357 -0.5380 -1.2239
 7635TIP3    H244321   3.823   2.919   4.286 -1.7549  0.6381  2.0372
 7636TIP3   OH244322   2.484   5.143  14.553 -0.2153 -0.2541  0.3257
 7636TIP3    H144323   2.528   5.072  14.506  0.3696 -0.1137  0.6609
 7636TIP3    H244324   2.554   5.190  14.597 -0.4737  1.1560 -0.7375
 7637TIP3   OH244325   6.307   2.662  12.874 -0.2694  0.4437 -0.1209
 7637TIP3    H144326   6.353   2.699  12.949 -0.5124 -0.4689  0.4783
 7637TIP3    H244327   6.333   2.718  12.801 -0.4409  1.6445  0.7298
 7638TIP3   OH244328   1.036   0.562  12.422  0.1984  0.1200 -0.1701
 7638TIP3    H144329   1.070   0.651  12.434 -1.4614  0.6111  0.9612
 7638TIP3    H244330   1.023   0.554  12.327 -0.4638  1.3979 -0.2004
 7639TIP3   OH244331   0.897   3.993   4.833 -0.0100 -0.3879  0.2416
 7639TIP3    H144332   0.812   4.036   4.841  0.6847  0.9621  0.4477
 7639TIP3    H244333   0.916   3.995   4.739 -0.7072 -1.6893  0.0629
 7640TIP3   OH244334   4.997   4.472  14.790  0.1613 -0.4090 -0.2497
 7640TIP3    H144335   5.002   4.382  14.824  0.9015 -0.2483  0.0832
 7640TIP3    H244336   5.084   4.508  14.807 -0.6341  0.9009  1.1251
 7641TIP3   OH244337   1.841   2.104  16.924  0.0493 -0.1287  0.1732
 7641TIP3    H144338   1.924   2.090  16.970 -1.1390 -2.2328  1.7059
 7641TIP3    H244339   1.778   2.125  16.993 -1.3185 -1.4113 -0.6510
 7642TIP3   OH244340   3.478   1.954  14.203  0.0681  0.2310  0.1574
 7642TIP3    H144341   3.544   2.019  14.179  0.8701 -0.5333  0.2330
 7642TIP3    H244342   3.529   1.875  14.220 -0.7769 -0.0840  1.2697
 7643TIP3   OH244343   3.450   1.748   1.721 -0.2594  0.7394 -0.3047
 7643TIP3    H144344   3.399   1.747   1.802  0.4187 -0.3237  0.1116
 7643TIP3    H244345   3.530   1.701   1.741  0.6506  1.8742 -1.1413
 7644TIP3   OH244346   5.258   4.160   4.612  0.3473 -0.0828 -0.1017
 7644TIP3    H144347   5.246   4.209   4.694 -0.4904  0.1608 -0.3657
 7644TIP3    H244348   5.342   4.189   4.579  0.7681 -0.2917  0.7553
 7645TIP3   OH244349   6.581   6.106  10.353  0.3027 -0.2152 -0.2926
 7645TIP3    H144350   6.664   6.107  10.400  0.2985  0.4692 -0.2855
 7645TIP3    H244351   6.591   6.039  10.286  1.0586  0.2300 -0.6278
 7646TIP3   OH244352   2.777   4.528   6.495  0.3136  0.9242  0.1576
 7646TIP3    H144353   2.851   4.586   6.480  0.7129  0.6852  1.1073
 7646TIP3    H244354   2.816   4.440   6.496  0.1435  0.8466  1.3434
 7647TIP3   OH244355   2.043   0.429   3.984  0.6220  0.0368 -0.3500
 7647TIP3    H144356   2.075   0.425   3.893  2.7212  0.1624  0.3478
 7647TIP3    H244357   2.037   0.522   4.003 -1.8889  0.0518 -1.0197
 7648TIP3   OH244358   5.586   4.088  16.720  0.2911  0.1437  0.2345
 7648TIP3    H144359   5.675   4.066  16.749  1.6961  2.3534 -2.1901
 7648TIP3    H244360   5.546   4.003  16.700  1.9613 -0.8584  1.0019
 7649TIP3   OH244361   2.076   2.880  12.816 -0.8653 -0.0574 -0.2034
 7649TIP3    H144362   2.161   2.871  12.858 -0.9092 -1.2077 -0.3545
 7649TIP3    H244363   2.083   2.960  12.764  0.1822 -0.2694 -0.3942
 7650TIP3   OH244364   0.759   6.694  13.551 -0.0639 -0.2465 -0.2067
 7650TIP3    H144365   0.735   6.751  13.624  1.0017 -0.0165 -0.0322
 7650TIP3    H244366   0.840   6.731  13.517 -0.2916 -0.6467 -1.1935
 7651TIP3   OH244367   5.175   3.394   5.774  0.4842  0.0885 -0.2600
 7651TIP3    H144368   5.191   3.355   5.860  0.6812  2.8922  1.0151
 7651TIP3    H244369   5.258   3.432   5.748 -0.3195  1.8901 -0.2848
 7652TIP3   OH244370   5.950   6.258   2.050 -0.3954  0.0297 -0.0529
 7652TIP3    H144371   5.952   6.181   2.107 -0.4721  0.0314 -0.0475
 7652TIP3    H244372   5.857   6.274   2.034 -0.3863  0.2112  0.0692
 7653TIP3   OH244373   4.777   0.217   1.900  0.0229  0.1934 -0.0658
 7653TIP3    H144374   4.751   0.201   1.991 -0.2071  2.0014  0.1988
 7653TIP3    H244375   4.696   0.207   1.850  0.3948 -2.1491 -0.2824
 7654TIP3   OH244376   4.199   2.697   4.665 -0.1457 -0.4743  0.1411
 7654TIP3    H144377   4.253   2.725   4.591 -0.6506  0.0757 -0.0251
 7654TIP3    H244378   4.209   2.602   4.668 -0.8911 -0.6173 -1.2473
 7655TIP3   OH244379   4.098   5.517  10.234  0.4343  0.2607 -0.3122
 7655TIP3    H144380   4.130   5.476  10.154 -1.4254 -4.2185  1.0909
 7655TIP3    H244381   4.085   5.609  10.210  2.4345 -0.3908 -4.3297
 7656TIP3   OH244382   5.456   2.264  11.446  0.6889  0.3758 -0.1663
 7656TIP3    H144383   5.538   2.305  11.472  0.5378  1.5217 -1.4422
 7656TIP3    H244384   5.434   2.306  11.363 -0.9663 -0.2283 -0.0401
 7657TIP3   OH244385   6.128   4.557   5.372 -0.2995  0.2551  0.2370
 7657TIP3    H144386   6.156   4.467   5.387 -1.1725 -0.0222  0.2473
 7657TIP3    H244387   6.084   4.556   5.287  0.2761  0.8096 -0.0705
 7658TIP3   OH244388   0.216   1.852   3.539  0.0543  0.6771  0.3816
 7658TIP3    H144389   0.126   1.821   3.548 -0.0143  1.1929  1.5028
 7658TIP3    H244390   0.252   1.850   3.628  1.3619 -0.1596 -0.1492
 7659TIP3   OH244391   2.580   1.160   3.704  0.2012 -0.3712  0.6475
 7659TIP3    H144392   2.670   1.161   3.736  0.7704 -0.3482 -0.9070
 7659TIP3    H244393   2.562   1.068   3.684  0.2746 -0.2248 -0.1097
 7660TIP3   OH244394   2.411   3.825  16.533  0.1828 -0.3249  0.7015
 7660TIP3    H144395   2.457   3.826  16.617  0.0493 -0.8263  0.7802
 7660TIP3    H244396   2.480   3.840  16.468  0.0705  1.6134  0.9861
 7661TIP3   OH244397   5.145   5.825  15.025  0.3010 -0.1240 -0.1345
 7661TIP3    H144398   5.076   5.890  15.015  1.2082  0.6724 -1.2998
 7661TIP3    H244399   5.114   5.749  14.975 -0.9009 -0.7299  1.4859
 7662TIP3   OH244400   0.299   2.373   0.961 -0.8385  0.2413  0.3126
 7662TIP3    H144401   0.378   2.425   0.950 -0.8425  0.2209  0.1912
 7662TIP3    H244402   0.313   2.294   0.909 -1.3829  0.7344 -0.5870
 7663TIP3   OH244403   5.232   4.175  12.852 -0.4233 -0.1039  0.1189
 7663TIP3    H144404   5.279   4.138  12.926  0.7136 -2.6522 -1.7853
 7663TIP3    H244405   5.186   4.101  12.813  0.4362  0.7770 -2.7346
 7664TIP3   OH244406   3.264   0.283   0.852 -0.4081  0.0461  0.6990
 7664TIP3    H144407   3.193   0.226   0.821 -0.4003  0.8110 -0.7681
 7664TIP3    H244408   3.305   0.234   0.923 -0.0162 -2.0841 -0.9420
 7665TIP3   OH244409   2.202   0.055   1.692 -0.3485  0.4211  0.0897
 7665TIP3    H144410   2.158   0.073   1.608 -1.4861 -0.2145  0.5363
 7665TIP3    H244411   2.288   0.096   1.683  0.4194 -1.5482 -2.2692
 7666TIP3   OH244412   0.901   2.965  16.013 -0.1813 -0.0088  0.4999
 7666TIP3    H144413   0.982   2.920  16.035 -0.1670 -0.4401 -0.4374
 7666TIP3    H244414   0.917   3.057  16.037  0.1128 -0.3231  1.5414
 7667TIP3   OH244415   1.123   4.564   3.871 -0.3531  0.3900  0.2741
 7667TIP3    H144416   1.109   4.592   3.781  0.2449  0.0446  0.0641
 7667TIP3    H244417   1.125   4.644   3.922 -1.4423  0.5363  0.0849
 7668TIP3   OH244418   6.425   3.996  11.585 -0.3391 -0.3272 -0.6566
 7668TIP3    H144419   6.334   4.009  11.559 -0.4158  0.4950  0.0007
 7668TIP3    H244420   6.420   3.957  11.673 -0.0610  0.3915 -0.3122
 7669TIP3   OH244421   5.789   4.562   5.038  0.1570  0.2381 -0.0798
 7669TIP3    H144422   5.825   4.565   4.949 -1.4877 -1.1850 -0.8284
 7669TIP3    H244423   5.843   4.622   5.088  2.0164 -0.0163 -1.7245
 7670TIP3   OH244424   5.695   6.416   1.763  0.2736 -0.3208  0.1827
 7670TIP3    H144425   5.679   6.329   1.726  2.8631 -0.6549 -0.2179
 7670TIP3    H244426   5.790   6.427   1.759  0.2474  1.2917  3.0405
 7671TIP3   OH244427   3.081   0.422   3.443  0.0628  0.5435 -0.4838
 7671TIP3    H144428   3.002   0.400   3.394  0.7327  0.6547 -1.6190
 7671TIP3    H244429   3.048   0.466   3.522 -1.0460 -0.2196 -0.5076
 7672TIP3   OH244430   5.537   4.929  10.372 -0.1212  0.3625  0.0113
 7672TIP3    H144431   5.490   4.846  10.378  1.6349 -0.7092 -0.5966
 7672TIP3    H244432   5.623   4.905  10.338  0.5353  2.3987  0.1799
 7673TIP3   OH244433   6.317   1.372  14.308 -0.7299 -0.0917 -0.0056
 7673TIP3    H144434   6.355   1.286  14.322  0.3154  0.1736 -1.0742
 7673TIP3    H244435   6.227   1.355  14.281 -0.1019 -0.9404 -1.6850
 7674TIP3   OH244436   0.328   4.695   1.866 -0.1084  0.4082  0.1438
 7674TIP3    H144437   0.271   4.620   1.854 -0.9002  0.7472  1.6852
 7674TIP3    H244438   0.337   4.733   1.779 -2.4037  0.4731 -0.0838
 7675TIP3   OH244439   1.986   4.486  13.280  0.3590 -0.2715 -0.8177
 7675TIP3    H144440   1.940   4.559  13.238 -1.3759 -0.9123 -0.0990
 7675TIP3    H244441   1.919   4.446  13.336  1.1508 -2.7223 -1.6017
 7676TIP3   OH244442   5.010   3.824   0.212 -0.5390 -0.2414 -0.4106
 7676TIP3    H144443   4.928   3.807   0.259 -0.7205  0.9328 -0.2851
 7676TIP3    H244444   4.983   3.866   0.131 -0.0633  0.1113 -0.3865
 7677TIP3   OH244445   0.246   0.189  12.990  0.1895 -0.3532 -0.2205
 7677TIP3    H144446   0.327   0.171  13.036  0.4076  1.4455  0.1369
 7677TIP3    H244447   0.186   0.119  13.018  1.1660 -0.8743  0.5977
 7678TIP3   OH244448   0.559   0.813   1.669 -0.1258  0.3327 -0.0800
 7678TIP3    H144449   0.523   0.780   1.586 -1.7087  3.0815 -0.5360
 7678TIP3    H244450   0.648   0.841   1.648 -0.2518  0.2919 -0.6697
 7679TIP3   OH244451   1.175   6.000  12.325  0.2531  0.0533 -1.1305
 7679TIP3    H144452   1.112   6.063  12.358  0.1209  0.6418 -2.4440
 7679TIP3    H244453   1.124   5.920  12.312  0.2453 -0.0944 -0.2137
 7680TIP3   OH244454   0.431   3.046   2.534  0.0189 -0.5308  0.3220
 7680TIP3    H144455   0.501   3.062   2.471  0.1447 -3.0200 -0.2513
 7680TIP3    H244456   0.350   3.062   2.486  0.1342 -1.5768 -0.2357
 7681TIP3   OH244457   3.564   3.099   5.090  0.1595 -0.2726  0.7083
 7681TIP3    H144458   3.498   3.030   5.096  0.1473 -0.2786  0.5004
 7681TIP3    H244459   3.600   3.106   5.179  0.3647 -0.7456  0.6600
 7682TIP3   OH244460   0.301   3.142   0.901 -0.0013 -0.3357 -0.1285
 7682TIP3    H144461   0.369   3.084   0.865 -0.3983  0.0341 -1.4931
 7682TIP3    H244462   0.349   3.203   0.956  0.9191  0.4971 -1.7984
 7683TIP3   OH244463   2.461   2.653   1.816  0.6793  0.3487  0.6310
 7683TIP3    H144464   2.403   2.581   1.794 -0.4930  1.2771  0.6267
 7683TIP3    H244465   2.435   2.680   1.903 -0.3439  2.1438 -0.1992
 7684TIP3   OH244466   0.507   4.923  16.897  0.4385 -0.0518 -0.4575
 7684TIP3    H144467   0.591   4.885  16.871 -1.0248 -1.2389 -3.7574
 7684TIP3    H244468   0.509   5.012  16.864  0.4147 -0.0814 -0.5371
 7685TIP3   OH244469   0.519   6.063   3.380 -0.0613  0.1433  0.4418
 7685TIP3    H144470   0.452   6.125   3.410 -0.3424 -0.5457  1.2485
 7685TIP3    H244471   0.503   6.054   3.286  0.6937  2.1558  0.0972
 7686TIP3   OH244472   4.080   1.684  12.449  0.3308  0.2373 -0.1098
 7686TIP3    H144473   4.077   1.779  12.457  1.3131  0.3986 -1.4294
 7686TIP3    H244474   4.173   1.662  12.454 -0.0524 -0.9056  2.6643
 7687TIP3   OH244475   3.376   5.000   4.487  0.9181  0.3442  0.2052
 7687TIP3    H144476   3.351   4.939   4.556  1.5250  0.0779  0.1937
 7687TIP3    H244477   3.357   5.087   4.523  1.3603  0.2150  0.7626
 7688TIP3   OH244478   3.837   6.550   6.162 -0.6162  0.1125  0.5939
 7688TIP3    H144479   3.819   6.470   6.212 -0.4853  0.4477  1.1815
 7688TIP3    H244480   3.873   6.611   6.226  1.0801  0.0197 -0.2179
 7689TIP3   OH244481   3.930   2.733   4.413 -0.5501 -0.2796  0.3812
 7689TIP3    H144482   3.853   2.690   4.375 -2.7934  2.6272  1.4054
 7689TIP3    H244483   3.918   2.724   4.508  0.1991  0.4718  0.5520
 7690TIP3   OH244484   1.194   0.780  16.900 -0.1276  0.1486 -0.6966
 7690TIP3    H144485   1.242   0.774  16.817  0.2728 -0.5503 -0.4247
 7690TIP3    H244486   1.218   0.700  16.947 -2.3448 -0.6807 -0.9532
 7691TIP3   OH244487   5.301   6.064  12.645 -0.4418 -0.0844  0.3261
 7691TIP3    H144488   5.209   6.041  12.658 -0.3417 -0.7085 -0.0586
 7691TIP3    H244489   5.347   5.980  12.648 -0.0428  0.0924 -0.8971
 7692TIP3   OH244490   5.569   3.841  10.450  0.4397  0.0642 -0.1131
 7692TIP3    H144491   5.603   3.905  10.387  1.9493 -0.1793  0.4368
 7692TIP3    H244492   5.572   3.886  10.534  1.0879 -0.5760  0.2064
 7693TIP3   OH244493   3.287   5.820  10.908 -0.0322  0.3533  0.0744
 7693TIP3    H144494   3.286   5.915  10.893 -1.8759  0.3969  0.2940
 7693TIP3    H244495   3.361   5.788  10.856 -0.1072  1.7659 -0.9416
 7694TIP3   OH244496   5.773   3.475   3.729  0.0099 -0.0831 -0.2259
 7694TIP3    H144497   5.778   3.450   3.821  2.1517 -3.3181 -1.1409
 7694TIP3    H244498   5.850   3.528   3.714 -0.0790  0.0350 -0.2618
 7695TIP3   OH244499   0.727   4.540  11.129 -0.1598 -0.4730 -0.1029
 7695TIP3    H144500   0.742   4.555  11.035 -1.7346 -1.7900 -0.6054
 7695TIP3    H244501   0.801   4.487  11.157  1.0762  1.1441 -0.2520
 7696TIP3   OH244502   1.028   5.017   2.338  0.2724 -0.1382  0.3018
 7696TIP3    H144503   1.006   4.937   2.385  0.8850  0.9312  2.4540
 7696TIP3    H244504   1.018   5.087   2.402 -0.7796  1.6077 -1.6838
 7697TIP3   OH244505   0.424   5.285   4.736  0.7094  0.5618  0.0393
 7697TIP3    H144506   0.441   5.224   4.664  0.8223  1.9658 -1.1491
 7697TIP3    H244507   0.330   5.299   4.734  0.9856  2.5071 -1.4614
 7698TIP3   OH244508   0.239   2.311  12.658  0.1109 -0.0009  0.2929
 7698TIP3    H144509   0.250   2.341  12.749  1.7766  1.0256 -0.2455
 7698TIP3    H244510   0.164   2.361  12.626 -0.0444  0.1498  0.8796
 7699TIP3   OH244511   1.408   5.097   3.568 -0.5263  0.0110  0.1214
 7699TIP3    H144512   1.385   5.091   3.475  0.8039  0.9895 -0.2819
 7699TIP3    H244513   1.366   5.021   3.608  0.4086 -1.4455 -1.5882
 7700TIP3   OH244514   4.659   3.040  15.096 -0.2970 -0.2228 -0.3529
 7700TIP3    H144515   4.642   3.099  15.023 -2.7713 -1.3298 -0.7040
 7700TIP3    H244516   4.584   3.052  15.154  1.9098  1.1364  2.4114
 7701TIP3   OH244517   4.124   2.662  17.214 -0.4464 -0.3513  0.6509
 7701TIP3    H144518   4.061   2.658  17.286  0.8478  0.1965  1.8505
 7701TIP3    H244519   4.092   2.599  17.150 -1.6002 -0.8853  1.7317
 7702TIP3   OH244520   0.815   1.560   6.289 -0.1080  0.0458 -0.0582
 7702TIP3    H144521   0.856   1.558   6.375 -0.5600 -1.7836  0.1352
 7702TIP3    H244522   0.811   1.653   6.266  2.5281  0.3784  0.6884
 7703TIP3   OH244523   0.541   3.517  11.264  0.1165 -0.2440 -1.1208
 7703TIP3    H144524   0.544   3.597  11.316 -0.9353  0.2034 -1.7457
 7703TIP3    H244525   0.581   3.542  11.180  0.7185 -0.6525 -0.9632
 7704TIP3   OH244526   5.287   4.000  16.444 -0.2571 -0.0090  0.3877
 7704TIP3    H144527   5.227   4.016  16.371  1.9056 -1.1185 -1.6537
 7704TIP3    H244528   5.295   3.905  16.449  1.6582  0.1446  0.3981
 7705TIP3   OH244529   4.607   4.387   3.273  0.0873 -0.2571  0.1034
 7705TIP3    H144530   4.693   4.386   3.316  0.7161 -0.7192 -1.1685
 7705TIP3    H244531   4.608   4.313   3.213 -1.0986 -0.0839 -0.1564
 7706TIP3   OH244532   4.957   5.047  13.866 -0.0491  0.2221 -0.3809
 7706TIP3    H144533   4.894   4.983  13.899  0.4727 -0.2755 -0.3415
 7706TIP3    H244534   5.033   5.038  13.924 -1.1995  3.2048  1.7562
 7707TIP3   OH244535   3.888   4.759  15.774  0.3524 -0.1495 -0.3052
 7707TIP3    H144536   3.918   4.802  15.694  1.3859  0.3339  0.3199
 7707TIP3    H244537   3.810   4.710  15.748  0.0908  0.8148 -1.3781
 7708TIP3   OH244538   6.678   4.310   3.607 -0.2457 -0.6933  0.8277
 7708TIP3    H144539   6.649   4.264   3.528  0.1552 -0.5425  0.5902
 7708TIP3    H244540   6.616   4.383   3.617 -0.0371 -0.4615  0.4112
 7709TIP3   OH244541   3.517   0.050   0.793  0.5711 -0.0740  0.5768
 7709TIP3    H144542   3.588   0.109   0.767  2.1499 -1.2620  2.0345
 7709TIP3    H244543   3.544   0.018   0.879 -1.5565 -0.8778  0.9635
 7710TIP3   OH244544   3.770   6.643  14.788 -0.3110  0.3465  0.1707
 7710TIP3    H144545   3.754   6.559  14.831  0.4193 -0.5043 -1.1938
 7710TIP3    H244546   3.805   6.700  14.857 -1.3189 -0.2945  1.2212
 7711TIP3   OH244547   2.041   1.657   2.536 -0.2627  0.2675  0.2855
 7711TIP3    H144548   2.026   1.563   2.543  1.7815 -0.2698 -1.8442
 7711TIP3    H244549   1.962   1.691   2.495 -1.1299 -0.4633  1.3204
 7712TIP3   OH244550   5.244   3.343   0.392 -0.2372 -0.0100  0.1213
 7712TIP3    H144551   5.252   3.421   0.338 -0.4453 -0.8035 -1.0612
 7712TIP3    H244552   5.149   3.326   0.397 -0.1499 -0.6677 -0.3329
 7713TIP3   OH244553   1.675   6.458   1.180  0.0848 -0.7779  0.4776
 7713TIP3    H144554   1.688   6.407   1.100 -1.2353  1.5246 -1.2473
 7713TIP3    H244555   1.608   6.409   1.229  2.0111 -3.0223  0.9596
 7714TIP3   OH244556   6.182   1.026  16.913  0.2652 -0.0301  0.3881
 7714TIP3    H144557   6.147   1.001  16.999 -0.3502 -0.5391 -0.0078
 7714TIP3    H244558   6.210   0.944  16.874 -0.5845  0.0460 -0.3958
 7715TIP3   OH244559   2.399   6.125   0.509 -0.0681  0.0234  0.0915
 7715TIP3    H144560   2.368   6.140   0.419 -1.0570 -1.5215  0.1511
 7715TIP3    H244561   2.347   6.050   0.539  0.7857  0.0718  1.6960
 7716TIP3   OH244562   2.204   0.222  16.921  0.0425  0.5789  0.3517
 7716TIP3    H144563   2.155   0.154  16.966 -1.9031  1.0828 -0.9194
 7716TIP3    H244564   2.257   0.175  16.856 -2.6575  0.3033 -1.7831
 7717TIP3   OH244565   0.039   4.867  16.951 -0.1786 -0.3678 -0.4847
 7717TIP3    H144566   0.040   4.774  16.928  0.2250 -0.1968 -1.1952
 7717TIP3    H244567   0.127   4.898  16.929 -0.5534  0.3581 -1.0017
 7718TIP3   OH244568   0.910   5.995   0.895  0.2632  0.1711  0.0724
 7718TIP3    H144569   0.902   6.074   0.949  2.0715 -0.5660  1.4949
 7718TIP3    H244570   0.843   5.935   0.930  0.3121  0.3128  0.4167
 7719TIP3   OH244571   0.258   0.152   1.432  0.2345  0.2903 -0.5619
 7719TIP3    H144572   0.271   0.205   1.353  0.7680 -1.1612 -1.4851
 7719TIP3    H244573   0.347   0.140   1.467  0.1075  0.1091 -0.3040
 7720TIP3   OH244574   6.712   4.852   1.022  0.2450  0.2565  0.5530
 7720TIP3    H144575   6.800   4.889   1.026  0.2792  0.0304  2.0390
 7720TIP3    H244576   6.655   4.922   1.051 -0.0858  0.4258 -0.4780
 7721TIP3   OH244577   1.207   0.747  11.551  0.2149 -0.3377  0.0356
 7721TIP3    H144578   1.261   0.796  11.489  0.7022 -1.4156 -0.4069
 7721TIP3    H244579   1.239   0.657  11.545 -0.1069 -0.5606  1.4501
 7722TIP3   OH244580   3.202   5.401  14.036 -0.3186 -0.1530 -0.2145
 7722TIP3    H144581   3.282   5.396  13.984  0.8217 -0.2060  1.4966
 7722TIP3    H244582   3.187   5.495  14.048 -0.9528 -0.1246 -1.1721
 7723TIP3   OH244583   2.138   5.599  12.022  0.4527 -0.8921  0.3060
 7723TIP3    H144584   2.110   5.570  11.935  2.2379 -1.1920 -0.2037
 7723TIP3    H244585   2.067   5.655  12.053 -0.5506 -1.3953 -1.0279
 7724TIP3   OH244586   4.707   6.352   4.418  0.2644 -0.6696 -0.3055
 7724TIP3    H144587   4.766   6.340   4.343  1.7872 -0.5008  0.8499
 7724TIP3    H244588   4.754   6.315   4.492 -0.3884  0.9413  0.9328
 7725TIP3   OH244589   4.277   2.522   3.996  0.0618 -0.0674  0.2274
 7725TIP3    H144590   4.236   2.600   4.033  1.1336 -0.4266  2.2188
 7725TIP3    H244591   4.371   2.538   4.005  0.2962 -1.2541 -0.0757
 7726TIP3   OH244592   0.901   1.685   5.178 -0.0779 -0.6081  0.0069
 7726TIP3    H144593   0.942   1.634   5.108 -0.9454 -0.4040 -0.6560
 7726TIP3    H244594   0.899   1.774   5.145 -1.0394 -0.6072  0.0368
 7727TIP3   OH244595   3.602   5.928  15.172 -0.3896 -0.2433 -0.0404
 7727TIP3    H144596   3.597   5.903  15.264 -1.5326  1.5955  0.4360
 7727TIP3    H244597   3.599   5.846  15.124 -1.3503 -1.1370  1.5182
 7728TIP3   OH244598   0.263   6.368  15.483 -0.0702  0.5357 -0.0297
 7728TIP3    H144599   0.343   6.345  15.436 -1.2505 -0.8930 -1.4085
 7728TIP3    H244600   0.275   6.330  15.570  0.4398 -0.3006 -0.4606
 7729TIP3   OH244601   5.460   6.548   4.786 -0.4525 -0.0523 -0.2222
 7729TIP3    H144602   5.532   6.503   4.831 -0.8819 -0.7746 -0.2595
 7729TIP3    H244603   5.485   6.547   4.693  0.7868  2.0736  0.0346
 7730TIP3   OH244604   2.100   2.019  12.519  0.1778 -0.3016  0.3226
 7730TIP3    H144605   2.188   2.049  12.496 -0.2335  0.5183 -0.2277
 7730TIP3    H244606   2.112   1.929  12.549  1.4145  0.3045  1.7169
 7731TIP3   OH244607   2.060   5.673   1.654 -0.2400  0.2044  0.2038
 7731TIP3    H144608   2.142   5.661   1.606  0.0282  2.0038  0.1904
 7731TIP3    H244609   2.072   5.625   1.735  0.7350  0.2368  0.0842
 7732TIP3   OH244610   3.531   3.571  14.936 -0.0787 -0.1917 -0.3165
 7732TIP3    H144611   3.521   3.608  15.024 -1.1177  0.0904 -0.5502
 7732TIP3    H244612   3.624   3.583  14.916 -0.1440  1.1567  0.1145
 7733TIP3   OH244613   6.458   2.327   4.193  0.7811 -0.3638  0.7397
 7733TIP3    H144614   6.485   2.321   4.101 -0.0473  1.6828  0.3181
 7733TIP3    H244615   6.535   2.361   4.239  0.4815  0.8639  0.3670
 7734TIP3   OH244616   1.628   4.540   3.507 -0.4733  0.0785  0.6499
 7734TIP3    H144617   1.659   4.534   3.417 -0.4945 -1.0938  0.7162
 7734TIP3    H244618   1.697   4.501   3.560 -0.1178  1.4727  1.2228
 7735TIP3   OH244619   6.534   0.852   4.709 -0.1580 -0.0490 -0.6599
 7735TIP3    H144620   6.468   0.794   4.747  0.5854 -0.4884 -0.0495
 7735TIP3    H244621   6.544   0.821   4.619  1.0426 -1.5704 -0.0177
 7736TIP3   OH244622   0.370   4.909   0.774 -0.9327 -0.1287 -0.2924
 7736TIP3    H144623   0.277   4.900   0.754 -0.8495 -2.7931  0.3240
 7736TIP3    H244624   0.372   4.938   0.866 -1.1544  2.2507 -1.0066
 7737TIP3   OH244625   4.700   1.788   5.749  0.1969 -0.5290  0.1744
 7737TIP3    H144626   4.690   1.846   5.673 -1.2230 -0.6202  0.2893
 7737TIP3    H244627   4.763   1.833   5.805  1.4829 -0.5940 -1.1762
 7738TIP3   OH244628   0.023   6.629   1.320  0.5533 -0.0549 -0.3760
 7738TIP3    H144629  -0.029   6.549   1.326 -0.1708  0.4799  0.5691
 7738TIP3    H244630   0.071   6.620   1.238 -0.2664 -1.0132 -0.7601
 7739TIP3   OH244631   3.804   4.051   6.525 -0.0703 -0.1923  0.4034
 7739TIP3    H144632   3.787   3.965   6.563 -0.3151  0.2984  1.4448
 7739TIP3    H244633   3.885   4.080   6.566  0.7512 -0.5044 -0.9847
 7740TIP3   OH244634   5.905   3.766  13.846 -0.2562  0.4652 -0.3679
 7740TIP3    H144635   5.976   3.738  13.904 -0.6205 -1.3807 -0.7516
 7740TIP3    H244636   5.881   3.686  13.798 -1.7359  1.3511 -1.1457
 7741TIP3   OH244637   5.147   5.142  13.678  0.0080  0.1736  0.0380
 7741TIP3    H144638   5.090   5.218  13.672  0.1724  0.4207  1.5638
 7741TIP3    H244639   5.093   5.074  13.718  0.4859  0.1203  0.6025
 7742TIP3   OH244640   6.103   5.773  15.639 -0.0378  0.3826  0.2577
 7742TIP3    H144641   6.144   5.790  15.554  0.5993  0.0965  0.5052
 7742TIP3    H244642   6.038   5.843  15.648 -0.0704  0.4469 -0.4376
 7743TIP3   OH244643   4.573   2.020   4.676 -0.2362  0.3610  0.2895
 7743TIP3    H144644   4.496   1.973   4.645  0.0946  0.0020 -0.0011
 7743TIP3    H244645   4.628   1.953   4.715 -0.3423  0.7102  1.0440
 7744TIP3   OH244646   2.136   1.353   3.691 -0.2355 -0.3288 -0.1994
 7744TIP3    H144647   2.111   1.309   3.771 -0.7210  0.7556  0.2552
 7744TIP3    H244648   2.232   1.360   3.697  0.0845 -3.2216 -1.2951
 7745TIP3   OH244649   6.289   6.767  11.066  0.2633 -0.1706  0.1045
 7745TIP3    H144650   6.196   6.759  11.045  0.0881  0.2871  0.7063
 7745TIP3    H244651   6.323   6.678  11.055 -0.4019 -0.4961  0.6199
 7746TIP3   OH244652   2.768   6.081   0.233 -0.1882 -0.1999 -0.2599
 7746TIP3    H144653   2.805   6.142   0.297 -0.5152 -0.1275 -0.1382
 7746TIP3    H244654   2.828   6.006   0.234 -0.7441 -0.6367  0.8647
 7747TIP3   OH244655   2.468   0.930   2.646 -1.2953  1.0816 -0.4313
 7747TIP3    H144656   2.466   0.905   2.553  2.4131 -0.0603 -0.3032
 7747TIP3    H244657   2.379   0.916   2.677 -2.0680 -0.7335 -3.2826
 7748TIP3   OH244658   4.560   1.977  16.766  0.5174  0.0423 -0.2338
 7748TIP3    H144659   4.620   1.912  16.804  1.1201  0.0628 -1.1393
 7748TIP3    H244660   4.583   2.059  16.810  0.9804 -0.0070 -0.3712
 7749TIP3   OH244661   3.936   0.950  17.205  0.7995 -1.0087 -0.2971
 7749TIP3    H144662   3.907   0.963  17.296  1.0729 -0.8873 -0.2271
 7749TIP3    H244663   3.978   0.864  17.205  1.3006 -0.7658 -0.1822
 7750TIP3   OH244664   1.921   5.955  12.896  0.4928  0.1161 -0.0178
 7750TIP3    H144665   1.958   5.916  12.975  0.7981  1.3435  0.4477
 7750TIP3    H244666   1.925   6.049  12.911 -0.2529  0.3340 -1.1332
 7751TIP3   OH244667   5.713   3.302  11.144  1.0409 -0.1753 -0.1434
 7751TIP3    H144668   5.772   3.281  11.071  1.2991 -0.5021  0.1549
 7751TIP3    H244669   5.641   3.241  11.135  0.4124  0.6579 -0.8936
 7752TIP3   OH244670   3.241   2.489  13.524 -0.1391  0.6051  0.5436
 7752TIP3    H144671   3.217   2.399  13.502  0.3426  0.1724  1.7622
 7752TIP3    H244672   3.228   2.537  13.443 -0.9790 -0.4487  0.0395
 7753TIP3   OH244673   4.828   5.204   2.275  0.1673  0.6590  0.1943
 7753TIP3    H144674   4.783   5.233   2.354  0.6185 -0.3443  0.8336
 7753TIP3    H244675   4.790   5.119   2.255 -1.0132  1.5718 -1.5591
 7754TIP3   OH244676   5.223   1.916  12.598 -0.9497 -0.8388 -0.1433
 7754TIP3    H144677   5.285   1.961  12.540 -1.5458 -0.6050 -0.6047
 7754TIP3    H244678   5.269   1.838  12.628 -0.4237 -0.6506 -0.4673
 7755TIP3   OH244679   0.054   4.236   1.097  0.0413 -0.2106  0.1231
 7755TIP3    H144680   0.043   4.322   1.055 -0.3418 -0.5318 -0.4429
 7755TIP3    H244681   0.126   4.249   1.159  0.6985  0.2447 -0.7243
 7756TIP3   OH244682   3.085   2.376  10.707  0.2153 -0.3384 -0.4524
 7756TIP3    H144683   3.007   2.330  10.738 -1.8966  2.1565 -1.9676
 7756TIP3    H244684   3.069   2.391  10.614  1.4746  2.1995 -0.3038
 7757TIP3   OH244685   3.149   0.927  14.269  0.2452  0.2540 -0.2317
 7757TIP3    H144686   3.223   0.949  14.326 -0.7113 -0.0573  1.1565
 7757TIP3    H244687   3.088   1.000  14.279 -0.6077 -0.5247  0.3418
 7758TIP3   OH244688   4.346   3.268   0.160 -0.1890 -0.1352  0.0344
 7758TIP3    H144689   4.283   3.275   0.232  0.4627 -1.0065  0.7052
 7758TIP3    H244690   4.428   3.303   0.197 -0.0295  0.0502 -0.5002
 7759TIP3   OH244691   5.528   3.498  12.133 -0.6520 -0.5655 -0.1740
 7759TIP3    H144692   5.522   3.466  12.223 -0.3673 -0.3900 -0.0929
 7759TIP3    H244693   5.561   3.588  12.141 -1.9142 -0.0728 -0.3680
 7760TIP3   OH244694   1.151   3.805   4.542 -0.2029  0.4886 -0.1320
 7760TIP3    H144695   1.124   3.717   4.515 -1.1674  0.9554 -0.7074
 7760TIP3    H244696   1.230   3.823   4.490 -0.7408  0.4741 -0.9525
 7761TIP3   OH244697   3.740   5.195  13.317 -0.3536  0.2757  0.6116
 7761TIP3    H144698   3.814   5.199  13.377  1.1255 -0.6148 -1.1110
 7761TIP3    H244699   3.672   5.150  13.366  1.6912 -2.7889  0.7804
 7762TIP3   OH244700   4.450   6.259  11.954 -0.6101 -0.2644 -0.0640
 7762TIP3    H144701   4.398   6.338  11.965 -0.7605 -0.4142  0.3040
 7762TIP3    H244702   4.532   6.289  11.915  0.0180  0.3120  1.6655
 7763TIP3   OH244703   1.822   5.809  15.666 -0.4894 -0.2828  0.2940
 7763TIP3    H144704   1.827   5.825  15.760  0.3361  1.4261 -0.0162
 7763TIP3    H244705   1.880   5.875  15.627 -1.1212 -0.7086 -1.4301
 7764TIP3   OH244706   5.435   1.288  14.233 -0.4084 -0.2445  0.0801
 7764TIP3    H144707   5.388   1.310  14.153  0.2143 -1.4854 -0.6457
 7764TIP3    H244708   5.366   1.265  14.295 -0.9075  0.9823 -0.0041
 7765TIP3   OH244709   5.933   0.748   6.302  0.4734  0.2882 -0.2117
 7765TIP3    H144710   5.937   0.791   6.388 -1.2434 -0.2506  0.1633
 7765TIP3    H244711   5.854   0.784   6.261  0.3637 -0.7008 -0.8810
 7766TIP3   OH244712   1.873   4.075   3.664  0.3951  0.7154 -0.6720
 7766TIP3    H144713   1.874   3.991   3.620 -0.4769  0.1962  0.2797
 7766TIP3    H244714   1.954   4.118   3.637  0.5004 -0.1367 -1.7091
 7767TIP3   OH244715   2.726   0.837  16.308  0.2370  0.0579 -0.1098
 7767TIP3    H144716   2.676   0.853  16.388 -0.0089  1.5429 -0.5389
 7767TIP3    H244717   2.661   0.839  16.238  0.5720 -0.3728 -0.4381
 7768TIP3   OH244718   5.696   5.497  13.152  0.0315  0.6217  0.3219
 7768TIP3    H144719   5.640   5.438  13.102 -0.2653 -0.4587  1.8811
 7768TIP3    H244720   5.735   5.441  13.219  2.1575  1.5735 -0.0731
 7769TIP3   OH244721   4.183   3.473   1.896 -0.3865 -0.1127 -0.1680
 7769TIP3    H144722   4.100   3.519   1.885 -0.4723 -0.4577 -0.9676
 7769TIP3    H244723   4.161   3.398   1.950 -0.6262 -0.2826 -0.4971
 7770TIP3   OH244724   5.001   0.879  13.998 -0.3774 -0.0956  0.1204
 7770TIP3    H144725   5.058   0.802  14.000 -0.2986 -0.0244  0.6067
 7770TIP3    H244726   5.048   0.943  13.944  1.1070  0.8347  2.4206
 7771TIP3   OH244727   1.465   6.020   4.822 -0.0407  0.1743 -0.5078
 7771TIP3    H144728   1.469   5.925   4.811  0.1733  0.3795 -2.2253
 7771TIP3    H244729   1.490   6.034   4.914 -1.0466 -1.4821  0.0448
 7772TIP3   OH244730   0.174   5.267  12.173 -0.4621  0.0324  0.0378
 7772TIP3    H144731   0.176   5.320  12.093  1.1249  1.3522  0.9133
 7772TIP3    H244732   0.220   5.187  12.150 -3.0580 -1.1251 -1.3614
 7773TIP3   OH244733   2.988   0.952  15.495  0.1143  0.4483  0.4315
 7773TIP3    H144734   2.980   0.924  15.586 -0.0332  2.5102  1.0669
 7773TIP3    H244735   2.919   0.903  15.449  0.2257 -0.6390  1.4031
 7774TIP3   OH244736   0.410   1.725   2.282 -0.1236  0.3941 -0.9415
 7774TIP3    H144737   0.315   1.714   2.284 -0.2789  1.6064 -1.3688
 7774TIP3    H244738   0.445   1.636   2.296 -1.3057  0.0844  0.1070
 7775TIP3   OH244739   0.357   0.079  12.295 -0.4297 -0.2130  0.1251
 7775TIP3    H144740   0.288   0.015  12.311  0.2579 -0.8682  0.5232
 7775TIP3    H244741   0.439   0.030  12.309  0.1096  1.3899  2.8668
 7776TIP3   OH244742   3.786   1.056   3.261  0.9099  0.0291  0.0585
 7776TIP3    H144743   3.693   1.068   3.240  0.6935 -0.8192  0.5050
 7776TIP3    H244744   3.816   0.989   3.199  0.6855 -1.2580  1.3074
 7777TIP3   OH244745   2.847   2.868  15.710  0.6587 -0.2562  0.8352
 7777TIP3    H144746   2.818   2.958  15.692 -0.5405  0.0342  3.8732
 7777TIP3    H244747   2.787   2.813  15.661  1.0343  0.5857 -0.5932
 7778TIP3   OH244748   4.151   0.501   1.482 -0.4000 -0.1691 -0.2737
 7778TIP3    H144749   4.071   0.476   1.528  0.4735 -2.1220  0.2586
 7778TIP3    H244750   4.137   0.473   1.392 -1.5821  2.4461 -0.9359
 7779TIP3   OH244751   5.739   5.354   0.990  0.0307  0.7535 -0.0559
 7779TIP3    H144752   5.713   5.446   0.980 -0.5220  0.5575 -0.4812
 7779TIP3    H244753   5.686   5.308   0.925 -0.4580 -0.0082  0.8707
 7780TIP3   OH244754   6.018   2.259  15.968  0.3241 -0.3389  0.1695
 7780TIP3    H144755   5.932   2.219  15.955  1.1311 -1.5591 -1.6748
 7780TIP3    H244756   6.078   2.184  15.976  1.5075  0.4998 -0.6597
 7781TIP3   OH244757   0.275   3.679  14.683 -0.4927 -0.2332  0.6743
 7781TIP3    H144758   0.250   3.704  14.772 -0.4649 -0.0955  0.6431
 7781TIP3    H244759   0.272   3.583  14.684  2.2138 -0.3727  1.6183
 7782TIP3   OH244760   2.059   2.108   3.140  0.4171  0.2494  0.2252
 7782TIP3    H144761   2.051   2.082   3.231  1.9248  0.3553  0.3972
 7782TIP3    H244762   2.040   2.029   3.090 -4.0906  1.0308  0.4929
 7783TIP3   OH244763   5.092   1.444  11.682 -0.0689 -0.1220  0.5573
 7783TIP3    H144764   5.164   1.439  11.745  0.3794  0.2580  0.0853
 7783TIP3    H244765   5.129   1.492  11.607 -1.3924  1.8221  1.1138
 7784TIP3   OH244766   4.303   3.957   5.886  0.4553  0.6502 -0.4130
 7784TIP3    H144767   4.239   3.889   5.908  0.9211  0.1204 -0.6723
 7784TIP3    H244768   4.357   3.964   5.965  1.5675 -0.6135 -1.0412
 7785TIP3   OH244769   2.491   4.015  14.427 -0.8437 -0.0763  0.1515
 7785TIP3    H144770   2.414   3.961  14.445 -1.1484  0.3984  0.2967
 7785TIP3    H244771   2.465   4.103  14.454 -0.6175  0.2830 -0.7821
 7786TIP3   OH244772   2.156   3.195  12.834  0.6486 -0.1762 -0.4279
 7786TIP3    H144773   2.164   3.287  12.860 -0.9603  0.1423 -0.9616
 7786TIP3    H244774   2.245   3.161  12.839  1.0368  1.0208  1.2076
 7787TIP3   OH244775   0.732   6.554   2.550  0.4503 -0.3747 -0.4583
 7787TIP3    H144776   0.689   6.631   2.512  0.7809 -0.7465 -1.5968
 7787TIP3    H244777   0.748   6.579   2.641  2.0100  1.5284 -1.2139
 7788TIP3   OH244778   3.436   3.658   2.881  0.2895  0.1362 -0.4428
 7788TIP3    H144779   3.445   3.682   2.788  1.8149  1.3414 -0.0041
 7788TIP3    H244780   3.415   3.740   2.925  2.5506  0.1767  0.6565
 7789TIP3   OH244781   0.547   6.401  14.938  0.1893  0.7716  0.6920
 7789TIP3    H144782   0.512   6.446  14.861  2.2417 -0.5532 -1.0610
 7789TIP3    H244783   0.482   6.333  14.957  0.4969 -0.0217 -0.9615
 7790TIP3   OH244784   6.674   6.008  12.524  0.7483 -0.1537 -0.0620
 7790TIP3    H144785   6.626   5.976  12.447 -2.8862  0.8017  1.6900
 7790TIP3    H244786   6.688   6.101  12.506  2.2414 -0.4734 -0.6650
 7791TIP3   OH244787   0.775   2.741   6.093 -0.0559  0.5145  0.5084
 7791TIP3    H144788   0.767   2.678   6.164  2.1027 -0.1734  0.2017
 7791TIP3    H244789   0.795   2.824   6.137  0.3853  0.2794  0.7620
 7792TIP3   OH244790   4.933   2.415  11.908 -0.1829  0.4323 -0.8788
 7792TIP3    H144791   5.020   2.375  11.899 -0.5239  0.0545 -2.8815
 7792TIP3    H244792   4.873   2.340  11.914 -0.5186  0.6632 -1.3267
 7793TIP3   OH244793   0.682   4.761  13.294  0.2260 -0.2415 -0.3054
 7793TIP3    H144794   0.622   4.834  13.280  0.5212  0.2973  1.1151
 7793TIP3    H244795   0.656   4.696  13.229 -0.5765  0.7897 -1.0414
 7794TIP3   OH244796   1.779   6.257   5.332  0.0055 -0.7000  0.1409
 7794TIP3    H144797   1.724   6.222   5.262 -0.4203 -1.5832  0.9065
 7794TIP3    H244798   1.733   6.334   5.364  1.3584  1.1354 -2.1288
 7795TIP3   OH244799   1.321   6.442   1.747  0.6311 -0.7015 -0.3533
 7795TIP3    H144800   1.242   6.489   1.719 -0.5129 -2.8669 -0.8545
 7795TIP3    H244801   1.328   6.461   1.840  0.4783  0.8786 -0.6456
 7796TIP3   OH244802   5.358   0.501   3.319  0.0669 -0.0917 -0.0471
 7796TIP3    H144803   5.436   0.447   3.310 -0.2537 -0.1181 -3.3035
 7796TIP3    H244804   5.390   0.582   3.360  1.4902 -0.7414  0.1578
 7797TIP3   OH244805   1.409   3.034  13.500 -0.4825 -0.6619 -0.3242
 7797TIP3    H144806   1.358   3.023  13.581  1.6163  1.1626  1.2961
 7797TIP3    H244807   1.488   2.982  13.514  0.7760  1.1808 -0.3742
 7798TIP3   OH244808   1.344   1.745  13.183  0.1613  0.1023  0.3963
 7798TIP3    H144809   1.406   1.679  13.152 -0.0823  0.0497  0.0097
 7798TIP3    H244810   1.291   1.766  13.106  1.9949  2.7606 -0.2318
 7799TIP3   OH244811   3.066   6.257   1.379 -0.1126 -0.0895  0.0369
 7799TIP3    H144812   2.983   6.303   1.394 -0.5819 -1.2761  1.2009
 7799TIP3    H244813   3.042   6.164   1.386  0.9029 -0.5086 -1.7597
 7800TIP3   OH244814   0.137   4.181   4.487 -0.0321  0.1345 -0.1705
 7800TIP3    H144815   0.045   4.163   4.470 -0.1450  1.3971 -0.9897
 7800TIP3    H244816   0.183   4.102   4.458 -0.7436  0.0012 -0.9584
 7801TIP3   OH244817   0.399   0.448   4.408  0.1683  0.0749  0.0012
 7801TIP3    H144818   0.321   0.395   4.388  0.1259  0.4682 -0.9257
 7801TIP3    H244819   0.472   0.396   4.373  0.4302 -0.7581  1.7569
 7802TIP3   OH244820   3.282   0.995  13.236 -0.1929  0.6154  0.0873
 7802TIP3    H144821   3.323   1.081  13.225  0.3308  0.1439 -1.8724
 7802TIP3    H244822   3.271   0.986  13.330  1.5325  2.0144  0.4569
 7803TIP3   OH244823   2.993   1.636  17.121  0.6349 -0.1909 -0.3376
 7803TIP3    H144824   2.929   1.615  17.189 -0.2214 -2.6079 -1.8183
 7803TIP3    H244825   3.078   1.624  17.165  0.0906 -0.9001  0.5495
 7804TIP3   OH244826   4.021   6.262   6.391 -0.0390  0.1212  0.0333
 7804TIP3    H144827   4.091   6.325   6.408  0.9262  0.0308 -3.2048
 7804TIP3    H244828   4.055   6.179   6.425  0.1039  0.6981  1.2940
 7805TIP3   OH244829   3.658   5.667   3.728  0.6788  0.0698 -0.2132
 7805TIP3    H144830   3.602   5.722   3.783  0.3015  0.2161 -0.7423
 7805TIP3    H244831   3.737   5.719   3.715  0.7724  0.0321  0.1959
 7806TIP3   OH244832   1.215   1.556   0.874  0.0166 -0.1588 -0.1989
 7806TIP3    H144833   1.197   1.618   0.945 -0.0873  0.8801 -1.1311
 7806TIP3    H244834   1.287   1.503   0.907  0.9339  1.2636  0.1229
 7807TIP3   OH244835   0.087   0.423  14.851  0.2701  0.2437  0.2539
 7807TIP3    H144836   0.119   0.333  14.861 -2.2082 -0.6380  0.4969
 7807TIP3    H244837   0.029   0.436  14.926 -0.4939  1.5585 -0.5471
 7808TIP3   OH244838   3.330   6.579  12.509  0.7355 -0.1142 -0.3243
 7808TIP3    H144839   3.286   6.515  12.453  0.2323  0.5958 -0.7437
 7808TIP3    H244840   3.342   6.533  12.592  0.1422 -0.6648 -0.5347
 7809TIP3   OH244841   4.234   0.268  14.863 -0.0291 -0.1645 -0.2036
 7809TIP3    H144842   4.300   0.320  14.818  0.0321  0.1034  0.1988
 7809TIP3    H244843   4.226   0.307  14.949 -0.6289 -0.2677 -0.2076
 7810TIP3   OH244844   6.030   2.283   1.318 -0.0354 -0.1802 -0.0634
 7810TIP3    H144845   6.025   2.362   1.264 -0.4468 -0.1723 -0.0165
 7810TIP3    H244846   6.013   2.313   1.407  2.1684  0.0427  0.2979
 7811TIP3   OH244847   1.915   0.639   3.660  0.2853  0.2576  0.2737
 7811TIP3    H144848   1.824   0.638   3.627  0.9444 -0.7506 -1.5946
 7811TIP3    H244849   1.951   0.720   3.625  0.6418 -0.2418 -0.5241
 7812TIP3   OH244850   6.046   0.015  12.884 -0.1297 -0.1083 -0.3545
 7812TIP3    H144851   6.107  -0.058  12.875  0.1687  0.1232 -0.2118
 7812TIP3    H244852   6.060   0.048  12.973 -1.5551 -1.0281  0.2341
 7813TIP3   OH244853   2.026   0.776  16.863  0.6618 -0.1454  0.1936
 7813TIP3    H144854   1.954   0.798  16.804  0.4295 -1.6303 -0.1022
 7813TIP3    H244855   2.105   0.804  16.817  0.2295  3.1778  1.2887
 7814TIP3   OH244856   1.927   2.463   0.570 -0.0427 -0.0253 -0.2101
 7814TIP3    H144857   2.010   2.416   0.583  0.1677  0.6783  1.0137
 7814TIP3    H244858   1.915   2.465   0.475  0.4232 -1.7351 -0.3188
 7815TIP3   OH244859   0.287   4.271   1.220  0.8564 -0.2907  0.0204
 7815TIP3    H144860   0.355   4.333   1.244  0.1674  0.9406 -1.1282
 7815TIP3    H244861   0.328   4.212   1.157  0.7747  0.6210 -0.8802
 7816TIP3   OH244862   3.777   4.864  14.467  0.0668 -0.3768 -0.1400
 7816TIP3    H144863   3.683   4.879  14.483  0.4426  2.0369  0.0579
 7816TIP3    H244864   3.781   4.842  14.374 -0.5849  0.7507 -0.4490
 7817TIP3   OH244865   2.765   3.169   2.130 -0.2231  0.2485 -0.1236
 7817TIP3    H144866   2.816   3.236   2.084  1.3296 -0.0482  1.0956
 7817TIP3    H244867   2.782   3.186   2.223 -0.5642 -1.2496  0.2250
 7818TIP3   OH244868   4.308   4.939  11.821  0.2221  0.1419  0.0269
 7818TIP3    H144869   4.305   4.843  11.830  1.8208  0.0296 -0.4231
 7818TIP3    H244870   4.313   4.971  11.911  0.0534 -0.2209  0.1696
 7819TIP3   OH244871   4.921   0.961   1.787  0.3674  0.5455  0.1439
 7819TIP3    H144872   4.980   0.985   1.715  0.0302  1.2385  0.0933
 7819TIP3    H244873   4.979   0.933   1.857  0.8082  2.1680  0.4479
 7820TIP3   OH244874   1.419   3.493  16.153  0.3514 -0.4075  0.3118
 7820TIP3    H144875   1.333   3.480  16.192 -0.1453 -0.2345 -0.7175
 7820TIP3    H244876   1.425   3.428  16.083 -0.6510  2.2865 -2.3891
 7821TIP3   OH244877   2.043   4.748   4.225  0.0552 -0.2302 -0.2665
 7821TIP3    H144878   2.100   4.784   4.157  0.3159 -0.6064 -0.2526
 7821TIP3    H244879   1.964   4.721   4.178  1.0499 -2.3767 -0.7721
 7822TIP3   OH244880   4.423   5.524  14.872  0.1263  0.2870 -0.0777
 7822TIP3    H144881   4.385   5.496  14.788 -1.7299 -2.1982  1.5235
 7822TIP3    H244882   4.378   5.605  14.893 -1.4779 -0.5647 -0.1377
 7823TIP3   OH244883   3.833   4.670   3.011  0.4879  0.5395 -0.3623
 7823TIP3    H144884   3.755   4.634   3.055 -0.4019  0.2642 -2.1182
 7823TIP3    H244885   3.803   4.752   2.973  1.1042  0.5126 -0.9038
 7824TIP3   OH244886   0.025   5.047   0.366  0.0496  0.0830  0.5334
 7824TIP3    H144887   0.022   5.140   0.389  0.3089  0.1608  0.2547
 7824TIP3    H244888   0.114   5.020   0.387  0.1818  0.0687 -0.0472
 7825TIP3   OH244889   3.742   4.081   3.251  0.1660  0.2743  0.2924
 7825TIP3    H144890   3.651   4.059   3.270 -0.2250  0.0452 -1.6783
 7825TIP3    H244891   3.759   4.159   3.303 -1.1479  0.2997  0.7131
 7826TIP3   OH244892   1.209   1.488  13.790  0.1343 -0.6829 -0.1669
 7826TIP3    H144893   1.147   1.561  13.791  1.0387  0.0970  1.1598
 7826TIP3    H244894   1.267   1.507  13.716 -0.2064 -0.5518 -0.4021
 7827TIP3   OH244895   0.263   1.386   5.978  0.1282 -0.0720 -0.2180
 7827TIP3    H144896   0.253   1.481   5.976  1.2811  0.0552 -0.2830
 7827TIP3    H244897   0.193   1.355   6.035  1.5106  1.0644  2.1797
 7828TIP3   OH244898   1.999   6.158   0.418  0.1402  0.3038  0.0894
 7828TIP3    H144899   1.985   6.171   0.512  1.0868 -1.5753  0.5218
 7828TIP3    H244900   2.094   6.146   0.410  0.2307  1.8349 -1.2968
 7829TIP3   OH244901   0.677   3.585   5.335 -0.6973  0.3738  0.0706
 7829TIP3    H144902   0.616   3.528   5.288 -0.4383  0.0704  0.0982
 7829TIP3    H244903   0.699   3.653   5.272 -0.8780  0.3475 -0.0216
 7830TIP3   OH244904   5.790   4.100  12.794 -0.3513  0.1937 -0.1803
 7830TIP3    H144905   5.767   4.066  12.881  0.6726  0.1876  0.0870
 7830TIP3    H244906   5.754   4.189  12.794  0.7827  0.6744  0.7515
 7831TIP3   OH244907   5.736   6.414   4.357 -0.4000  0.0168 -0.0883
 7831TIP3    H144908   5.781   6.432   4.274 -0.3969  1.6108  0.2390
 7831TIP3    H244909   5.785   6.464   4.422  0.7707 -2.7560  1.2280
 7832TIP3   OH244910   6.495   3.431   6.159  0.2796 -0.0320  0.0639
 7832TIP3    H144911   6.447   3.478   6.227  0.2503  1.1409 -0.7575
 7832TIP3    H244912   6.439   3.436   6.081  1.2282  0.3852 -0.6014
 7833TIP3   OH244913   6.505   3.897   2.434  0.4955 -0.2496  0.5304
 7833TIP3    H144914   6.459   3.897   2.517  1.6928  3.5384  1.3075
 7833TIP3    H244915   6.442   3.932   2.371  0.4201 -0.6977  0.3525
 7834TIP3   OH244916   5.039   2.681   5.167 -0.3464  0.1950 -0.5198
 7834TIP3    H144917   5.118   2.669   5.114  0.0629  2.9346 -0.6078
 7834TIP3    H244918   4.988   2.601   5.152  2.4558 -1.7294 -0.2999
 7835TIP3   OH244919   1.298   3.770  12.875 -0.3505  0.3309 -0.3727
 7835TIP3    H144920   1.301   3.862  12.849 -0.0751  0.1306 -1.0397
 7835TIP3    H244921   1.209   3.758  12.910 -0.7324  0.5804 -1.2595
 7836TIP3   OH244922   2.512   5.251  16.325  0.3267  0.2001  0.0310
 7836TIP3    H144923   2.516   5.344  16.302  0.1239 -0.5775 -3.5516
 7836TIP3    H244924   2.419   5.234  16.340  0.0803  0.1668 -1.4174
 7837TIP3   OH244925   3.227   5.676  11.156 -0.5974  0.0865  0.0197
 7837TIP3    H144926   3.261   5.755  11.114  0.0859 -0.2734 -0.1118
 7837TIP3    H244927   3.206   5.617  11.084  1.1769 -0.7771  0.1793
 7838TIP3   OH244928   3.463   5.354  11.542 -0.0478 -0.0440 -0.4905
 7838TIP3    H144929   3.499   5.313  11.621  0.1915  0.0978 -0.5265
 7838TIP3    H244930   3.393   5.295  11.515  0.0068 -0.2032 -0.2898
 7839TIP3   OH244931   3.278   0.601   0.227 -0.0334  0.0319 -0.2150
 7839TIP3    H144932   3.223   0.667   0.185 -0.4989  0.1665  0.5858
 7839TIP3    H244933   3.271   0.524   0.171 -0.2551  0.3603 -0.6401
 7840TIP3   OH244934   6.420   0.841  13.986  0.1109  0.0203 -0.3054
 7840TIP3    H144935   6.421   0.935  14.003  0.7696 -0.1235  0.4973
 7840TIP3    H244936   6.413   0.801  14.073  0.9220 -0.6913 -0.5611
 7841TIP3   OH244937   4.750   4.091  13.675 -0.0345 -0.7974  0.1423
 7841TIP3    H144938   4.840   4.067  13.695  0.2519  0.4754  0.4336
 7841TIP3    H244939   4.754   4.129  13.587  0.0219  0.8340  0.8212
 7842TIP3   OH244940   0.528   5.591   4.035 -0.3288  0.0173 -0.2666
 7842TIP3    H144941   0.618   5.601   4.003  0.3977  0.3361  1.7596
 7842TIP3    H244942   0.537   5.597   4.131 -2.4470 -0.4537 -0.0294
 7843TIP3   OH244943   3.067   5.927   4.628 -0.5082  0.1527 -0.6565
 7843TIP3    H144944   3.094   5.844   4.590  0.7361  0.9732 -1.5923
 7843TIP3    H244945   3.025   5.975   4.557  0.1099  0.9238 -0.5132
 7844TIP3   OH244946   2.569   4.001  12.604 -0.0490  0.0608  0.2072
 7844TIP3    H144947   2.580   3.975  12.696  0.7084 -0.8949 -0.1523
 7844TIP3    H244948   2.492   4.059  12.605  0.1741  0.3535  1.4952
 7845TIP3   OH244949   1.177   6.361   0.325  0.1424 -0.3921 -0.4019
 7845TIP3    H144950   1.129   6.285   0.359  0.7295 -1.1382 -1.2239
 7845TIP3    H244951   1.252   6.324   0.279  0.5928  0.7043 -0.5700
 7846TIP3   OH244952   6.337   1.206   4.881 -0.0910  0.2001  0.1564
 7846TIP3    H144953   6.381   1.250   4.953  0.5420 -0.7901  0.3769
 7846TIP3    H244954   6.273   1.270   4.850 -0.4089  0.6137  1.6258
 7847TIP3   OH244955   1.330   3.186   3.994 -0.0414  0.3927 -0.3900
 7847TIP3    H144956   1.255   3.130   3.975  1.4242 -1.0752 -2.0376
 7847TIP3    H244957   1.326   3.256   3.929  0.7636 -0.4602 -1.3807
 7848TIP3   OH244958   3.381   6.689   4.840 -0.1639 -0.0518  0.5078
 7848TIP3    H144959   3.387   6.679   4.745 -0.5148  0.0782  0.4735
 7848TIP3    H244960   3.432   6.768   4.860  0.8552 -0.7026  0.5536
 7849TIP3   OH244961   3.457   2.067  13.308 -0.3582  0.5709  0.6629
 7849TIP3    H144962   3.425   2.001  13.246 -0.1545  1.6246 -0.5962
 7849TIP3    H244963   3.506   2.129  13.253 -0.5924  1.8012  1.8228
 7850TIP3   OH244964   4.047   3.201   6.901  0.5232 -0.7036 -0.1164
 7850TIP3    H144965   4.115   3.245   6.851 -1.4550 -0.1282 -2.3896
 7850TIP3    H244966   4.030   3.259   6.975  1.2138  0.0259 -0.5251
 7851TIP3   OH244967   5.127   3.400   6.297  0.2405 -0.0689  0.0646
 7851TIP3    H144968   5.194   3.469   6.296  0.9091 -0.6953  0.4183
 7851TIP3    H244969   5.178   3.319   6.304 -0.5169 -0.6189 -0.8076
 7852TIP3   OH244970   0.526   0.784  11.340  0.1589  0.0515 -1.3411
 7852TIP3    H144971   0.577   0.806  11.418  0.0515 -0.3895 -1.1435
 7852TIP3    H244972   0.575   0.715  11.297  0.7830  1.0458 -2.2655
 7853TIP3   OH244973   1.895   3.940  17.198  0.1317  0.0043  0.3993
 7853TIP3    H144974   1.821   3.998  17.181  1.0362  1.3657  0.9933
 7853TIP3    H244975   1.965   3.975  17.143  0.6946 -0.5051  0.7958
 7854TIP3   OH244976   5.985   2.914  14.597 -0.1667  0.2552  0.1406
 7854TIP3    H144977   6.049   2.975  14.633  0.7696 -0.4400 -0.3211
 7854TIP3    H244978   5.984   2.933  14.503 -1.8153  1.3428  0.3692
 7855TIP3   OH244979   6.617   2.050   3.037 -0.2627 -0.4206 -0.2313
 7855TIP3    H144980   6.558   2.087   3.103  2.2924  0.7338  1.4858
 7855TIP3    H244981   6.666   1.983   3.084  0.4248 -0.7486 -1.3994
 7856TIP3   OH244982   3.404   0.108   4.336  0.2423 -0.5028 -0.3785
 7856TIP3    H144983   3.485   0.140   4.375  0.7597  0.3541 -2.1067
 7856TIP3    H244984   3.373   0.181   4.282  1.0349 -2.6052 -3.7890
 7857TIP3   OH244985   4.307   5.276  10.613 -0.5358  0.1109 -0.3511
 7857TIP3    H144986   4.394   5.236  10.619  0.3962  2.0455 -0.5110
 7857TIP3    H244987   4.257   5.234  10.683  0.7093 -0.5822  0.1531
 7858TIP3   OH244988   3.269   4.944  14.369 -0.1409  0.0876  0.4634
 7858TIP3    H144989   3.199   4.879  14.362  1.2774 -1.8413  3.2914
 7858TIP3    H244990   3.229   5.018  14.415 -0.8008 -0.2669  0.4614
 7859TIP3   OH244991   6.530   5.909   2.348  0.0144  0.0864  0.5064
 7859TIP3    H144992   6.522   5.989   2.295  0.0822 -1.0335 -1.2385
 7859TIP3    H244993   6.478   5.844   2.301 -0.1584 -0.8629  1.9875
 7860TIP3   OH244994   3.026   3.579   0.228 -0.3802 -0.5176  0.1015
 7860TIP3    H144995   3.008   3.668   0.258 -1.8909 -1.0954  0.9850
 7860TIP3    H244996   3.119   3.579   0.205  0.0592  0.7971  1.8260
 7861TIP3   OH244997   3.299   3.579  13.737  0.5380  0.2219 -0.5132
 7861TIP3    H144998   3.358   3.503  13.740 -0.1865 -0.4186 -2.0925
 7861TIP3    H244999   3.275   3.587  13.645 -1.9748  0.3917  0.1333
 7862TIP3   OH245000   2.016   3.519   0.105  0.0909 -0.1493 -0.3669
 7862TIP3    H145001   1.932   3.564   0.108  0.4067  0.5347 -1.6492
 7862TIP3    H245002   1.993   3.426   0.111 -0.7800  0.0229 -0.9115
 7863TIP3   OH245003   5.042   2.174  13.168 -0.0091  0.2544 -0.3500
 7863TIP3    H145004   5.020   2.241  13.232 -2.3509 -1.4996  0.7671
 7863TIP3    H245005   5.116   2.127  13.207 -0.1483  0.4424  0.1418
 7864TIP3   OH245006   5.930   5.980  11.844 -0.5529 -0.4972  0.1700
 7864TIP3    H145007   5.885   6.051  11.798  0.7316  0.3333  0.1642
 7864TIP3    H245008   5.895   5.900  11.804 -0.5317  0.1733 -1.2447
 7865TIP3   OH245009   5.291   5.458  11.899 -0.4260 -0.2757  0.1669
 7865TIP3    H145010   5.280   5.530  11.837  1.6368 -1.5540 -1.7418
 7865TIP3    H245011   5.354   5.491  11.963 -1.1372  0.3759  0.5374
 7866TIP3   OH245012   4.501   2.408  11.893 -0.4596 -0.2819  0.3732
 7866TIP3    H145013   4.503   2.354  11.814  0.1270  1.1168 -0.5918
 7866TIP3    H245014   4.455   2.354  11.957 -1.2074 -1.3306 -1.0008
 7867TIP3   OH245015   1.000   2.372  12.583 -0.1704  1.0114 -0.0320
 7867TIP3    H145016   1.006   2.447  12.523 -0.6524  0.5449 -0.6757
 7867TIP3    H245017   1.004   2.295  12.525 -2.7550  0.5744  0.3207
 7868TIP3   OH245018   3.880   6.736   4.589  0.2376  0.2127 -0.2575
 7868TIP3    H145019   3.964   6.692   4.582 -0.5849 -1.2614 -0.8773
 7868TIP3    H245020   3.847   6.711   4.676 -0.2570 -0.4420 -0.6337
 7869TIP3   OH245021   0.214   0.194  12.642  0.3337 -0.1869  0.1740
 7869TIP3    H145022   0.176   0.108  12.657 -1.0240  0.6575  1.6733
 7869TIP3    H245023   0.193   0.244  12.720  0.3696  1.7725 -1.0262
 7870TIP3   OH245024   5.216   4.059  13.464 -0.0372  0.1057  0.0598
 7870TIP3    H145025   5.226   4.113  13.386 -0.2048  0.7010  0.4411
 7870TIP3    H245026   5.262   4.107  13.533  0.7628 -0.7892  0.1639
 7871TIP3   OH245027   5.845   2.331  11.786 -0.5377  0.3573  0.1181
 7871TIP3    H145028   5.908   2.344  11.857 -0.7911  0.6744  0.2918
 7871TIP3    H245029   5.816   2.240  11.794 -0.6094  0.4098  0.4618
 7872TIP3   OH245030   4.261   0.690  15.474 -0.0410 -0.1904 -0.4508
 7872TIP3    H145031   4.211   0.647  15.543  0.5768 -0.1209  0.0469
 7872TIP3    H245032   4.195   0.735  15.421 -0.7394 -2.0219 -1.1787
 7873TIP3   OH245033   3.182   3.452  14.521 -0.1934  0.0164  0.0731
 7873TIP3    H145034   3.088   3.467  14.526 -0.1200  0.2331  0.8209
 7873TIP3    H245035   3.210   3.444  14.612  0.7545  1.4894 -0.0677
 7874TIP3   OH245036   5.848   4.312   1.106  0.1510  0.8713  0.2257
 7874TIP3    H145037   5.938   4.322   1.074  0.3076 -0.7087  0.1083
 7874TIP3    H245038   5.855   4.326   1.200  1.2627 -3.0172  0.8351
 7875TIP3   OH245039   1.768   4.350  11.151  0.0829 -0.0499 -0.5449
 7875TIP3    H145040   1.805   4.270  11.115 -1.8410  0.3185 -3.4945
 7875TIP3    H245041   1.798   4.419  11.092 -0.4251  1.0495  0.4601
 7876TIP3   OH245042   5.179   4.264  13.240  0.2391 -0.7179 -0.1430
 7876TIP3    H145043   5.182   4.307  13.325  0.5871 -0.1513 -0.4379
 7876TIP3    H245044   5.087   4.272  13.212  0.1614 -0.7582  0.1020
 7877TIP3   OH245045   3.786   4.355  12.342  0.1952 -0.2785  0.1453
 7877TIP3    H145046   3.707   4.408  12.351 -0.0082 -0.6906  0.9189
 7877TIP3    H245047   3.847   4.391  12.406  0.2057 -0.6993  0.3790
 7878TIP3   OH245048   1.240   5.081  15.843 -0.0997 -0.6253  0.0203
 7878TIP3    H145049   1.184   5.008  15.816  0.3681 -1.2232  0.6665
 7878TIP3    H245050   1.189   5.159  15.820 -0.5545 -1.1467 -0.7641
 7879TIP3   OH245051   1.971   2.065   4.844  0.4034 -0.3160 -0.0512
 7879TIP3    H145052   1.912   1.990   4.851 -0.3258  0.1059 -1.4119
 7879TIP3    H245053   1.915   2.141   4.858  0.9238  0.0247  0.1919
 7880TIP3   OH245054   6.393   3.559   0.035  0.3785 -0.2895 -0.3064
 7880TIP3    H145055   6.391   3.654   0.023 -0.4831 -0.3732 -0.8800
 7880TIP3    H245056   6.461   3.529  -0.026  1.4594  0.0626  0.7028
 7881TIP3   OH245057   1.901   0.231  14.652  0.0371 -0.3678  0.6213
 7881TIP3    H145058   1.825   0.192  14.611 -0.1205 -1.4039  1.8528
 7881TIP3    H245059   1.939   0.287  14.585 -2.0367  0.4795  0.1235
 7882TIP3   OH245060   3.889   5.051   5.030  0.0780 -0.1417  0.3868
 7882TIP3    H145061   3.906   4.959   5.050 -0.1555 -0.6551 -1.6933
 7882TIP3    H245062   3.972   5.084   4.995 -0.2645  0.0409 -0.2676
 7883TIP3   OH245063   3.845   1.086  11.700  0.1779  0.1720 -0.2772
 7883TIP3    H145064   3.908   1.153  11.675  1.0711 -0.4198  0.3690
 7883TIP3    H245065   3.833   1.098  11.795 -0.2570 -0.0796 -0.2977
 7884TIP3   OH245066   0.148   5.685  12.090  0.1711  0.2531 -0.3815
 7884TIP3    H145067   0.079   5.721  12.034 -2.2264 -2.8381  0.4587
 7884TIP3    H245068   0.171   5.601  12.049  2.4397  0.5663  0.1758
 7885TIP3   OH245069   3.470   0.802  12.907  0.5892  0.7923 -0.0535
 7885TIP3    H145070   3.492   0.710  12.892  1.1426  0.9172 -0.0387
 7885TIP3    H245071   3.547   0.838  12.951  0.0407  1.0663  0.6917
 7886TIP3   OH245072   3.844   6.564   3.719  0.3279 -0.1370  0.1875
 7886TIP3    H145073   3.790   6.533   3.792  1.6248  0.2122  1.3099
 7886TIP3    H245074   3.882   6.646   3.750  2.1910 -0.8004 -0.2416
 7887TIP3   OH245075   4.440   2.318  14.620  0.2284 -0.0869  0.7139
 7887TIP3    H145076   4.509   2.256  14.596  1.7210  1.7241  0.1410
 7887TIP3    H245077   4.359   2.275  14.595  1.2377 -1.7316  0.1835
 7888TIP3   OH245078   0.477   4.213  14.501 -0.0722 -0.2292 -0.3710
 7888TIP3    H145079   0.463   4.218  14.595  0.7560 -1.1093 -0.1934
 7888TIP3    H245080   0.389   4.207  14.463 -0.3110 -2.4580  0.5101
 7889TIP3   OH245081   3.835   5.923  14.050 -0.3504 -0.4573  0.4724
 7889TIP3    H145082   3.828   5.833  14.083 -1.6569 -0.3120  0.6248
 7889TIP3    H245083   3.898   5.966  14.108  1.1176 -1.5639 -0.2674
 7890TIP3   OH245084   5.573   4.874   1.993  0.2948 -0.3858 -0.1943
 7890TIP3    H145085   5.644   4.937   1.986 -0.5492  0.6616  0.4093
 7890TIP3    H245086   5.597   4.819   2.068  0.8401 -0.5284 -0.4733
 7891TIP3   OH245087   0.374   5.459   5.724  0.1484  0.1479 -0.0111
 7891TIP3    H145088   0.398   5.405   5.799  1.2324 -0.7217 -0.9528
 7891TIP3    H245089   0.399   5.548   5.749 -1.2393  0.1778  1.3769
 7892TIP3   OH245090   2.050   6.052   2.335 -0.5792 -0.4637 -0.5425
 7892TIP3    H145091   2.057   6.034   2.428  0.0837  1.6412 -0.1426
 7892TIP3    H245092   1.978   6.115   2.329 -0.8659 -0.8785 -1.4942
 7893TIP3   OH245093   4.127   5.594   2.898 -0.0544 -0.2045  0.2201
 7893TIP3    H145094   4.174   5.622   2.976  1.0054 -0.4907 -0.3031
 7893TIP3    H245095   4.138   5.499   2.895  2.5302  0.0948 -1.9006
 7894TIP3   OH245096   5.252   3.820   0.733 -0.4304  0.6171  0.8522
 7894TIP3    H145097   5.290   3.733   0.737  3.1159  2.0240 -0.2327
 7894TIP3    H245098   5.294   3.869   0.803 -1.4506  1.8087  0.6718
 7895TIP3   OH245099   2.728   5.215   4.454  0.0405  0.3029  0.7002
 7895TIP3    H145100   2.802   5.271   4.431  0.7496 -0.7339  0.4297
 7895TIP3    H245101   2.697   5.249   4.538  2.0166 -0.4320  1.7543
 7896TIP3   OH245102   6.770   5.869   0.807 -0.3475 -0.0205 -0.0265
 7896TIP3    H145103   6.739   5.832   0.724  0.2305  0.6937 -0.5677
 7896TIP3    H245104   6.705   5.937   0.829 -0.3915 -0.0729  0.0050
 7897TIP3   OH245105   1.277   0.394   5.647  0.1207 -0.4937 -0.3605
 7897TIP3    H145106   1.268   0.411   5.740 -1.1815 -1.5701 -0.2775
 7897TIP3    H245107   1.239   0.471   5.605  0.2216 -0.2506 -0.0095
 7898TIP3   OH245108   2.990   4.720  12.859 -0.2264 -0.7283 -0.1438
 7898TIP3    H145109   3.063   4.737  12.799  0.1858 -2.4631 -0.1584
 7898TIP3    H245110   2.917   4.697  12.801 -0.1344 -1.2950 -0.0382
 7899TIP3   OH245111   5.075   0.305   5.778  0.1061  0.1852  0.3694
 7899TIP3    H145112   5.076   0.302   5.682 -1.2773 -1.5607  0.3705
 7899TIP3    H245113   5.162   0.274   5.804  1.4155  3.1918 -0.3247
 7900TIP3   OH245114   2.315   4.754  13.946  0.0263 -0.1891  0.7387
 7900TIP3    H145115   2.311   4.670  13.900 -0.5315 -0.2703  0.9291
 7900TIP3    H245116   2.406   4.782  13.935 -0.2621  0.1342 -1.0048
 7901TIP3   OH245117   1.058   5.084   5.169  0.9728 -0.1985  0.0218
 7901TIP3    H145118   1.148   5.093   5.136  0.9441 -0.0078 -0.0051
 7901TIP3    H245119   1.016   5.024   5.107  1.1740 -0.5454  0.2201
 7902TIP3   OH245120   1.634   3.310   4.235 -0.6515 -0.1300  0.0486
 7902TIP3    H145121   1.640   3.345   4.324 -2.1716 -1.0273  0.5189
 7902TIP3    H245122   1.550   3.341   4.202 -0.9741 -1.4087 -0.3639
 7903TIP3   OH245123   5.357   5.881   5.512 -0.0672  0.1269  0.4858
 7903TIP3    H145124   5.270   5.842   5.521 -0.2473  0.7680  1.7062
 7903TIP3    H245125   5.395   5.876   5.600 -0.0873  2.6009  0.6884
 7904TIP3   OH245126   3.427   5.497  14.738  0.8167  0.5711  0.3829
 7904TIP3    H145127   3.386   5.581  14.759  1.8246  1.2275 -0.2157
 7904TIP3    H245128   3.511   5.521  14.698  0.7753 -0.7032 -0.5010
 7905TIP3   OH245129   6.366   4.205   1.613  0.0802  0.3766 -0.0661
 7905TIP3    H145130   6.290   4.169   1.659  0.3104  0.0885  0.0889
 7905TIP3    H245131   6.341   4.200   1.520 -0.1620  0.4499 -0.0065
 7906TIP3   OH245132   0.193   2.898  12.980 -0.2690 -0.0726 -0.1635
 7906TIP3    H145133   0.247   2.847  13.041 -0.3674  0.0099 -0.0059
 7906TIP3    H245134   0.159   2.970  13.033 -0.8412 -0.3384 -0.1681
 7907TIP3   OH245135   2.442   4.381   0.732  0.0423 -0.5186  0.0489
 7907TIP3    H145136   2.390   4.340   0.663  1.7659 -1.6216 -0.6271
 7907TIP3    H245137   2.494   4.447   0.686  0.4932 -0.6020  0.4372
 7908TIP3   OH245138   3.770   3.065   3.980  0.4635 -0.6027 -0.5606
 7908TIP3    H145139   3.786   3.156   4.005  4.2853 -1.1137 -0.7924
 7908TIP3    H245140   3.731   3.025   4.057 -0.6023  1.0593 -0.2234
 7909TIP3   OH245141   5.195   6.283  13.416  0.6728  0.0926 -0.1009
 7909TIP3    H145142   5.227   6.201  13.455 -0.8962 -0.4444  0.0894
 7909TIP3    H245143   5.113   6.301  13.462  0.4220  1.1601 -0.9486
 7910TIP3   OH245144   0.485   5.772   0.634  0.4807 -0.1387 -0.5344
 7910TIP3    H145145   0.537   5.700   0.670 -2.2056 -1.6047  0.5595
 7910TIP3    H245146   0.410   5.779   0.692 -1.4512  0.7454 -3.0294
 7911TIP3   OH245147   0.637   4.072   4.886  0.2350  0.0483 -0.3211
 7911TIP3    H145148   0.588   4.047   4.965  0.4181  0.1900 -0.1623
 7911TIP3    H245149   0.570   4.078   4.818  0.2469 -1.3529 -0.4749
 7912TIP3   OH245150   5.407   2.290   2.591 -0.3444 -0.0680 -0.4427
 7912TIP3    H145151   5.425   2.384   2.581  0.1324 -0.2197 -1.0658
 7912TIP3    H245152   5.482   2.247   2.550  1.0100 -0.7671  2.6510
 7913TIP3   OH245153   2.224   6.185  13.848 -0.1482  0.2675 -0.3481
 7913TIP3    H145154   2.255   6.208  13.761  1.9891 -0.6918  0.1152
 7913TIP3    H245155   2.231   6.090  13.852  1.0148  0.3944  1.2910
 7914TIP3   OH245156   1.242   0.956  14.846  0.4222 -0.4279  0.2391
 7914TIP3    H145157   1.257   0.969  14.939 -1.3656  0.7305  0.3821
 7914TIP3    H245158   1.160   0.907  14.841 -0.4177  1.0502 -0.7629
 7915TIP3   OH245159   1.633   4.056   4.752 -0.0537 -0.1369  0.0943
 7915TIP3    H145160   1.542   4.087   4.760  0.0526 -0.1179  1.4587
 7915TIP3    H245161   1.663   4.049   4.843  1.5419  0.5251 -0.3742
 7916TIP3   OH245162   3.950   0.638   0.001  0.3858 -0.7829 -0.0936
 7916TIP3    H145163   3.903   0.612   0.080  1.2298 -0.8228  0.3899
 7916TIP3    H245164   3.892   0.611  -0.071 -1.3994  1.2396  0.5489
 7917TIP3   OH245165   2.417   4.911   0.067 -0.5333  0.0468  0.1603
 7917TIP3    H145166   2.370   4.993   0.050 -1.2661 -0.5569 -0.8012
 7917TIP3    H245167   2.392   4.854  -0.005 -0.4912 -1.2214  1.1267
 7918TIP3   OH245168   0.355   5.762   5.532  0.0309  0.0595  0.0743
 7918TIP3    H145169   0.314   5.683   5.497  1.4969  0.5681 -2.9826
 7918TIP3    H245170   0.448   5.741   5.536  0.3098  1.2753  0.1618
 7919TIP3   OH245171   2.234   5.806  15.194 -0.8416 -0.1440 -0.6213
 7919TIP3    H145172   2.253   5.877  15.133 -0.9913 -0.0811 -0.5948
 7919TIP3    H245173   2.216   5.849  15.277  1.4800 -0.3323  0.0207
 7920TIP3   OH245174   3.817   3.332   2.517 -0.2446  0.1127 -0.1999
 7920TIP3    H145175   3.855   3.271   2.453  1.7631  1.3852 -0.2679
 7920TIP3    H245176   3.729   3.349   2.485  0.4981  0.2048 -2.2605
 7921TIP3   OH245177   5.126   3.268  16.600 -0.0744  0.2945 -0.0601
 7921TIP3    H145178   5.135   3.211  16.524 -1.1163  0.1202 -0.0725
 7921TIP3    H245179   5.055   3.328  16.576 -1.5434 -0.8038  1.3917
 7922TIP3   OH245180   0.857   2.696  13.841  0.1006 -0.4633  0.7860
 7922TIP3    H145181   0.766   2.721  13.822  0.6683  1.9242  1.0714
 7922TIP3    H245182   0.859   2.686  13.936  0.1178 -0.6076  0.7698
 7923TIP3   OH245183   1.536   6.717  14.295 -0.0618 -0.6985  0.5395
 7923TIP3    H145184   1.585   6.686  14.219 -0.5405 -0.3147  0.0678
 7923TIP3    H245185   1.473   6.779  14.259 -2.3194 -2.7190  0.8444
 7924TIP3   OH245186   4.131   2.822   1.300 -0.0408 -0.0369 -0.1455
 7924TIP3    H145187   4.225   2.806   1.311  0.3370  1.6621 -0.7380
 7924TIP3    H245188   4.109   2.781   1.216 -0.0298 -1.1641  0.3861
 7925TIP3   OH245189   0.472   6.645   3.718 -0.0350  0.1186  0.7640
 7925TIP3    H145190   0.476   6.550   3.724  1.6451  0.0483 -0.9334
 7925TIP3    H245191   0.393   6.669   3.767 -0.7486 -2.1710  0.7957
 7926TIP3   OH245192   4.725   4.592  14.895 -0.3491  0.8091 -0.3545
 7926TIP3    H145193   4.793   4.659  14.888  0.6651  0.0973  2.0554
 7926TIP3    H245194   4.769   4.510  14.871 -0.7531  0.5633 -0.2687
 7927TIP3   OH245195   0.050   1.135  17.149 -0.2013 -0.3421  0.1742
 7927TIP3    H145196   0.076   1.083  17.073 -0.0655  0.5585 -0.4099
 7927TIP3    H245197   0.132   1.155  17.194  0.0128  1.3629 -0.9230
 7928TIP3   OH245198   6.188   6.049   6.364  0.4971  0.1434 -0.0139
 7928TIP3    H145199   6.115   6.095   6.405  0.7450  0.5500 -0.0290
 7928TIP3    H245200   6.258   6.052   6.429  0.8880  0.7777 -0.4580
 7929TIP3   OH245201   2.018   1.914  12.840 -0.0585  0.2191 -0.3254
 7929TIP3    H145202   1.966   1.992  12.861  0.6852  0.9572 -1.1547
 7929TIP3    H245203   2.051   1.883  12.924 -0.2851  0.8596  0.0013
 7930TIP3   OH245204   2.143   3.273   2.848 -1.0406  0.3914  0.2057
 7930TIP3    H145205   2.191   3.273   2.931  1.7393 -0.0960 -1.3417
 7930TIP3    H245206   2.160   3.187   2.810 -2.3919  0.5676 -0.8238
 7931TIP3   OH245207   1.301   6.147  13.299 -0.4602 -0.0590  0.0684
 7931TIP3    H145208   1.345   6.177  13.220  2.4804  0.1517  1.6761
 7931TIP3    H245209   1.246   6.221  13.325  0.5655  0.8981 -0.3972
 7932TIP3   OH245210   6.154   0.340   4.457 -0.4636 -0.5897  0.8285
 7932TIP3    H145211   6.159   0.270   4.522  0.2010  1.3256  2.8988
 7932TIP3    H245212   6.201   0.413   4.497 -0.2543  0.7288 -1.7212
 7933TIP3   OH245213   2.407   6.042  11.536 -0.3126 -0.0022  0.3385
 7933TIP3    H145214   2.490   6.018  11.495  0.4513  0.7382  1.4413
 7933TIP3    H245215   2.426   6.121  11.585 -1.7850  0.4155  0.2623
 7934TIP3   OH245216   3.930   4.969   3.183 -0.4231 -0.5327 -0.0315
 7934TIP3    H145217   3.978   5.004   3.108  2.0108 -0.1364  1.6536
 7934TIP3    H245218   3.975   4.888   3.206  0.0121  0.2724  2.1122
 7935TIP3   OH245219   6.317   0.173  15.360  0.3599 -0.3583 -0.1322
 7935TIP3    H145220   6.229   0.202  15.338  0.5977  0.7699  0.3653
 7935TIP3    H245221   6.306   0.086  15.397 -0.3902 -0.8611 -1.5059
 7936TIP3   OH245222   1.044   5.251  11.958 -0.9391 -0.1577  0.1158
 7936TIP3    H145223   1.043   5.198  12.038  0.8774 -0.6688 -0.1902
 7936TIP3    H245224   1.064   5.339  11.989 -2.8131  0.1660  0.4905
 7937TIP3   OH245225   4.557   4.571  13.557 -0.5238  1.0951 -0.6662
 7937TIP3    H145226   4.643   4.529  13.547 -0.7143  0.0911  1.5635
 7937TIP3    H245227   4.544   4.577  13.652 -3.1117  0.8378 -0.9709
 7938TIP3   OH245228   6.287   4.359   5.908 -0.4635 -0.0694 -0.0759
 7938TIP3    H145229   6.299   4.364   6.003 -2.6301  2.2303  0.1322
 7938TIP3    H245230   6.223   4.289   5.896 -1.7512  1.0182  0.3456
 7939TIP3   OH245231   1.559   3.538  13.880  0.5502 -0.1994  0.0451
 7939TIP3    H145232   1.537   3.595  13.806 -2.0147  0.3719  1.1923
 7939TIP3    H245233   1.504   3.460  13.866  2.2799 -1.4056 -0.2296
 7940TIP3   OH245234   0.207   3.073   5.711  0.6473 -0.0009 -0.0056
 7940TIP3    H145235   0.219   2.994   5.658 -1.7646 -1.2434  1.2323
 7940TIP3    H245236   0.213   3.042   5.802 -1.5144  0.9937  0.5142
 7941TIP3   OH245237   0.432   0.259   3.872 -0.2627  0.0839  0.4950
 7941TIP3    H145238   0.361   0.318   3.845  0.4684  0.9233  0.3877
 7941TIP3    H245239   0.433   0.266   3.968 -2.0927 -2.0089  0.7191
 7942TIP3   OH245240   4.301   2.336   1.723  0.9402  0.0797  0.7369
 7942TIP3    H145241   4.323   2.275   1.652  0.2858  1.8376 -1.0315
 7942TIP3    H245242   4.240   2.286   1.779 -1.3430 -0.2190 -1.8843
 7943TIP3   OH245243   1.927   2.623  13.886  0.1873  0.5329  0.2307
 7943TIP3    H145244   1.893   2.706  13.920  0.3744  0.7168 -0.0287
 7943TIP3    H245245   1.853   2.563  13.894  0.2339  0.5694  0.9692
 7944TIP3   OH245246   3.860   3.184  14.085 -0.4970  0.0290  0.5168
 7944TIP3    H145247   3.926   3.123  14.118  0.4307  0.2068 -0.9746
 7944TIP3    H245248   3.824   3.140  14.008 -1.5012  0.3294  0.8139
 7945TIP3   OH245249   1.377   0.902  17.201 -0.3505 -0.2832  0.0225
 7945TIP3    H145250   1.351   0.810  17.205 -0.5523 -0.1808  1.3057
 7945TIP3    H245251   1.420   0.911  17.116 -0.1004 -1.6208 -0.0104
 7946TIP3   OH245252   2.086   0.068  14.302  0.1366 -0.6991  0.0791
 7946TIP3    H145253   2.171   0.083  14.344  0.3043 -0.8284 -0.2098
 7946TIP3    H245254   2.104   0.080  14.208 -0.1888 -0.6177  0.0285
 7947TIP3   OH245255   6.771   6.603   5.890  0.2865  0.3552 -0.2812
 7947TIP3    H145256   6.710   6.647   5.950 -0.2186 -1.7192  0.7618
 7947TIP3    H245257   6.724   6.526   5.859  2.2814 -1.1936  0.4090
 7948TIP3   OH245258   1.246   5.327   5.685 -0.0077 -0.5339 -0.1693
 7948TIP3    H145259   1.157   5.359   5.698 -0.0716 -1.0914  0.8283
 7948TIP3    H245260   1.251   5.248   5.739  1.7858  0.7277  1.5667
 7949TIP3   OH245261   2.810   0.403  14.863  0.2272  0.2357 -0.1014
 7949TIP3    H145262   2.740   0.339  14.857  0.8147 -0.4135 -0.1579
 7949TIP3    H245263   2.770   0.479  14.905  0.2800 -1.2738  2.8189
 7950TIP3   OH245264   2.767   4.784   1.946  0.1916 -0.1126 -0.2547
 7950TIP3    H145265   2.736   4.694   1.938 -0.3451  0.1141 -0.7013
 7950TIP3    H245266   2.805   4.788   2.034 -1.5244 -0.2392  0.5040
 7951TIP3   OH245267   4.529   3.925  16.009  0.6726 -0.1552  0.2122
 7951TIP3    H145268   4.543   3.953  15.918  1.6272  0.2860  0.4930
 7951TIP3    H245269   4.481   3.997  16.049 -0.2750 -0.6072 -0.0937
 7952TIP3   OH245270   0.459   2.189  11.841 -0.2949 -0.3146  0.2523
 7952TIP3    H145271   0.375   2.223  11.809 -0.7703 -0.5539  1.2193
 7952TIP3    H245272   0.523   2.220  11.777 -1.3625 -1.8266 -1.6194
 7953TIP3   OH245273   3.989   0.138   4.358  0.2628  0.0498 -0.1520
 7953TIP3    H145274   3.990   0.122   4.452  1.2355 -0.0762 -0.1802
 7953TIP3    H245275   3.942   0.063   4.321  1.4440 -0.8168  0.0765
 7954TIP3   OH245276   0.397   5.363  17.012 -0.4018 -0.1188 -0.0040
 7954TIP3    H145277   0.346   5.430  16.967 -0.9136 -1.0949 -0.8713
 7954TIP3    H245278   0.477   5.409  17.039 -1.0700  1.0305  0.0741
 7955TIP3   OH245279   1.318   6.356  14.709 -0.3305  0.0860 -0.2405
 7955TIP3    H145280   1.398   6.307  14.692  0.3941  0.0495  3.0133
 7955TIP3    H245281   1.264   6.342  14.631  2.4684 -0.5733 -2.1199
 7956TIP3   OH245282   5.814   6.489   2.828  0.7858  0.7296  0.2259
 7956TIP3    H145283   5.742   6.552   2.828  1.7094  1.8199 -1.5557
 7956TIP3    H245284   5.886   6.536   2.872  0.6728 -0.0413  1.2371
 7957TIP3   OH245285   5.921   5.260  13.196 -0.0445  0.4523  0.4609
 7957TIP3    H145286   6.001   5.241  13.246 -0.8530 -1.1271  1.1797
 7957TIP3    H245287   5.942   5.233  13.106  0.3947  0.4843  0.5518
 7958TIP3   OH245288   4.938   1.447   6.022  0.1278 -0.1912  0.7086
 7958TIP3    H145289   4.919   1.538   6.046  1.0694  0.2668 -0.2737
 7958TIP3    H245290   4.853   1.411   5.995  0.2376  1.2028 -1.5650
 7959TIP3   OH245291   1.772   2.280  12.197  0.0197  0.1896 -0.2990
 7959TIP3    H145292   1.756   2.325  12.280  1.6251 -0.2100  0.2521
 7959TIP3    H245293   1.859   2.241  12.208 -0.4660 -1.2716 -1.5567
 7960TIP3   OH245294   6.419   6.208  16.431  0.4010 -0.1564 -0.3740
 7960TIP3    H145295   6.487   6.161  16.383  0.6237 -0.7986  0.5684
 7960TIP3    H245296   6.398   6.283  16.375 -0.2516 -1.5804 -2.0737
 7961TIP3   OH245297   5.894   4.959  14.326 -0.2971 -0.0571  0.7228
 7961TIP3    H145298   5.917   4.998  14.410  1.9460  0.4027 -0.0543
 7961TIP3    H245299   5.957   4.997  14.264 -0.5479 -1.9802 -0.7689
 7962TIP3   OH245300   1.910   5.455   0.690  0.1846  0.2611  0.2115
 7962TIP3    H145301   1.841   5.475   0.754 -0.6345 -0.5309 -0.4108
 7962TIP3    H245302   1.866   5.463   0.605  1.5027  2.3052 -0.3333
 7963TIP3   OH245303   5.477   5.720   3.597  0.3773 -0.0548  0.0553
 7963TIP3    H145304   5.462   5.660   3.670 -2.2092 -0.1003 -0.4542
 7963TIP3    H245305   5.412   5.694   3.531 -1.4540  3.8523  0.1820
 7964TIP3   OH245306   4.752   1.093   0.464  0.1620 -0.0964 -0.2973
 7964TIP3    H145307   4.847   1.097   0.471  0.1877  1.3993 -1.4141
 7964TIP3    H245308   4.731   1.147   0.388 -1.6802  0.7406  0.7797
 7965TIP3   OH245309   0.621   0.790  15.997 -0.6824  0.1533 -0.4568
 7965TIP3    H145310   0.673   0.725  16.044 -0.4657 -0.4086 -1.4668
 7965TIP3    H245311   0.533   0.779  16.031 -0.5577 -0.3632 -0.2960
 7966TIP3   OH245312   6.336   0.874   0.907  0.6866 -0.4154 -0.0088
 7966TIP3    H145313   6.362   0.826   0.986 -0.4029  0.7719  1.0969
 7966TIP3    H245314   6.407   0.937   0.894  0.4119  0.0302  0.5971
 7967TIP3   OH245315   4.557   5.603  15.435 -0.5213 -0.3658 -0.1043
 7967TIP3    H145316   4.523   5.649  15.359 -0.5830  0.7167  0.5718
 7967TIP3    H245317   4.628   5.659  15.468  0.4487 -1.5158 -0.1986
 7968TIP3   OH245318   0.045   5.761  14.347  0.0164  0.2434  0.1830
 7968TIP3    H145319   0.006   5.841  14.382  0.1339  0.4545 -0.1679
 7968TIP3    H245320   0.140   5.773  14.358 -0.0336 -0.4284  1.3828
 7969TIP3   OH245321   1.082   5.006  13.546  0.3495 -0.0142 -0.1132
 7969TIP3    H145322   1.015   5.073  13.538  0.3651 -0.0291 -0.3617
 7969TIP3    H245323   1.086   4.965  13.460  1.9373  1.1857 -0.6364
 7970TIP3   OH245324   2.896   0.209  11.419 -0.0762  0.4063 -0.1614
 7970TIP3    H145325   2.879   0.303  11.424 -0.6759  0.1914  2.6121
 7970TIP3    H245326   2.822   0.169  11.464 -0.5233 -1.5050 -2.5431
 7971TIP3   OH245327   5.807   6.501   3.992 -0.2176 -0.2265 -0.4769
 7971TIP3    H145328   5.779   6.592   4.004  2.8865  0.7506  0.0079
 7971TIP3    H245329   5.828   6.495   3.898 -0.2664 -0.3831 -0.4771
 7972TIP3   OH245330   3.881   4.912  16.873  0.7445  0.0751  0.5822
 7972TIP3    H145331   3.804   4.888  16.923 -0.1999  0.6963 -0.5404
 7972TIP3    H245332   3.851   4.983  16.815  1.9366 -0.2309 -0.4393
 7973TIP3   OH245333   3.031   1.647  14.240  0.1626 -0.2057 -0.0774
 7973TIP3    H145334   3.042   1.555  14.217 -1.1479 -1.0270  2.3341
 7973TIP3    H245335   3.090   1.660  14.315  0.0498  0.8267 -0.1594
 7974TIP3   OH245336   5.192   5.482  17.019 -0.3794 -0.3817  0.0400
 7974TIP3    H145337   5.205   5.577  17.010  0.2899 -0.4141  0.6324
 7974TIP3    H245338   5.274   5.450  17.056 -1.2105 -0.9720  1.3813
 7975TIP3   OH245339   6.503   1.664   0.400  0.0217 -0.1532 -0.5392
 7975TIP3    H145340   6.552   1.589   0.366  0.6390 -0.3561  0.7679
 7975TIP3    H245341   6.569   1.721   0.438 -0.5889  0.3763 -0.2569
 7976TIP3   OH245342   4.983   2.213  12.244  0.3815  0.8380 -0.2026
 7976TIP3    H145343   4.979   2.124  12.209 -0.4750  0.9480 -0.4045
 7976TIP3    H245344   5.019   2.203  12.332  1.3622  0.4223 -0.6518
 7977TIP3   OH245345   0.502   2.095  12.087  0.5528 -0.1515  0.0129
 7977TIP3    H145346   0.491   2.001  12.076 -0.1199 -0.0810  0.0404
 7977TIP3    H245347   0.510   2.129  11.998 -2.3888  0.1263 -0.2068
 7978TIP3   OH245348   2.859   6.699   5.320  0.0864  0.1676  0.0436
 7978TIP3    H145349   2.902   6.740   5.245  1.8958  1.6396  1.8232
 7978TIP3    H245350   2.918   6.628   5.347 -1.0578 -1.0237 -0.5368
 7979TIP3   OH245351   1.458   0.172  13.279 -0.3417 -0.1072  0.6089
 7979TIP3    H145352   1.533   0.139  13.229  0.3483 -1.5481  2.5461
 7979TIP3    H245353   1.487   0.257  13.312 -0.0121 -0.1189  0.3544
 7980TIP3   OH245354   5.353   5.899   3.236  0.6532  0.3467 -0.1657
 7980TIP3    H145355   5.445   5.885   3.256  0.6441  1.6681  0.8772
 7980TIP3    H245356   5.350   5.912   3.141  1.5728  0.5675 -0.1662
 7981TIP3   OH245357   2.953   4.498   2.731 -0.5490 -0.1833  0.1936
 7981TIP3    H145358   2.983   4.566   2.670 -0.6510  0.6169  1.0157
 7981TIP3    H245359   2.865   4.526   2.756 -1.4464 -1.7687 -1.1135
 7982TIP3   OH245360   6.384   5.481  11.981  0.1780 -0.5796 -0.1415
 7982TIP3    H145361   6.399   5.404  11.926  0.0196  0.3361 -1.4825
 7982TIP3    H245362   6.315   5.530  11.937 -1.5267 -0.9366  2.0483
 7983TIP3   OH245363   2.493   3.551   3.605  0.4872  0.2535  0.6318
 7983TIP3    H145364   2.506   3.644   3.588 -0.2594  0.3046  0.2831
 7983TIP3    H245365   2.427   3.524   3.540  1.1120 -0.6401  0.3518
 7984TIP3   OH245366   0.759   0.592   0.600 -0.6031 -0.1949  0.9520
 7984TIP3    H145367   0.847   0.562   0.579 -0.8817  0.3621 -1.1819
 7984TIP3    H245368   0.702   0.536   0.547 -1.4538  0.2746  1.3562
 7985TIP3   OH245369   4.657   1.670   4.331 -0.4764  0.0321 -0.8326
 7985TIP3    H145370   4.721   1.732   4.297  0.3025 -0.3337 -0.0400
 7985TIP3    H245371   4.622   1.712   4.409  1.5174 -1.3822  0.8582
 7986TIP3   OH245372   2.435   1.214   2.902  0.0137  0.0267  0.0665
 7986TIP3    H145373   2.365   1.274   2.880 -0.4188  0.0829  1.5312
 7986TIP3    H245374   2.488   1.208   2.823  1.0345  3.6326  0.3955
 7987TIP3   OH245375   4.528   2.778   2.373  0.3124 -0.1383 -0.0413
 7987TIP3    H145376   4.574   2.840   2.429 -0.1789  0.4603 -0.2993
 7987TIP3    H245377   4.534   2.815   2.285  0.7898 -0.9051 -0.3436
 7988TIP3   OH245378   6.640   5.922  13.845  0.0866  0.2808 -0.2559
 7988TIP3    H145379   6.713   5.940  13.786  0.8287 -0.7144  0.3360
 7988TIP3    H245380   6.672   5.948  13.931 -1.2397  2.3933 -0.3633
 7989TIP3   OH245381   3.147   4.258  15.468  0.4909 -0.6973  0.2176
 7989TIP3    H145382   3.081   4.318  15.502  1.5012  0.1007  0.8046
 7989TIP3    H245383   3.099   4.178  15.446 -0.9062  0.3945 -0.7534
 7990TIP3   OH245384   2.638   3.386   2.449  0.7086 -0.4712 -0.2192
 7990TIP3    H145385   2.693   3.308   2.443 -0.4320 -1.3025 -0.0188
 7990TIP3    H245386   2.557   3.356   2.491 -0.2220  0.5593 -1.2205
 7991TIP3   OH245387   6.424   2.641  12.227  0.2449  0.4691  0.4223
 7991TIP3    H145388   6.407   2.693  12.148  0.9783 -0.7495 -0.5519
 7991TIP3    H245389   6.367   2.565  12.218 -0.0457  0.5780  1.3250
 7992TIP3   OH245390   4.939   2.094   5.612 -0.4026  0.1062 -0.4818
 7992TIP3    H145391   4.950   2.087   5.517 -0.2879 -1.4429 -0.3686
 7992TIP3    H245392   4.998   2.027   5.647  2.2554  3.0086  0.8501
 7993TIP3   OH245393   5.834   4.600  17.091 -0.0006  0.4753 -0.1182
 7993TIP3    H145394   5.789   4.564  17.015  0.5157 -2.3713  0.8683
 7993TIP3    H245395   5.875   4.680  17.059  1.7094 -1.6064 -3.3223
 7994TIP3   OH245396   2.944   5.957  12.709  0.1485 -0.4702 -0.1650
 7994TIP3    H145397   2.851   5.946  12.693 -0.0013 -1.1713  1.1218
 7994TIP3    H245398   2.987   5.912  12.636 -0.4991  0.1694 -0.9594
 7995TIP3   OH245399   1.125   2.991  16.433 -0.7103  0.1902  0.2536
 7995TIP3    H145400   1.094   2.902  16.416 -0.3746 -0.4341  2.7746
 7995TIP3    H245401   1.062   3.047  16.388 -1.7155 -1.2639 -0.1878
 7996TIP3   OH245402   0.164   4.365  13.915  0.3017  0.1570  0.6624
 7996TIP3    H145403   0.079   4.323  13.901 -0.3637  1.6648  0.0463
 7996TIP3    H245404   0.205   4.363  13.829 -0.2806  1.8939  0.3145
 7997TIP3   OH245405   4.320   6.147   4.456 -0.0430 -0.0759  0.9188
 7997TIP3    H145406   4.288   6.227   4.497  1.3175 -0.1221  2.1079
 7997TIP3    H245407   4.390   6.117   4.513 -0.0228 -1.7074  0.0737
 7998TIP3   OH245408   0.979   1.933   0.030 -0.0299 -0.6713  0.6869
 7998TIP3    H145409   0.961   2.014  -0.018 -1.8175 -0.8968  0.9405
 7998TIP3    H245410   0.967   1.863  -0.035 -1.8622 -0.9363  1.2651
 7999TIP3   OH245411   2.594   3.645   2.021  0.2044 -0.4679  0.3406
 7999TIP3    H145412   2.504   3.675   2.020 -0.4200 -2.2951  0.0931
 7999TIP3    H245413   2.646   3.724   2.010 -1.2850  0.8574  2.4926
 8000TIP3   OH245414   5.833   3.167   1.346  0.2309  0.1472 -0.2153
 8000TIP3    H145415   5.812   3.144   1.436 -0.9047  0.1613 -0.4702
 8000TIP3    H245416   5.755   3.211   1.313  1.6559  2.6410 -0.3497
 8001TIP3   OH245417   5.715   5.317  13.764  0.5559  0.2920  0.4466
 8001TIP3    H145418   5.741   5.311  13.672 -0.6604 -0.7073  0.1508
 8001TIP3    H245419   5.782   5.266  13.811 -1.0945 -2.6999 -0.3686
 8002TIP3   OH245420   4.838   5.191   3.654 -0.0756  0.0902 -0.5813
 8002TIP3    H145421   4.746   5.206   3.677  0.1461 -0.6863  0.8601
 8002TIP3    H245422   4.886   5.259   3.702  0.1690  0.0111 -0.7116
 8003TIP3   OH245423   3.127   1.692   0.880  0.0982 -0.2426 -0.1720
 8003TIP3    H145424   3.154   1.782   0.862 -0.4614  0.0919  0.6308
 8003TIP3    H245425   3.083   1.663   0.800 -2.3444  1.2179  0.5752
 8004TIP3   OH245426   6.740   3.216  13.932 -0.3472 -0.2831  0.4821
 8004TIP3    H145427   6.737   3.142  13.871 -2.9432 -0.5345  0.8851
 8004TIP3    H245428   6.749   3.177  14.018 -3.5134 -0.2725  0.8730
 8005TIP3   OH245429   6.599   6.588  13.898 -0.4372 -0.1585  0.4577
 8005TIP3    H145430   6.639   6.522  13.955 -0.6425  0.0390  0.8343
 8005TIP3    H245431   6.576   6.659  13.957 -0.3262  0.1990  0.0683
 8006TIP3   OH245432   0.896   0.565   5.246 -0.1230 -0.3672 -0.2276
 8006TIP3    H145433   0.906   0.482   5.293 -3.1382 -0.8518 -0.3741
 8006TIP3    H245434   0.904   0.541   5.153 -0.3764 -0.4087 -0.2399
 8007TIP3   OH245435   4.371   6.421   2.515 -0.2917 -0.3872  0.0267
 8007TIP3    H145436   4.282   6.436   2.546  0.1216  1.0153  0.5751
 8007TIP3    H245437   4.404   6.349   2.570 -1.0245 -0.8130 -0.0867
 8008TIP3   OH245438   3.047   0.371   3.735 -0.1808  0.2334  0.4219
 8008TIP3    H145439   3.055   0.278   3.712  0.5355  0.6527 -1.1029
 8008TIP3    H245440   2.957   0.380   3.765 -0.4058 -0.8617  0.1120
 8009TIP3   OH245441   3.811   4.403   2.115 -0.0409 -0.3223  0.0528
 8009TIP3    H145442   3.893   4.370   2.153 -0.6956 -0.7672  1.1267
 8009TIP3    H245443   3.759   4.429   2.191 -1.1127 -0.5735 -0.5846
 8010TIP3   OH245444   0.009   1.510   1.812  0.3493 -0.5015 -0.0733
 8010TIP3    H145445   0.004   1.504   1.717 -1.5228  1.3878 -0.1377
 8010TIP3    H245446   0.096   1.546   1.829  1.0522 -1.7366 -0.9942
 8011TIP3   OH245447   3.093   5.896   0.199  0.4619 -0.7105 -0.3323
 8011TIP3    H145448   3.179   5.884   0.159  1.5114  0.5545  1.4776
 8011TIP3    H245449   3.101   5.976   0.250 -1.1882 -1.6395  1.4546
 8012TIP3   OH245450   6.763   4.808   5.527 -0.3328  0.3175  0.5122
 8012TIP3    H145451   6.749   4.730   5.473 -0.5783  1.1544 -0.6632
 8012TIP3    H245452   6.709   4.794   5.605 -0.8994 -0.3828 -0.0041
 8013TIP3   OH245453   0.986   6.785  10.736 -0.5988  1.0656  0.2455
 8013TIP3    H145454   0.939   6.865  10.714 -1.3396  0.3964 -0.6944
 8013TIP3    H245455   0.932   6.744  10.804 -2.2238 -0.4244 -1.8591
 8014TIP3   OH245456   0.009   2.241   4.631 -0.3349  0.1029  0.0508
 8014TIP3    H145457  -0.051   2.312   4.608 -0.5136 -0.3809 -0.9699
 8014TIP3    H245458   0.044   2.210   4.547  1.2094  0.2633  0.6182
 8015TIP3   OH245459   4.552   2.587  11.520 -0.2946 -0.0757  0.3840
 8015TIP3    H145460   4.628   2.529  11.523 -1.1724 -1.3224 -0.7510
 8015TIP3    H245461   4.580   2.660  11.463 -0.2169 -0.9438 -0.7069
 8016TIP3   OH245462   5.984   1.394   3.839  0.3317 -0.6541 -0.5008
 8016TIP3    H145463   5.970   1.358   3.926  0.7533  1.3337  0.4060
 8016TIP3    H245464   6.041   1.331   3.795  0.3298 -1.5220  0.7385
 8017TIP3   OH245465   4.183   6.523  13.490  0.1139  0.0433  0.1125
 8017TIP3    H145466   4.269   6.504  13.452  0.1088 -1.0920  0.6711
 8017TIP3    H245467   4.126   6.455  13.455 -1.3674  2.6825 -2.9410
 8018TIP3   OH245468   6.707   6.492   5.447  0.4061 -0.1426 -0.3597
 8018TIP3    H145469   6.756   6.467   5.525 -0.8071 -1.0528  0.1235
 8018TIP3    H245470   6.717   6.587   5.442  1.1342 -0.1657  0.4617
 8019TIP3   OH245471   0.495   2.620  16.306 -0.3672  0.3055  0.1789
 8019TIP3    H145472   0.561   2.577  16.252 -1.6393 -0.8975 -0.4476
 8019TIP3    H245473   0.418   2.565  16.297 -1.2596  1.3376  1.4360
 8020TIP3   OH245474   3.615   5.229  13.751 -0.5526 -0.0120 -0.1427
 8020TIP3    H145475   3.702   5.266  13.740 -1.1315  1.0841 -1.1790
 8020TIP3    H245476   3.600   5.179  13.671 -0.7207 -0.5101  0.1993
 8021TIP3   OH245477   4.486   4.923  16.030  0.2769  0.6174  0.5131
 8021TIP3    H145478   4.537   4.843  16.038 -0.3295  0.2505  0.8001
 8021TIP3    H245479   4.515   4.963  15.948 -0.5625 -0.7109 -0.4415
 8022TIP3   OH245480   4.448   3.844   4.722  0.4007 -0.2490 -0.5375
 8022TIP3    H145481   4.508   3.898   4.774 -0.2075 -0.2155  0.1371
 8022TIP3    H245482   4.434   3.895   4.642  0.7090  0.0761 -0.3874
 8023TIP3   OH245483   2.796   2.269  16.816  0.3208 -0.2342 -0.1837
 8023TIP3    H145484   2.727   2.332  16.796  0.8751  0.5927  0.4819
 8023TIP3    H245485   2.875   2.322  16.824  0.6561 -0.9186  1.2091
 8024TIP3   OH245486   4.319   2.255   4.304 -0.0509  0.2802  0.3795
 8024TIP3    H145487   4.369   2.336   4.318 -0.3091  0.2956  1.2800
 8024TIP3    H245488   4.244   2.263   4.362  0.0902 -0.7503  0.7215
 8025TIP3   OH245489   3.038   3.731  14.310 -0.7159  0.2544 -0.6029
 8025TIP3    H145490   3.050   3.789  14.386 -2.3597 -0.9497  0.5981
 8025TIP3    H245491   3.014   3.791  14.239 -0.0707  1.3015  0.0428
 8026TIP3   OH245492   1.968   2.811  15.409  0.4426 -0.3450 -1.2027
 8026TIP3    H145493   1.899   2.811  15.343 -0.1188 -1.0121 -0.6216
 8026TIP3    H245494   1.996   2.903  15.414 -1.4595  0.2193 -0.3559
 8027TIP3   OH245495   3.044   6.453   1.770 -0.5052  0.4840  0.7874
 8027TIP3    H145496   3.109   6.456   1.699 -2.4387 -0.0481 -1.0524
 8027TIP3    H245497   3.043   6.543   1.804  0.0281  0.8970 -0.2486
 8028TIP3   OH245498   0.024   6.467   3.469 -0.1159 -0.7803  0.2252
 8028TIP3    H145499   0.049   6.463   3.376  0.3538 -2.7297  0.4072
 8028TIP3    H245500  -0.046   6.402   3.477 -0.8122  0.0664  1.0512
 8029TIP3   OH245501   0.482   0.259  14.054 -0.2573  0.7133  0.2942
 8029TIP3    H145502   0.523   0.334  14.012  0.7280  0.5850  1.0068
 8029TIP3    H245503   0.506   0.267  14.147 -0.8313 -0.0301  0.5174
 8030TIP3   OH245504   0.789   5.729  14.309 -0.1827  0.0982 -0.1709
 8030TIP3    H145505   0.709   5.714  14.258 -1.5375  1.5754  1.4633
 8030TIP3    H245506   0.770   5.693  14.396  1.3976 -0.6433 -0.1007
 8031TIP3   OH245507   1.526   1.672   6.773  0.4899  0.9262  0.8924
 8031TIP3    H145508   1.571   1.724   6.840  0.6101  1.3519  0.4890
 8031TIP3    H245509   1.514   1.586   6.812  0.9361  1.0507  1.3030
 8032TIP3   OH245510   2.967   2.267   1.493 -1.1336 -0.2819  0.0910
 8032TIP3    H145511   2.886   2.283   1.542  0.1542  1.8193  1.5784
 8032TIP3    H245512   2.996   2.353   1.464  1.5224 -0.7978  1.0734
 8033TIP3   OH245513   0.486   2.005  11.436 -0.1664  0.1400  0.2011
 8033TIP3    H145514   0.433   2.053  11.372  0.9563  1.6668  0.3878
 8033TIP3    H245515   0.565   1.979  11.388  0.8512  1.6081  1.0168
 8034TIP3   OH245516   3.841   0.561   4.863 -0.0316 -0.2859  0.2014
 8034TIP3    H145517   3.820   0.474   4.831 -0.6001 -1.1948  2.8750
 8034TIP3    H245518   3.796   0.567   4.947  0.6896  2.2724  0.4564
 8035TIP3   OH245519   0.329   1.521   4.802 -0.2625  0.0895 -0.7893
 8035TIP3    H145520   0.263   1.478   4.857 -0.3866 -1.0786 -1.8449
 8035TIP3    H245521   0.386   1.566   4.865 -0.4542 -1.1560  0.3012
 8036TIP3   OH245522   5.540   3.852  16.602  0.5152  0.0675  0.0399
 8036TIP3    H145523   5.475   3.802  16.552  1.2768 -0.8979  0.0071
 8036TIP3    H245524   5.624   3.827  16.564  0.8861  1.6089 -0.1797
 8037TIP3   OH245525   5.768   6.651  14.689 -0.3522  0.0806 -0.0579
 8037TIP3    H145526   5.829   6.695  14.747 -0.8945  0.9591 -0.1549
 8037TIP3    H245527   5.803   6.562  14.681  0.1600  0.1852  0.9660
 8038TIP3   OH245528   5.199   5.454  15.297 -0.3589 -0.0444 -0.1731
 8038TIP3    H145529   5.181   5.418  15.210 -0.5348 -0.1774 -0.0795
 8038TIP3    H245530   5.289   5.488  15.291 -1.8752  4.0264 -1.8257
 8039TIP3   OH245531   2.518   0.756   3.282  0.3789 -0.0033  0.1327
 8039TIP3    H145532   2.445   0.818   3.282  1.6288  1.5220 -0.6953
 8039TIP3    H245533   2.595   0.811   3.270  1.5910 -1.6733  0.1389
 8040TIP3   OH245534   4.811   2.150  14.770 -0.2997 -0.8548 -0.3876
 8040TIP3    H145535   4.807   2.146  14.674 -1.3911  0.7524 -0.4372
 8040TIP3    H245536   4.728   2.191  14.795  0.2008 -0.8069  1.2161
 8041TIP3   OH245537   1.407   1.744   1.236 -0.6402 -0.2293 -0.4128
 8041TIP3    H145538   1.332   1.731   1.177 -0.6182 -0.3203 -0.4207
 8041TIP3    H245539   1.483   1.737   1.178 -0.6580  0.6845 -0.5467
 8042TIP3   OH245540   0.007   1.530  13.295  0.7176 -0.3050  0.3097
 8042TIP3    H145541   0.080   1.547  13.235  1.3210 -0.3699  1.0166
 8042TIP3    H245542  -0.020   1.441  13.275 -0.2668  0.2973 -1.1040
 8043TIP3   OH245543   6.455   5.310   5.624 -0.4703  0.0284  0.2643
 8043TIP3    H145544   6.418   5.223   5.636 -1.7049  0.4936 -0.1497
 8043TIP3    H245545   6.442   5.329   5.531  1.4843 -0.1005 -0.0699
 8044TIP3   OH245546   1.722   5.061   3.790  0.0405  0.1962  0.3807
 8044TIP3    H145547   1.796   5.105   3.748  0.8160 -0.5304  0.9710
 8044TIP3    H245548   1.662   5.043   3.718  2.6630 -3.7045 -0.9785
 8045TIP3   OH245549   4.221   5.592  13.871 -0.2068  0.4222  0.0963
 8045TIP3    H145550   4.250   5.581  13.780 -0.1595 -1.4182  0.2968
 8045TIP3    H245551   4.297   5.563  13.923 -0.1159  1.7811  0.7288
 8046TIP3   OH245552   5.078   3.437   4.679  0.4549 -0.8119 -0.2226
 8046TIP3    H145553   5.004   3.383   4.652 -0.3700  0.4264 -0.4932
 8046TIP3    H245554   5.133   3.378   4.731  1.4650 -2.9035 -3.5391
 8047TIP3   OH245555   5.028   0.762   2.008  0.1634 -0.8580 -0.0678
 8047TIP3    H145556   5.070   0.722   1.932 -1.4517 -3.0500  0.1703
 8047TIP3    H245557   4.953   0.706   2.027  1.0607 -0.8565  3.7142
 8048TIP3   OH245558   5.602   1.871   3.044  0.0874  0.2006  0.0747
 8048TIP3    H145559   5.658   1.795   3.056  1.7093  1.4551  0.7241
 8048TIP3    H245560   5.518   1.846   3.082  0.5096 -1.3618 -0.0102
 8049TIP3   OH245561   5.560   3.647   1.807 -0.3163  0.1109 -0.3183
 8049TIP3    H145562   5.473   3.686   1.804 -0.1488  0.4037 -1.9079
 8049TIP3    H245563   5.615   3.705   1.754  1.3219  0.9918  2.2226
 8050TIP3   OH245564   4.208   6.751  11.810 -0.4115 -0.1348  0.1107
 8050TIP3    H145565   4.163   6.835  11.809 -0.3641 -0.1080 -1.3187
 8050TIP3    H245566   4.157   6.697  11.871 -1.9115  0.1480 -0.8576
 8051TIP3   OH245567   5.434   0.986   3.652 -0.4277 -0.8393 -0.0427
 8051TIP3    H145568   5.385   0.998   3.734  2.3461 -2.6312  1.9525
 8051TIP3    H245569   5.508   1.047   3.660 -0.5171 -0.5266 -1.5589
 8052TIP3   OH245570   1.221   4.529  12.337  0.1786 -0.4382 -0.7492
 8052TIP3    H145571   1.199   4.595  12.403 -0.6316 -0.8650 -0.5886
 8052TIP3    H245572   1.179   4.449  12.368 -1.6281 -0.2513 -2.6358
 8053TIP3   OH245573   4.149   2.950   3.082  0.1191 -0.7338  0.1190
 8053TIP3    H145574   4.075   2.940   3.021  0.4326 -2.1971 -0.0366
 8053TIP3    H245575   4.212   2.883   3.054  0.3704 -1.2650  1.8997
 8054TIP3   OH245576   2.701   4.208   2.703  0.7377  0.4251  0.2102
 8054TIP3    H145577   2.705   4.303   2.703  0.0811  0.4503 -0.1601
 8054TIP3    H245578   2.651   4.185   2.625  3.5639 -0.3565 -1.4766
 8055TIP3   OH245579   3.920   4.298   0.037 -0.3752  0.2166  0.5148
 8055TIP3    H145580   3.843   4.243   0.021 -0.9717  1.5560 -1.3635
 8055TIP3    H245581   3.894   4.386   0.008  1.5038  0.9032  0.8109
 8056TIP3   OH245582   6.557   2.280  12.268  0.7605  0.3558 -0.0834
 8056TIP3    H145583   6.513   2.195  12.281  1.8091 -0.2133 -0.1823
 8056TIP3    H245584   6.489   2.345  12.283  0.2938 -0.4748  1.5510
 8057TIP3   OH245585   1.771   0.605   0.291  0.6965 -0.2575 -0.1602
 8057TIP3    H145586   1.832   0.550   0.341 -0.0018 -0.3773  0.5733
 8057TIP3    H245587   1.694   0.612   0.348 -0.0191 -0.2067 -1.1347
 8058TIP3   OH245588   4.376   3.421  15.398 -0.6214  0.3094 -0.2754
 8058TIP3    H145589   4.447   3.442  15.337 -0.8349 -1.9906 -1.3672
 8058TIP3    H245590   4.352   3.505  15.437  1.6607  1.3436 -1.0274
 8059TIP3   OH245591   2.539   2.082   6.288  0.1474 -0.9275  0.8617
 8059TIP3    H145592   2.530   2.175   6.309 -0.9483 -1.3188  2.1902
 8059TIP3    H245593   2.457   2.043   6.317  0.6259 -2.3291  0.3616
 8060TIP3   OH245594   2.935   0.288   0.464  0.8493 -0.0070  0.1479
 8060TIP3    H145595   2.919   0.200   0.498  1.1779 -0.1444 -0.0561
 8060TIP3    H245596   3.022   0.311   0.496  1.2672 -0.2409 -0.8281
 8061TIP3   OH245597   2.435   4.166  12.963  0.0905 -0.0414  0.4049
 8061TIP3    H145598   2.370   4.101  12.935 -0.8159  1.2688 -0.5645
 8061TIP3    H245599   2.437   4.158  13.058  0.0097 -1.5067  0.2992
 8062TIP3   OH245600   3.243   5.802   1.946 -0.7067  0.3322  0.1578
 8062TIP3    H145601   3.158   5.785   1.905 -0.7189 -0.9888  0.7008
 8062TIP3    H245602   3.242   5.896   1.965 -2.1886  0.2697  0.4631
 8063TIP3   OH245603   6.014   2.740   3.660  0.2338  0.3170  0.9497
 8063TIP3    H145604   6.021   2.827   3.620  1.4961 -1.2343 -2.3320
 8063TIP3    H245605   6.100   2.723   3.696 -0.5747  1.2074  3.4397
 8064TIP3   OH245606   6.689   2.732   5.056 -0.0204  0.3006 -0.2726
 8064TIP3    H145607   6.598   2.743   5.027 -0.1752 -0.0885  0.0711
 8064TIP3    H245608   6.690   2.648   5.102  0.3567  0.6326  0.3345
 8065TIP3   OH245609   4.821   3.842  11.132  0.7386  0.1038  0.2199
 8065TIP3    H145610   4.844   3.758  11.092  0.4011  0.1488 -0.0742
 8065TIP3    H245611   4.835   3.906  11.061 -0.0089  0.1653  0.1324
 8066TIP3   OH245612   5.984   5.119   0.260  0.3759 -0.2489  0.4056
 8066TIP3    H145613   6.075   5.097   0.278  0.0997 -1.6188  0.2154
 8066TIP3    H245614   5.962   5.187   0.323  1.3223 -0.4072  0.9105
 8067TIP3   OH245615   6.767   2.882   1.920  0.4177  0.3664 -0.1038
 8067TIP3    H145616   6.698   2.930   1.874  0.5157 -0.1861 -0.8389
 8067TIP3    H245617   6.835   2.868   1.854  0.9795  0.4064  0.4677
 8068TIP3   OH245618   2.742   6.427   1.660 -0.2418  0.1565 -0.5812
 8068TIP3    H145619   2.811   6.494   1.656  0.7038 -0.5884  1.9453
 8068TIP3    H245620   2.662   6.474   1.640  0.7807  1.4079 -1.8679
 8069TIP3   OH245621   1.288   2.340  12.170  0.1837 -0.3993 -0.1368
 8069TIP3    H145622   1.350   2.270  12.150 -1.0462 -1.8195  0.8777
 8069TIP3    H245623   1.340   2.420  12.165  2.2339 -1.5954  1.2132
 8070TIP3   OH245624   6.765   2.887   2.801  0.3669 -0.3209 -0.2996
 8070TIP3    H145625   6.699   2.930   2.856  1.1827 -0.7463  1.0540
 8070TIP3    H245626   6.762   2.934   2.718 -0.6449  0.5882  0.2411
 8071TIP3   OH245627   0.223   5.488  14.865  0.8351  0.0045  0.6535
 8071TIP3    H145628   0.238   5.455  14.953  3.9463 -0.2158  0.0853
 8071TIP3    H245629   0.194   5.411  14.816  0.5338 -0.1935  1.1395
 8072TIP3   OH245630   0.872   6.037   4.469 -0.1400  0.6481  0.4265
 8072TIP3    H145631   0.958   6.055   4.430  0.2955  0.1659  1.1662
 8072TIP3    H245632   0.815   6.106   4.434 -0.0583 -0.4509 -2.0354
 8073TIP3   OH245633   4.827   6.583  11.071 -0.0952 -0.2926  0.1436
 8073TIP3    H145634   4.864   6.644  11.007  0.1592  0.3406  0.8864
 8073TIP3    H245635   4.803   6.506  11.019  0.6312 -0.0146 -0.6264
 8074TIP3   OH245636   6.643   5.063  15.464 -0.6206  0.2170 -0.0608
 8074TIP3    H145637   6.698   5.128  15.509 -0.5253 -0.3630  0.6641
 8074TIP3    H245638   6.553   5.093  15.479 -0.6334 -0.4763  1.3106
 8075TIP3   OH245639   1.485   5.325   4.884 -0.2793  0.5995 -0.3995
 8075TIP3    H145640   1.554   5.379   4.922 -0.4920  0.9480 -0.4998
 8075TIP3    H245641   1.530   5.263   4.828 -0.1690  2.1537 -2.1003
 8076TIP3   OH245642   6.762   3.398   0.487  0.0990 -0.1753  0.1837
 8076TIP3    H145643   6.821   3.438   0.423  0.1119 -0.9552 -0.3048
 8076TIP3    H245644   6.763   3.458   0.562 -1.7150  1.9267 -1.4349
 8077TIP3   OH245645   0.364   2.672   0.725  0.8252 -0.9297  0.2143
 8077TIP3    H145646   0.358   2.581   0.755 -0.7388 -0.5012  1.2443
 8077TIP3    H245647   0.458   2.688   0.717  1.1338 -2.4701  0.5373
 8078TIP3   OH245648   1.426   0.025   3.796 -0.1133  0.5046 -0.5299
 8078TIP3    H145649   1.514   0.004   3.829  0.1071  0.8194 -0.9186
 8078TIP3    H245650   1.426  -0.005   3.706 -0.6074 -0.0397 -0.3487
 8079TIP3   OH245651   1.886   6.354  13.418  0.5372  0.1547  0.6875
 8079TIP3    H145652   1.792   6.336  13.418  0.0090  2.7479  0.7769
 8079TIP3    H245653   1.903   6.394  13.504  1.4684  0.9483  0.1408
 8080TIP3   OH245654   0.654   2.217   2.557 -0.4347  0.2910  0.0371
 8080TIP3    H145655   0.598   2.146   2.587 -0.0035 -0.3141 -0.5774
 8080TIP3    H245656   0.743   2.188   2.576 -0.3777  1.9450  2.5197
 8081TIP3   OH245657   4.664   6.271  12.378 -0.2023  0.2301 -0.7301
 8081TIP3    H145658   4.688   6.207  12.311 -0.2696 -0.5477 -0.0244
 8081TIP3    H245659   4.573   6.292  12.360 -0.3480 -0.3051 -0.6133
 8082TIP3   OH245660   1.121   1.556   4.237  0.2530 -0.5046 -0.0145
 8082TIP3    H145661   1.130   1.514   4.152 -1.6406 -1.0753  0.0370
 8082TIP3    H245662   1.131   1.650   4.219  4.6495 -0.9024 -0.1080
 8083TIP3   OH245663   1.530   5.431   2.028  0.0859 -0.0284  0.2311
 8083TIP3    H145664   1.592   5.405   1.960  0.6463  1.7206  0.0269
 8083TIP3    H245665   1.460   5.366   2.024  0.2618 -0.1214 -1.8133
 8084TIP3   OH245666   4.894   1.086   6.298 -0.7966  0.4303  0.6181
 8084TIP3    H145667   4.977   1.085   6.346 -0.2247 -1.1500 -0.3585
 8084TIP3    H245668   4.839   1.147   6.347  0.8048  1.2154  1.5000
 8085TIP3   OH245669   1.225   0.967  15.125  0.0161  0.5567 -0.3943
 8085TIP3    H145670   1.229   1.062  15.117  3.0515  0.6027  0.9007
 8085TIP3    H245671   1.254   0.949  15.215 -1.2381 -1.5432 -0.3700
 8086TIP3   OH245672   0.702   6.588  14.625  0.1702 -0.1547  0.4672
 8086TIP3    H145673   0.794   6.610  14.637 -0.4769  3.1760  0.0720
 8086TIP3    H245674   0.658   6.631  14.699 -1.2547  0.0849 -0.5076
 8087TIP3   OH245675   3.602   1.394  11.788 -0.0813  0.1384 -0.1478
 8087TIP3    H145676   3.546   1.348  11.850 -2.1328  0.0688 -1.9994
 8087TIP3    H245677   3.659   1.448  11.843 -0.5426 -1.3606  1.8499
 8088TIP3   OH245678   0.918   5.179  13.419 -0.1731 -0.2541 -0.0226
 8088TIP3    H145679   0.887   5.216  13.337 -0.4666 -0.8753 -0.1907
 8088TIP3    H245680   0.861   5.218  13.486  0.7043  1.0251  0.0034
 8089TIP3   OH245681   4.029   2.175   5.529  0.1648 -0.2628  0.1465
 8089TIP3    H145682   4.124   2.180   5.525  0.1937 -1.1339 -0.4088
 8089TIP3    H245683   4.003   2.139   5.444 -0.6643  0.0325  0.2676
 8090TIP3   OH245684   2.219   0.334   0.472 -0.6973  0.4524  0.1810
 8090TIP3    H145685   2.263   0.380   0.400 -0.7154  1.1290  0.6039
 8090TIP3    H245686   2.287   0.320   0.537 -0.9277  0.7744  0.4887
 8091TIP3   OH245687   0.512   3.694  14.181 -0.0797  0.3643 -0.1321
 8091TIP3    H145688   0.607   3.698  14.189 -0.2478  2.9757  1.1791
 8091TIP3    H245689   0.481   3.703  14.271 -1.5642 -4.5594  0.0169
 8092TIP3   OH245690   3.565   1.156   1.330 -0.3094  0.6333  0.5275
 8092TIP3    H145691   3.522   1.234   1.367  0.8705  1.4550  0.2101
 8092TIP3    H245692   3.636   1.192   1.278 -0.2877 -0.6463 -0.3229
 8093TIP3   OH245693   5.357   6.499  16.473 -0.1986 -0.0631  0.2995
 8093TIP3    H145694   5.319   6.531  16.391  0.7739  2.9825  0.9754
 8093TIP3    H245695   5.296   6.431  16.502 -1.6741  0.2666 -1.8815
 8094TIP3   OH245696   6.645   3.729  16.599  0.1785 -0.1091  0.4201
 8094TIP3    H145697   6.728   3.758  16.561  0.5478 -1.6167  0.0665
 8094TIP3    H245698   6.586   3.804  16.587  1.4372  0.9259  0.5666
 8095TIP3   OH245699   0.423   3.618  12.196  0.5254  0.4522  0.6087
 8095TIP3    H145700   0.435   3.554  12.126  1.5113 -2.3267  3.1718
 8095TIP3    H245701   0.440   3.568  12.276 -0.5327  3.5137  2.8262
 8096TIP3   OH245702   2.647   0.469  12.047  0.2212  0.2331  0.0671
 8096TIP3    H145703   2.706   0.530  12.092 -2.8726  0.9743  3.3955
 8096TIP3    H245704   2.585   0.525  12.000 -0.1505 -0.4367 -0.2565
 8097TIP3   OH245705   4.584   0.828  13.927  0.3392  0.5468  0.3289
 8097TIP3    H145706   4.588   0.879  13.846 -0.1934  2.7514  1.6574
 8097TIP3    H245707   4.600   0.892  13.996  0.5799 -1.2776  1.9953
 8098TIP3   OH245708   0.896   0.688   2.189 -0.4200 -0.3520 -0.0817
 8098TIP3    H145709   0.871   0.603   2.152 -2.0435 -0.6186  1.5472
 8098TIP3    H245710   0.858   0.752   2.129  1.3675 -0.7420 -1.6799
 8099TIP3   OH245711   0.368   2.928   0.063  0.1847  0.0237 -0.3116
 8099TIP3    H145712   0.308   2.993   0.102  0.5930  0.5587 -0.5681
 8099TIP3    H245713   0.329   2.909  -0.022  0.9291  1.1605 -0.9218
 8100TIP3   OH245714   0.628   4.087   4.316 -0.1809 -0.6000  0.4389
 8100TIP3    H145715   0.668   4.155   4.369 -0.2786 -0.6507  0.5765
 8100TIP3    H245716   0.533   4.099   4.327 -0.2306  0.4169 -1.0066
 8101TIP3   OH245717   3.065   4.757  12.229 -1.0684 -0.1485 -0.0491
 8101TIP3    H145718   3.020   4.704  12.295 -1.7967  1.8617  1.1044
 8101TIP3    H245719   3.030   4.845  12.241  2.8257  1.3880  0.5458
 8102TIP3   OH245720   5.206   4.384  16.603  0.0310 -0.8157  0.0643
 8102TIP3    H145721   5.184   4.468  16.643 -1.0756 -1.2484  0.3802
 8102TIP3    H245722   5.122   4.348  16.574  0.7361 -0.8284 -2.0364
 8103TIP3   OH245723   3.240   3.222   2.327  0.3156  0.0816 -0.0014
 8103TIP3    H145724   3.311   3.250   2.384 -1.4431  3.1756  0.8179
 8103TIP3    H245725   3.181   3.172   2.384  0.9347 -0.9702 -0.2705
 8104TIP3   OH245726   3.765   1.966  11.026 -0.4499 -0.3504  0.0334
 8104TIP3    H145727   3.739   2.058  11.022  0.8437  0.0478  0.4712
 8104TIP3    H245728   3.752   1.942  11.118 -0.9586 -0.6559 -0.1195
 8105TIP3   OH245729   2.350   1.107   1.387 -0.4399  0.0327 -0.2523
 8105TIP3    H145730   2.413   1.159   1.436  0.6385  0.3151 -1.8973
 8105TIP3    H245731   2.339   1.154   1.304 -0.8403 -1.3719 -1.0284
 8106TIP3   OH245732   5.038   6.385   0.936 -0.1005 -0.0539 -0.0274
 8106TIP3    H145733   5.102   6.441   0.892  0.3102 -0.2989  0.2585
 8106TIP3    H245734   5.079   6.298   0.935 -0.7963 -0.3799 -0.6062
 8107TIP3   OH245735   5.029   3.130   6.796  0.3719  0.1435 -0.6060
 8107TIP3    H145736   5.107   3.125   6.852  0.6178 -0.3191 -0.9937
 8107TIP3    H245737   5.023   3.044   6.755 -0.3962  0.1497 -0.5127
 8108TIP3   OH245738   4.611   4.054  14.459 -0.7084  0.0684 -0.1368
 8108TIP3    H145739   4.609   3.966  14.421 -3.5800  0.4310 -0.9283
 8108TIP3    H245740   4.657   4.043  14.543  0.7931 -1.7693 -1.1690
 8109TIP3   OH245741   5.489   5.697  17.179  0.0337 -0.0953  0.4792
 8109TIP3    H145742   5.574   5.670  17.146 -0.5933 -0.7157 -0.6877
 8109TIP3    H245743   5.506   5.775  17.231  1.3055 -0.2027  0.2219
 8110TIP3   OH245744   1.388   5.642   0.796 -0.2323  0.0888  0.5197
 8110TIP3    H145745   1.377   5.720   0.743 -1.9469  0.6818  1.6970
 8110TIP3    H245746   1.437   5.672   0.873  0.2834 -0.2844  0.3393
 8111TIP3   OH245747   0.142   2.671   5.328  0.9496 -0.4079  0.1093
 8111TIP3    H145748   0.096   2.589   5.308 -2.3156  1.5680 -0.8000
 8111TIP3    H245749   0.222   2.667   5.276 -0.5076 -1.8012 -2.0856
 8112TIP3   OH245750   3.369   3.595   1.700 -0.2761  0.2448 -0.3777
 8112TIP3    H145751   3.432   3.604   1.772 -0.4375 -0.3125 -0.1655
 8112TIP3    H245752   3.399   3.518   1.652 -1.9070 -1.1704  0.8378
 8113TIP3   OH245753   4.823   1.286  14.993 -0.7838 -0.2417 -0.0076
 8113TIP3    H145754   4.751   1.243  15.040 -0.2161  0.0280  1.1379
 8113TIP3    H245755   4.780   1.347  14.933 -1.5297 -0.5607  0.1970
 8114TIP3   OH245756   5.897   4.540   4.795  0.3578 -0.5262 -0.0226
 8114TIP3    H145757   5.924   4.610   4.736 -0.8059 -2.8139 -3.4279
 8114TIP3    H245758   5.978   4.496   4.818  1.1121  1.9006  2.2193
 8115TIP3   OH245759   3.532   0.157   1.906 -0.2544 -0.2152 -0.4128
 8115TIP3    H145760   3.601   0.093   1.892  1.9641  1.9976  0.1704
 8115TIP3    H245761   3.518   0.158   2.001 -2.3032 -1.8753 -0.6749
 8116TIP3   OH245762   5.645   2.949  16.422 -0.0922  0.0261 -0.0589
 8116TIP3    H145763   5.658   2.854  16.414 -0.4023 -0.1244  1.1839
 8116TIP3    H245764   5.730   2.986  16.399  1.3575 -0.7710  3.7681
 8117TIP3   OH245765   6.433   6.055  11.792  0.0509 -0.1711 -0.2093
 8117TIP3    H145766   6.396   5.978  11.750  2.8969 -1.8570  0.2933
 8117TIP3    H245767   6.475   6.104  11.721 -0.0722 -0.0699 -0.2137
 8118TIP3   OH245768   2.525   1.115  14.209  0.1727  0.4571  0.5910
 8118TIP3    H145769   2.573   1.137  14.288 -1.9563  0.1343  1.9968
 8118TIP3    H245770   2.450   1.064  14.239 -1.3124  1.3104 -1.5191
 8119TIP3   OH245771   3.741   3.278   3.402 -0.0442  0.3242  0.1689
 8119TIP3    H145772   3.791   3.308   3.326  2.1889  1.0019  1.8775
 8119TIP3    H245773   3.695   3.357   3.432  0.2485  0.3950  0.4266
 8120TIP3   OH245774   0.997   4.188  14.853  0.8265 -0.3489  0.3651
 8120TIP3    H145775   0.993   4.220  14.943  0.0480  2.4283 -0.5858
 8120TIP3    H245776   1.079   4.223  14.819  1.5134 -2.0660  0.2121
 8121TIP3   OH245777   6.728   4.947  13.094  0.4291 -0.2216 -1.0747
 8121TIP3    H145778   6.634   4.930  13.083  0.3212  0.8702 -1.9125
 8121TIP3    H245779   6.766   4.860  13.105 -0.5999 -0.7249 -1.3561
 8122TIP3   OH245780   3.913   1.326   5.528  0.0592  0.3129  0.2778
 8122TIP3    H145781   3.824   1.315   5.562  0.4089 -0.4519  0.9882
 8122TIP3    H245782   3.920   1.261   5.458 -0.3209  1.1732 -0.5599
 8123TIP3   OH245783   0.086   0.692   3.428  0.1052 -0.6336 -0.1260
 8123TIP3    H145784   0.019   0.697   3.496 -0.2031  3.7226 -0.6536
 8123TIP3    H245785   0.166   0.669   3.476 -0.9310 -1.9677  1.0347
 8124TIP3   OH245786   1.889   4.487  10.895  0.1143 -0.4077 -0.3469
 8124TIP3    H145787   1.972   4.492  10.944 -0.1957  2.3353  0.0196
 8124TIP3    H245788   1.912   4.446  10.812  1.7214 -0.2284 -0.0066
 8125TIP3   OH245789   5.191   3.880   3.716  0.1024  0.4943 -0.0555
 8125TIP3    H145790   5.210   3.798   3.762  2.0001  0.2077 -1.2609
 8125TIP3    H245791   5.096   3.885   3.713 -0.0399 -1.6093  0.1442
 8126TIP3   OH245792   5.772   0.309   2.351 -0.1776  0.5874 -0.0553
 8126TIP3    H145793   5.730   0.381   2.304 -1.0375 -0.4513 -0.9064
 8126TIP3    H245794   5.857   0.344   2.377  0.4807  1.0947 -2.7150
 8127TIP3   OH245795   2.608   1.812   1.263  0.5182  0.3313  0.1938
 8127TIP3    H145796   2.634   1.726   1.297  0.0570  0.1474  0.0959
 8127TIP3    H245797   2.681   1.839   1.208  0.5761 -0.0960  0.0560
 8128TIP3   OH245798   0.679   6.266   6.212  0.0369 -0.0198  0.2955
 8128TIP3    H145799   0.612   6.278   6.279  0.0435  0.3228  0.2405
 8128TIP3    H245800   0.749   6.325   6.238 -0.6443  1.3504 -0.9228
 8129TIP3   OH245801   5.634   1.672   5.514  0.0832 -0.3422 -0.3980
 8129TIP3    H145802   5.699   1.732   5.476  1.0548 -1.2102 -0.1185
 8129TIP3    H245803   5.613   1.710   5.599  2.3363 -1.5205  0.7378
 8130TIP3   OH245804   0.329   5.251  16.647  0.2084 -0.9339  0.0625
 8130TIP3    H145805   0.345   5.223  16.557 -0.9613 -0.2296 -0.3791
 8130TIP3    H245806   0.240   5.287  16.645  0.6130  0.1507  1.2499
 8131TIP3   OH245807   1.789   4.751   6.257  0.0379  0.2164  0.2090
 8131TIP3    H145808   1.783   4.794   6.342 -2.1166 -0.2378  0.3295
 8131TIP3    H245809   1.878   4.768   6.227  0.5661  1.0549  2.1937
 8132TIP3   OH245810   5.409   5.235  14.784 -0.0934  0.3797  0.6490
 8132TIP3    H145811   5.327   5.193  14.810 -0.3443  0.6425  0.2707
 8132TIP3    H245812   5.433   5.192  14.702 -1.1106  2.0153 -0.5029
 8133TIP3   OH245813   6.043   2.527  10.852 -0.0357  0.7082 -0.3509
 8133TIP3    H145814   6.043   2.603  10.794 -0.0242  0.0328 -1.2547
 8133TIP3    H245815   6.134   2.520  10.881 -0.1652  1.4058  0.2318
 8134TIP3   OH245816   5.392   0.389  15.047 -0.0287 -0.9674  0.4743
 8134TIP3    H145817   5.447   0.325  15.002 -1.2707 -0.7259 -1.4210
 8134TIP3    H245818   5.410   0.472  15.004 -0.6204 -0.5717  0.9756
 8135TIP3   OH245819   3.865   6.303   3.556 -0.4266 -0.2605  0.5166
 8135TIP3    H145820   3.930   6.347   3.500  0.3642 -1.6320  0.3432
 8135TIP3    H245821   3.883   6.336   3.644 -0.7661  0.8359  0.1882
 8136TIP3   OH245822   3.272   0.398   6.582  0.6036  0.1038 -0.3048
 8136TIP3    H145823   3.244   0.317   6.626  1.5419  0.7980  1.6542
 8136TIP3    H245824   3.362   0.380   6.555  0.1940 -0.1417 -1.5398
 8137TIP3   OH245825   2.690   4.130  12.393  0.6073  0.1349 -0.0785
 8137TIP3    H145826   2.668   4.077  12.469  1.1374 -0.0398 -0.0479
 8137TIP3    H245827   2.629   4.204  12.397  0.8934  0.3295  0.7199
 8138TIP3   OH245828   2.424   5.453   3.143  0.1531  0.2837  0.0837
 8138TIP3    H145829   2.373   5.388   3.094  2.2019 -1.2697 -0.0780
 8138TIP3    H245830   2.466   5.506   3.075  0.0618  0.4954  0.1937
 8139TIP3   OH245831   5.798   6.701  12.402 -0.6681  0.1948 -0.1903
 8139TIP3    H145832   5.862   6.757  12.445 -1.3240  1.0001 -0.2464
 8139TIP3    H245833   5.730   6.687  12.468 -0.1887 -1.0749  0.0374
 8140TIP3   OH245834   6.170   5.759  12.559  0.0381  0.9551  0.2752
 8140TIP3    H145835   6.183   5.715  12.642 -0.6438  0.2308  0.0073
 8140TIP3    H245836   6.258   5.773  12.524  0.5006  3.6976  2.3527
 8141TIP3   OH245837   1.080   5.463   1.835 -0.0579  0.1760  0.1877
 8141TIP3    H145838   1.142   5.534   1.816 -1.3597  1.5757  1.1100
 8141TIP3    H245839   1.096   5.442   1.927  0.8878 -1.3372 -0.2822
 8142TIP3   OH245840   2.778   0.784  10.855  0.1441  0.0416  0.2965
 8142TIP3    H145841   2.719   0.859  10.860  1.8836  1.5733 -1.0909
 8142TIP3    H245842   2.721   0.709  10.836 -1.3444  1.4854 -1.0508
 8143TIP3   OH245843   2.762   2.159  12.145 -0.2118  0.0693  0.0833
 8143TIP3    H145844   2.744   2.193  12.057  0.7486  1.3122  0.3535
 8143TIP3    H245845   2.852   2.185  12.163 -0.2744 -0.5126  1.2801
 8144TIP3   OH245846   1.178   4.710   0.752  0.3241 -0.2352 -0.0075
 8144TIP3    H145847   1.238   4.727   0.680  0.8548 -0.1657  0.4523
 8144TIP3    H245848   1.095   4.687   0.709  1.3377 -2.7614 -0.6695
 8145TIP3   OH245849   3.827   5.542  15.898  0.3676  0.6261 -0.0771
 8145TIP3    H145850   3.916   5.514  15.920 -0.1778 -0.3856  0.8911
 8145TIP3    H245851   3.771   5.468  15.924 -0.9265  1.9053  0.8885
 8146TIP3   OH245852   0.596   1.652   5.947  0.1011  0.2385 -0.3314
 8146TIP3    H145853   0.576   1.732   5.899 -0.0175 -0.4993 -1.5492
 8146TIP3    H245854   0.574   1.581   5.886  1.3749 -0.6995  0.2652
 8147TIP3   OH245855   5.293   2.805   4.887 -0.6036  0.4210  0.0188
 8147TIP3    H145856   5.287   2.729   4.944 -1.8493  0.7932  0.3763
 8147TIP3    H245857   5.269   2.771   4.800  1.0139 -0.0779 -0.2618
 8148TIP3   OH245858   1.430   1.879  16.232 -0.0024 -0.3619  0.5046
 8148TIP3    H145859   1.516   1.853  16.198  0.2724  0.1989  0.7556
 8148TIP3    H245860   1.389   1.797  16.258  0.7004 -0.5822  0.9404
 8149TIP3   OH245861   1.630   4.333   6.014  0.6844 -0.3144  0.3752
 8149TIP3    H145862   1.545   4.333   6.060  1.4905  0.4949  1.8954
 8149TIP3    H245863   1.694   4.355   6.082  2.0698 -0.4601 -0.8625
 8150TIP3   OH245864   5.711   4.904   0.947  0.5614  0.0238 -0.4033
 8150TIP3    H145865   5.767   4.827   0.944  2.1749  1.0606  1.7343
 8150TIP3    H245866   5.764   4.971   0.989 -0.5000  2.6042 -2.9565
 8151TIP3   OH245867   5.464   6.645   5.173  0.0209  0.0045  0.0680
 8151TIP3    H145868   5.470   6.550   5.165 -1.0426 -0.2414  1.8231
 8151TIP3    H245869   5.375   6.667   5.143 -0.5390  0.1595  1.7811
 8152TIP3   OH245870   3.167   0.104   2.543  0.2254  0.3087 -0.4543
 8152TIP3    H145871   3.088   0.110   2.597  1.0645  0.2301  0.7980
 8152TIP3    H245872   3.193   0.012   2.551  0.6476  0.4211 -0.5676
 8153TIP3   OH245873   1.792   0.342   1.124 -0.1056  0.1876  0.0526
 8153TIP3    H145874   1.827   0.379   1.205 -1.4492 -0.3144  0.8739
 8153TIP3    H245875   1.858   0.278   1.097  1.9725  2.7217 -1.0921
 8154TIP3   OH245876   2.617   3.497   6.588  0.2459  0.7011  0.2208
 8154TIP3    H145877   2.528   3.488   6.622  0.5841  1.5194  1.3353
 8154TIP3    H245878   2.614   3.455   6.502 -0.5890 -1.5647  1.2941
 8155TIP3   OH245879   2.229   2.691  11.458 -0.5957  1.1576  0.0233
 8155TIP3    H145880   2.240   2.719  11.367 -0.3842 -1.5116 -0.8066
 8155TIP3    H245881   2.159   2.626  11.455 -1.1377  1.6297  1.9002
 8156TIP3   OH245882   4.493   0.287   4.537 -0.2895 -0.1547  0.1478
 8156TIP3    H145883   4.400   0.286   4.514  0.7165 -0.1738 -4.5793
 8156TIP3    H245884   4.515   0.196   4.554 -0.4614 -0.7091 -2.3196
 8157TIP3   OH245885   3.205   6.689   0.594  0.1861 -0.2601 -0.1182
 8157TIP3    H145886   3.238   6.673   0.682 -1.9717 -2.3274  0.3428
 8157TIP3    H245887   3.239   6.776   0.571  1.1277  0.1020  2.5476
 8158TIP3   OH245888   1.193   6.209  17.182 -0.0221 -0.0322 -0.2917
 8158TIP3    H145889   1.217   6.141  17.119 -1.3573  0.1586 -1.0195
 8158TIP3    H245890   1.257   6.279  17.167 -0.6549  0.2338 -1.8009
 8159TIP3   OH245891   3.813   1.648  15.217  0.1998 -0.3420  0.0715
 8159TIP3    H145892   3.785   1.722  15.163 -0.1021  0.0914  0.8236
 8159TIP3    H245893   3.794   1.571  15.163  0.1389  0.0984 -0.5436
 8160TIP3   OH245894   3.875   4.797   3.976  0.1515  0.3174 -0.4638
 8160TIP3    H145895   3.832   4.833   3.898  0.0151 -0.1269 -0.5941
 8160TIP3    H245896   3.832   4.840   4.049 -1.1304 -0.7818 -0.5607
 8161TIP3   OH245897   5.747   5.575   1.980 -0.7123 -0.1355 -0.2381
 8161TIP3    H145898   5.660   5.582   2.019 -1.0259  0.7854 -1.0665
 8161TIP3    H245899   5.776   5.666   1.968 -0.1298 -0.4142 -1.0307
 8162TIP3   OH245900   5.686   0.000   3.854  0.2328 -0.1664  0.3301
 8162TIP3    H145901   5.766   0.045   3.882 -0.4552  1.1337  0.2594
 8162TIP3    H245902   5.697  -0.010   3.759 -0.2759  1.2847  0.0914
 8163TIP3   OH245903   5.549   4.080  16.399  0.4785  0.7374 -0.2972
 8163TIP3    H145904   5.473   4.025  16.417  1.2585  0.1074  1.1876
 8163TIP3    H245905   5.606   4.068  16.475  1.6631  1.8902 -0.9760
 8164TIP3   OH245906   5.472   4.856   4.167  0.2520  0.6537  0.4041
 8164TIP3    H145907   5.478   4.779   4.224  1.0434  1.6190  1.6472
 8164TIP3    H245908   5.379   4.864   4.148  0.0912 -0.2643  0.7515
 8165TIP3   OH245909   6.039   6.607  16.652  0.5507 -0.4612 -0.2332
 8165TIP3    H145910   5.997   6.682  16.694  0.1665 -1.1737  0.6624
 8165TIP3    H245911   6.132   6.630  16.649  0.6033 -0.4537  1.1276
 8166TIP3   OH245912   3.983   5.651  14.366  1.0114  0.1111 -0.7274
 8166TIP3    H145913   3.958   5.706  14.440 -0.3654  0.0027 -1.1000
 8166TIP3    H245914   3.960   5.704  14.289  0.6511 -0.5589 -1.0818
 8167TIP3   OH245915   5.988   2.554  13.208 -0.0168 -0.2519 -0.1364
 8167TIP3    H145916   5.968   2.501  13.285 -0.7092 -0.1918 -0.2661
 8167TIP3    H245917   6.083   2.548  13.198 -0.0680 -1.2953 -0.0355
 8168TIP3   OH245918   6.213   0.812   3.746  0.0005 -0.1077 -0.0142
 8168TIP3    H145919   6.246   0.861   3.821 -1.7491  0.4717  0.4149
 8168TIP3    H245920   6.285   0.812   3.683  0.3043  2.3852  0.2911
 8169TIP3   OH245921   3.379   1.966  11.951  1.0265 -0.5749  0.0685
 8169TIP3    H145922   3.385   1.874  11.925 -0.0464 -1.0747  1.5455
 8169TIP3    H245923   3.310   1.968  12.018  1.4058  1.2176  0.4315
 8170TIP3   OH245924   4.094   0.771   4.953 -0.1310  0.0895  0.0406
 8170TIP3    H145925   4.039   0.849   4.957  0.9125  0.7352  3.5036
 8170TIP3    H245926   4.183   0.805   4.942 -0.0278 -0.7962 -2.0572
 8171TIP3   OH245927   3.238   1.038  14.004  0.0054 -0.0639  0.2328
 8171TIP3    H145928   3.328   1.049  14.034  0.4541 -1.5805 -0.4991
 8171TIP3    H245929   3.197   0.985  14.073  0.6419 -2.3059 -1.0418
 8172TIP3   OH245930   3.946   4.200  13.026 -0.4853 -0.1272 -0.1955
 8172TIP3    H145931   3.978   4.288  13.009 -1.2068 -0.1459 -1.7100
 8172TIP3    H245932   4.022   4.153  13.061 -0.0618  1.0299  0.4621
 8173TIP3   OH245933   6.390   1.143  17.194  0.1968  0.3231  0.1008
 8173TIP3    H145934   6.387   1.239  17.196 -0.2250  0.2967  0.8412
 8173TIP3    H245935   6.435   1.122  17.112 -0.0051  1.1459 -0.2200
 8174TIP3   OH245936   6.486   5.187   5.181  0.4118  0.5368  0.0902
 8174TIP3    H145937   6.471   5.177   5.087  1.1022 -0.0668  0.0354
 8174TIP3    H245938   6.555   5.253   5.187  1.1205 -0.1949  0.1193
 8175TIP3   OH245939   0.318   6.208  15.761 -0.0818  0.0810 -0.1555
 8175TIP3    H145940   0.349   6.235  15.847 -1.1497 -0.0354  0.2621
 8175TIP3    H245941   0.377   6.137  15.736  0.6673  0.5820  0.1684
 8176TIP3   OH245942   0.585   2.231   5.363  0.4368 -0.3320 -0.2732
 8176TIP3    H145943   0.529   2.187   5.427 -1.4390  0.9274 -0.9886
 8176TIP3    H245944   0.643   2.286   5.416 -0.6519  0.1947  0.3916
 8177TIP3   OH245945   0.409   6.647  14.705  0.0503  0.7311  0.1578
 8177TIP3    H145946   0.440   6.733  14.677 -1.6441  0.4856 -2.7736
 8177TIP3    H245947   0.374   6.607  14.625  0.5493 -2.5969  1.4945
 8178TIP3   OH245948   0.185   0.255  15.517  0.0613 -0.2794  0.2433
 8178TIP3    H145949   0.224   0.320  15.460 -0.5779 -0.0229  0.0953
 8178TIP3    H245950   0.102   0.233  15.475 -0.2651 -0.3225  0.9128
 8179TIP3   OH245951   1.994   5.370   0.133  0.7167 -0.1880  0.1701
 8179TIP3    H145952   1.903   5.385   0.107  0.8166  0.9808  0.4538
 8179TIP3    H245953   1.988   5.315   0.211  0.2394  0.1750  0.3919
 8180TIP3   OH245954   4.014   6.245   3.310 -0.5376  0.3019  0.1380
 8180TIP3    H145955   3.961   6.289   3.243  0.4316  0.4767 -0.5133
 8180TIP3    H245956   3.983   6.155   3.310 -0.5975  0.3217 -0.4850
 8181TIP3   OH245957   0.855   5.458   3.492  0.0102  0.1890  0.1824
 8181TIP3    H145958   0.878   5.550   3.483 -1.1725  0.3955 -0.9058
 8181TIP3    H245959   0.840   5.446   3.586 -3.3099  1.9809 -0.0672
 8182TIP3   OH245960   0.342   1.863   1.991  0.4475  0.1291  0.0983
 8182TIP3    H145961   0.375   1.782   2.029  0.2840 -0.0326 -0.1019
 8182TIP3    H245962   0.360   1.855   1.898  0.9652  0.5822  0.1623
 8183TIP3   OH245963   4.460   1.685   5.632  0.1238 -0.2444  0.6494
 8183TIP3    H145964   4.549   1.719   5.642  0.5849 -0.4647 -2.2652
 8183TIP3    H245965   4.419   1.745   5.570 -1.1596 -1.1938  0.5704
 8184TIP3   OH245966   6.730   1.269  12.932 -0.5252  0.7194  0.0314
 8184TIP3    H145967   6.722   1.249  13.025 -1.0595  0.8848  0.0218
 8184TIP3    H245968   6.641   1.265  12.899 -0.1819 -0.7649 -0.7664
 8185TIP3   OH245969   3.761   5.208   3.173  0.1369  0.2550 -0.0626
 8185TIP3    H145970   3.783   5.215   3.080 -1.1418  1.1095 -0.3031
 8185TIP3    H245971   3.800   5.124   3.200 -0.3979 -0.5130 -1.6172
 8186TIP3   OH245972   6.247   0.472  12.482 -0.2602 -0.1413  0.3357
 8186TIP3    H145973   6.341   0.494  12.482 -0.1409 -0.5434 -1.1899
 8186TIP3    H245974   6.239   0.401  12.545  0.4317  0.0040  0.5997
 8187TIP3   OH245975   3.055   0.315   6.250  0.0364  0.4905 -0.2045
 8187TIP3    H145976   3.007   0.294   6.170 -0.0508  0.9744 -0.2839
 8187TIP3    H245977   3.004   0.385   6.291  0.6749  1.0124 -0.2900
 8188TIP3   OH245978   1.260   6.520  14.168 -0.2901  0.0660 -0.1940
 8188TIP3    H145979   1.188   6.546  14.110  0.1563 -1.0266 -1.2647
 8188TIP3    H245980   1.339   6.552  14.123  0.1321 -1.6021 -0.6937
 8189TIP3   OH245981   2.044   6.395  16.347  0.2046  0.4934 -0.0181
 8189TIP3    H145982   2.071   6.356  16.430 -0.0815 -1.8003 -0.9783
 8189TIP3    H245983   2.017   6.484  16.370  1.7122  0.4395  2.0743
 8190TIP3   OH245984   5.926   3.470  13.005 -0.2435  0.3837  0.1015
 8190TIP3    H145985   5.856   3.488  13.069 -1.0410 -0.5660 -0.4974
 8190TIP3    H245986   5.998   3.436  13.058  0.2762  2.6122  0.8984
 8191TIP3   OH245987   5.958   2.496   2.042  0.6916  0.4039  0.9038
 8191TIP3    H145988   5.868   2.481   2.071  0.0034  1.6284 -0.5420
 8191TIP3    H245989   6.005   2.519   2.122  0.1356 -1.9295  1.9587
 8192TIP3   OH245990   2.627   5.351   4.678  0.0908 -0.8071  0.8796
 8192TIP3    H145991   2.692   5.417   4.702 -0.1991 -0.1346 -0.1537
 8192TIP3    H245992   2.543   5.392   4.697 -0.1172 -0.5513 -0.5118
 8193TIP3   OH245993   1.762   6.011  14.525  0.1565 -0.0854  0.3286
 8193TIP3    H145994   1.672   6.017  14.493 -0.5618 -1.0352  2.0994
 8193TIP3    H245995   1.760   6.058  14.609  1.3907  0.1578  0.2241
 8194TIP3   OH245996   6.509   6.752  15.064 -0.2076  0.1594  0.4548
 8194TIP3    H145997   6.529   6.684  15.000 -1.4129 -1.0556  1.3275
 8194TIP3    H245998   6.566   6.731  15.139 -0.6794  0.0175  0.7766
 8195TIP3   OH245999   2.806   2.992  14.956 -0.3030  0.4950  0.3602
 8195TIP3    H146000   2.801   3.000  15.051 -0.1743  0.2921  0.3863
 8195TIP3    H246001   2.852   2.909  14.942 -0.3315  0.5196  0.1207
 8196TIP3   OH246002   0.380   6.246  16.411  0.1628  0.5027  0.1669
 8196TIP3    H146003   0.425   6.330  16.406  0.9048  0.0896 -0.1411
 8196TIP3    H246004   0.424   6.199  16.482  0.0323  0.2062  0.0536
 8197TIP3   OH246005   1.164   3.812   0.559  0.6517  0.0023 -0.0577
 8197TIP3    H146006   1.216   3.866   0.499 -0.3160  0.3870 -0.5693
 8197TIP3    H246007   1.074   3.843   0.546  0.6259  1.3112  2.8565
 8198TIP3   OH246008   3.446   0.351   4.812 -0.4733  0.1232 -0.0581
 8198TIP3    H146009   3.419   0.259   4.807  0.0666  0.0180 -1.3038
 8198TIP3    H246010   3.497   0.365   4.733 -1.2197  1.7243 -0.2799
 8199TIP3   OH246011   5.494   0.430   0.236  0.2687  0.4620  0.1536
 8199TIP3    H146012   5.416   0.374   0.241  0.9761 -0.4342  1.3280
 8199TIP3    H246013   5.469   0.500   0.175 -0.6098 -1.1434 -1.3727
 8200TIP3   OH246014   1.502   1.308   4.711  0.3626 -0.4131  0.1900
 8200TIP3    H146015   1.482   1.390   4.666 -0.0764 -0.9122 -0.5190
 8200TIP3    H246016   1.481   1.326   4.803  4.1965  1.6175  0.8032
 8201TIP3   OH246017   0.040   0.360  11.557 -0.2417  0.1234 -0.1793
 8201TIP3    H146018   0.062   0.388  11.468  1.8161 -0.8058 -0.0024
 8201TIP3    H246019   0.073   0.270  11.562 -2.2279 -0.5640  0.8565
 8202TIP3   OH246020   2.705   3.924   1.398  0.7923  0.6243 -0.0899
 8202TIP3    H146021   2.610   3.941   1.403  0.2339 -1.4275 -2.4879
 8202TIP3    H246022   2.720   3.857   1.465  0.3961  0.4376 -0.1796
 8203TIP3   OH246023   1.920   2.412   4.343  0.0513  0.1404 -0.8546
 8203TIP3    H146024   1.886   2.380   4.426 -0.2886  0.9525 -0.6717
 8203TIP3    H246025   1.893   2.347   4.278 -2.3170  1.0060 -0.8033
 8204TIP3   OH246026   3.366   0.028   5.865 -0.4414  0.5477 -0.6419
 8204TIP3    H146027   3.414  -0.050   5.834 -0.1617  0.7677 -0.7653
 8204TIP3    H246028   3.288   0.032   5.811 -0.5098  0.2889 -0.5623
 8205TIP3   OH246029   2.747   4.359   1.764  0.2726  0.0126 -0.5226
 8205TIP3    H146030   2.748   4.397   1.852  1.8793  2.1739 -1.4359
 8205TIP3    H246031   2.800   4.280   1.772 -0.3586 -0.3059  0.6670
 8206TIP3   OH246032   1.118   2.981   1.910 -0.7806 -0.9555 -0.5592
 8206TIP3    H146033   1.040   2.953   1.863 -1.0647  0.2436 -0.8132
 8206TIP3    H246034   1.165   2.900   1.928 -2.8589 -1.8324  1.0026
 8207TIP3   OH246035   3.054   2.556  14.149  0.3961  0.2266 -1.1137
 8207TIP3    H146036   2.994   2.486  14.177  1.9916 -1.2211 -1.2156
 8207TIP3    H246037   3.001   2.612  14.092 -1.6246  0.5843  1.0217
 8208TIP3   OH246038   5.960   0.816  11.305 -0.1742  0.3704 -0.5040
 8208TIP3    H146039   6.043   0.848  11.340 -0.0702 -1.7030  1.2182
 8208TIP3    H246040   5.905   0.799  11.382 -0.3300 -3.2040 -1.2978
 8209TIP3   OH246041   4.651   3.102  11.264 -0.2695 -0.6654 -0.8356
 8209TIP3    H146042   4.576   3.160  11.278  1.3683  1.2072  0.5580
 8209TIP3    H246043   4.660   3.097  11.169 -1.9963 -0.7096 -1.0055
 8210TIP3   OH246044   1.961   6.363   2.346  0.1004  0.1447 -0.3547
 8210TIP3    H146045   2.008   6.407   2.276  1.8050  2.3935  2.1045
 8210TIP3    H246046   1.869   6.377   2.326  0.3915 -2.1535 -3.8830
 8211TIP3   OH246047   5.605   1.415  14.402  0.1343  0.4094  0.0846
 8211TIP3    H146048   5.544   1.360  14.353 -2.9305  3.6187  0.1479
 8211TIP3    H246049   5.644   1.473  14.336 -0.2637  1.3881  0.6954
 8212TIP3   OH246050   5.579   3.012   0.507  0.0227 -0.1472 -0.8338
 8212TIP3    H146051   5.508   3.076   0.513 -1.4618 -1.4007 -3.6510
 8212TIP3    H246052   5.589   2.978   0.595 -2.3047  0.7066 -0.2041
 8213TIP3   OH246053   4.959   4.955   2.570  0.5723 -0.5664  0.7752
 8213TIP3    H146054   4.929   4.930   2.483 -0.6150  1.8460  0.4733
 8213TIP3    H246055   4.995   5.043   2.560  1.4058 -0.6789  2.5083
 8214TIP3   OH246056   5.875   5.921  11.196  0.1632  0.1199  0.0638
 8214TIP3    H146057   5.951   5.886  11.241  1.7426  1.7506 -1.2449
 8214TIP3    H246058   5.863   5.865  11.120  1.4138  1.1467 -0.9061
 8215TIP3   OH246059   4.954   0.668  16.245 -0.2787 -0.0504 -0.0977
 8215TIP3    H146060   4.938   0.762  16.259 -0.7202 -0.3145  1.2466
 8215TIP3    H246061   4.866   0.630  16.236 -0.0551  0.0469 -3.4898
 8216TIP3   OH246062   5.696   0.227  12.408  0.1178  0.0240  0.4929
 8216TIP3    H146063   5.678   0.225  12.314  2.2921  1.1865  0.0177
 8216TIP3    H246064   5.673   0.139  12.439 -0.3558 -0.4580 -1.1704
 8217TIP3   OH246065   3.531   5.106  14.471  0.1706 -0.4351  0.6095
 8217TIP3    H146066   3.452   5.147  14.435  0.2217 -0.4206  0.5162
 8217TIP3    H246067   3.497   5.042  14.534  0.0690 -0.7260  0.2611
 8218TIP3   OH246068   0.432   0.493   5.234  0.2849  0.1526  0.4500
 8218TIP3    H146069   0.363   0.491   5.167  1.3142 -1.2789 -0.6063
 8218TIP3    H246070   0.460   0.585   5.237  1.0612  0.0419 -2.0173
 8219TIP3   OH246071   0.835   3.881   1.801 -0.2904  0.2024 -0.1201
 8219TIP3    H146072   0.755   3.934   1.794  0.0481  0.5318 -1.6703
 8219TIP3    H246073   0.806   3.792   1.782 -0.7366 -0.0750  1.8088
 8220TIP3   OH246074   3.053   2.583  12.614 -0.1064  0.4188 -0.0182
 8220TIP3    H146075   3.055   2.520  12.542  0.7693 -0.5361  0.8226
 8220TIP3    H246076   2.978   2.557  12.667 -0.2622  0.6123 -0.1455
 8221TIP3   OH246077   5.566   2.235  12.523  0.1744  0.1944  0.0645
 8221TIP3    H146078   5.577   2.299  12.453  0.3036 -1.4121 -1.4049
 8221TIP3    H246079   5.522   2.284  12.593 -0.9734  1.5369 -1.5459
 8222TIP3   OH246080   4.088   3.318   4.977 -0.0314 -0.1300 -0.3229
 8222TIP3    H146081   4.108   3.351   4.890 -0.0905 -1.3372 -0.8133
 8222TIP3    H246082   4.159   3.256   4.995  0.7701  1.1592  1.0876
 8223TIP3   OH246083   2.371   4.253  13.865  0.0408 -0.3200  0.1852
 8223TIP3    H146084   2.395   4.239  13.956  1.6205 -1.3382 -0.3734
 8223TIP3    H246085   2.449   4.228  13.815 -1.1269 -0.7038 -1.4913
 8224TIP3   OH246086   6.550   5.587   0.085 -0.3376  0.5444  0.1899
 8224TIP3    H146087   6.492   5.638   0.028 -0.0788  0.5099 -0.1135
 8224TIP3    H246088   6.628   5.572   0.031  0.3026  1.3287  0.8817
 8225TIP3   OH246089   1.571   0.150   4.708 -0.0148 -0.4364 -0.1907
 8225TIP3    H146090   1.559   0.066   4.664  1.2572 -0.4383 -0.5462
 8225TIP3    H246091   1.660   0.177   4.685 -0.6590  1.3648 -0.6765
 8226TIP3   OH246092   1.976   6.208  16.765 -0.7550 -0.2969 -0.2030
 8226TIP3    H146093   1.931   6.128  16.791  2.6284 -2.3926 -0.4244
 8226TIP3    H246094   1.996   6.252  16.848  1.2908 -1.9800  0.2413
 8227TIP3   OH246095   4.390   3.607   2.433  0.5031 -0.2108  0.3393
 8227TIP3    H146096   4.317   3.547   2.418  0.0821  0.5409 -0.6107
 8227TIP3    H246097   4.349   3.687   2.465  0.9315  0.1522 -0.0236
 8228TIP3   OH246098   4.621   4.095   2.670  0.0974  0.3389 -0.7117
 8228TIP3    H146099   4.538   4.057   2.696  0.4677 -1.4502 -2.0856
 8228TIP3    H246100   4.686   4.049   2.723  0.1466  2.7683  1.4642
 8229TIP3   OH246101   1.007   2.099   2.808  0.1868  0.3379  0.1388
 8229TIP3    H146102   1.020   2.191   2.784  0.4786  0.5979  1.2416
 8229TIP3    H246103   1.078   2.081   2.870  0.2348 -0.6886 -0.2063
 8230TIP3   OH246104   2.781   0.628  11.637 -0.3155 -0.0136  0.0798
 8230TIP3    H146105   2.697   0.583  11.644  0.8577 -2.2802 -0.0979
 8230TIP3    H246106   2.809   0.614  11.547  0.5056  0.2491  0.2829
 8231TIP3   OH246107   0.558   5.491  16.574  0.3228 -0.0347  0.2428
 8231TIP3    H146108   0.520   5.409  16.606 -0.9334  0.9904  1.3960
 8231TIP3    H246109   0.506   5.513  16.497  1.1460 -0.6937 -0.5173
 8232TIP3   OH246110   2.776   5.969  13.752 -0.7212 -0.4336 -0.2502
 8232TIP3    H146111   2.767   5.938  13.842  0.3230 -0.9593 -0.3307
 8232TIP3    H246112   2.865   5.947  13.727 -0.9373 -0.0975 -1.3483
 8233TIP3   OH246113   3.346   1.008   3.807  0.1156 -0.0374 -0.3796
 8233TIP3    H146114   3.431   0.981   3.772  0.6713  0.9117  0.2260
 8233TIP3    H246115   3.283   0.947   3.766  1.0529 -0.6312 -0.9636
 8234TIP3   OH246116   3.895   6.275   5.676 -0.6128  0.1847 -0.7452
 8234TIP3    H146117   3.870   6.356   5.719 -1.7600 -0.4659 -0.1481
 8234TIP3    H246118   3.933   6.221   5.746  0.4360  0.3180 -1.1998
 8235TIP3   OH246119   3.554   3.764   7.007  0.5482 -0.3773  0.1071
 8235TIP3    H146120   3.632   3.780   7.061 -0.6675  1.2115  1.4429
 8235TIP3    H246121   3.590   3.737   6.922  2.6223  1.8955  0.1853
 8236TIP3   OH246122   3.845   5.245  15.369  0.1198  0.1088  0.0416
 8236TIP3    H146123   3.847   5.307  15.442  0.5065 -1.5080  1.4519
 8236TIP3    H246124   3.754   5.248  15.338  0.2444  1.7013 -0.2056
 8237TIP3   OH246125   2.953   3.204  13.506  0.1222 -1.4847 -0.5513
 8237TIP3    H146126   2.892   3.200  13.433  0.4043  0.1641 -0.9067
 8237TIP3    H246127   2.911   3.155  13.576 -2.2080  0.6216 -0.3956
 8238TIP3   OH246128   0.651   4.639   6.317  0.4424  0.7667  0.0681
 8238TIP3    H146129   0.682   4.575   6.380  0.2462  1.0530  0.4559
 8238TIP3    H246130   0.699   4.619   6.236  0.2359  0.0124  0.1348
 8239TIP3   OH246131   1.024   2.012  16.543 -0.1905 -0.3545  0.0925
 8239TIP3    H146132   1.007   1.924  16.510  1.4669 -0.2547 -1.0680
 8239TIP3    H246133   1.109   2.004  16.587  0.0083  0.6898 -0.1088
 8240TIP3   OH246134   1.473   2.626   1.268  0.4670  0.7583  0.4234
 8240TIP3    H146135   1.448   2.707   1.311  0.2125  1.1940 -0.5304
 8240TIP3    H246136   1.567   2.617   1.284  1.0566  2.6639 -1.7865
 8241TIP3   OH246137   0.364   6.619   2.980  0.1501 -0.2537  0.5090
 8241TIP3    H146138   0.331   6.593   3.065  1.6092  2.7773  2.0659
 8241TIP3    H246139   0.458   6.601   2.984  0.1376 -0.6209 -0.6604
 8242TIP3   OH246140   5.574   0.186   1.890  0.1053  0.2479  0.0689
 8242TIP3    H146141   5.656   0.178   1.939 -0.0414  1.9444  0.6325
 8242TIP3    H246142   5.505   0.182   1.956 -0.2094  0.1294 -0.2651
 8243TIP3   OH246143   6.504   0.832  11.058 -0.2074  0.2412 -0.2799
 8243TIP3    H146144   6.427   0.821  11.001  0.0106  0.1990 -0.5695
 8243TIP3    H246145   6.574   0.785  11.012 -0.3951 -1.0913  0.7808
 8244TIP3   OH246146   4.282   4.404   0.328  0.3180 -0.4711  0.1721
 8244TIP3    H146147   4.377   4.399   0.324  0.2105 -2.6437 -0.5647
 8244TIP3    H246148   4.253   4.380   0.240 -0.9006  0.4635  0.3126
 8245TIP3   OH246149   3.339   4.790   0.061 -0.3310 -0.2785 -0.1379
 8245TIP3    H146150   3.247   4.770   0.041 -0.5054 -0.1024  0.4758
 8245TIP3    H246151   3.338   4.879   0.095 -0.0699 -0.6608  0.8742
 8246TIP3   OH246152   4.113   5.991   0.552  0.4483  0.3777 -0.4409
 8246TIP3    H146153   4.044   5.927   0.531  0.7497  0.4629 -1.7001
 8246TIP3    H246154   4.174   5.985   0.479  2.9365 -1.2678  1.6743
 8247TIP3   OH246155   4.675   0.820  15.586 -0.1051  0.0223  0.7739
 8247TIP3    H146156   4.708   0.742  15.629  0.3114  0.5922  1.4989
 8247TIP3    H246157   4.582   0.824  15.610 -0.4917 -1.0619 -0.4919
 8248TIP3   OH246158   5.702   3.629  12.673 -0.0114  0.3707 -1.1006
 8248TIP3    H146159   5.680   3.649  12.764  0.7472  0.3874 -0.9192
 8248TIP3    H246160   5.696   3.713  12.628  0.0742  0.4439 -0.9764
 8249TIP3   OH246161   3.322   2.108  16.008  0.0765  0.5070  0.4135
 8249TIP3    H146162   3.388   2.118  15.939  0.1788 -0.8562  0.2932
 8249TIP3    H246163   3.371   2.075  16.083 -0.7910 -2.7874 -0.3803
 8250TIP3   OH246164   2.470   0.193   0.239 -0.3757 -0.1862  0.0781
 8250TIP3    H146165   2.518   0.225   0.162  2.4010 -1.9466  0.9872
 8250TIP3    H246166   2.406   0.132   0.204 -0.7749  0.8469 -1.0306
 8251TIP3   OH246167   0.350   0.913   3.452  0.3199  0.0133 -0.1430
 8251TIP3    H146168   0.387   0.902   3.539 -1.0138 -0.1833  0.4110
 8251TIP3    H246169   0.258   0.937   3.467  0.3533  1.0561 -1.4771
 8252TIP3   OH246170   1.531   6.412   1.966  0.5009  0.2363 -0.5211
 8252TIP3    H146171   1.616   6.381   1.997 -0.2403 -1.6380 -0.3298
 8252TIP3    H246172   1.483   6.333   1.941 -1.8937  1.0966  1.1247
 8253TIP3   OH246173   5.165   5.483  13.006 -0.9663 -0.4972 -0.2441
 8253TIP3    H146174   5.213   5.493  13.089  0.6897  0.2441 -1.2652
 8253TIP3    H246175   5.150   5.389  12.997 -0.2333 -0.6753  0.3881
 8254TIP3   OH246176   2.401   5.468  12.390 -0.2735 -0.3336  0.8893
 8254TIP3    H146177   2.320   5.475  12.339  0.4043 -0.0711 -0.1654
 8254TIP3    H246178   2.447   5.549  12.372  0.0729 -0.3427  1.7551
 8255TIP3   OH246179   5.590   1.590   3.381 -0.0904  0.1540 -0.5468
 8255TIP3    H146180   5.520   1.631   3.430 -1.0070  1.6995 -3.0368
 8255TIP3    H246181   5.559   1.591   3.290  1.2782 -3.1223 -1.1093
 8256TIP3   OH246182   5.778   1.824  15.450  0.3100  0.1854 -0.2252
 8256TIP3    H146183   5.768   1.817  15.545 -0.7350  1.4868 -0.2255
 8256TIP3    H246184   5.804   1.915  15.435 -2.7068  0.8969 -1.4132
 8257TIP3   OH246185   5.137   4.788  10.450  0.6987  0.0992 -0.3065
 8257TIP3    H146186   5.128   4.792  10.355 -2.3205  0.8112 -0.0381
 8257TIP3    H246187   5.146   4.694  10.470 -1.1687 -0.2599 -1.1055
 8258TIP3   OH246188   6.349   0.216   4.297  0.8130  0.3187  0.3572
 8258TIP3    H146189   6.328   0.128   4.327 -1.1310  0.5228 -0.3710
 8258TIP3    H246190   6.271   0.268   4.316  1.0825  1.3731 -1.2764
 8259TIP3   OH246191   0.126   0.561   4.463 -0.0673 -0.0713  0.4956
 8259TIP3    H146192   0.131   0.488   4.526 -0.5699 -0.5063  0.0397
 8259TIP3    H246193   0.216   0.591   4.454  0.3018 -1.2907 -0.0621
 8260TIP3   OH246194   5.116   6.446  14.506  0.6169  0.1653 -0.2932
 8260TIP3    H146195   5.065   6.527  14.505 -1.5389 -1.1505  0.2903
 8260TIP3    H246196   5.082   6.395  14.432  2.3254 -0.0252 -0.9831
 8261TIP3   OH246197   1.617   0.820  17.032 -0.1858 -0.0281  0.4023
 8261TIP3    H146198   1.623   0.725  17.026 -0.0134  0.0504 -0.8225
 8261TIP3    H246199   1.682   0.845  17.097  1.8624 -0.5005 -1.4278
 8262TIP3   OH246200   6.352   6.200  14.893  0.3354  0.7090  0.2251
 8262TIP3    H146201   6.361   6.277  14.949 -0.6140 -0.1473  1.5846
 8262TIP3    H246202   6.285   6.225  14.829 -0.1056  0.9271  0.7761
 8263TIP3   OH246203   6.256   0.252   3.973 -0.4944  0.0850 -0.5433
 8263TIP3    H146204   6.189   0.191   4.006 -1.2184  1.0428 -0.2202
 8263TIP3    H246205   6.267   0.316   4.044 -0.5260  0.9583 -1.3219
 8264TIP3   OH246206   3.061   2.471  12.351  0.3460  0.1587  0.0318
 8264TIP3    H146207   3.008   2.476  12.271 -0.2542  0.5770  0.4549
 8264TIP3    H246208   3.121   2.545  12.345  1.5236 -0.8305 -0.8884
 8265TIP3   OH246209   2.063   3.868  11.420  0.1464  1.1335  0.9198
 8265TIP3    H146210   2.106   3.783  11.426  0.2977  1.0833 -0.8900
 8265TIP3    H246211   1.980   3.856  11.468 -0.6122 -0.5353 -0.7548
 8266TIP3   OH246212   3.184   1.427   0.122 -0.3386 -0.1789 -0.5894
 8266TIP3    H146213   3.152   1.398   0.036 -1.7669  1.3262 -0.5720
 8266TIP3    H246214   3.177   1.522   0.120  1.5629  0.0121  0.4560
 8267TIP3   OH246215   3.249   3.048   5.551 -0.1529  0.0681  0.3914
 8267TIP3    H146216   3.271   2.998   5.629 -1.3900  0.0883  0.7507
 8267TIP3    H246217   3.179   3.106   5.578 -0.5321  0.1400 -0.7176
 8268TIP3   OH246218   3.759   4.884   4.213 -0.0488  0.0502 -0.1237
 8268TIP3    H146219   3.735   4.975   4.198 -0.7080 -0.1765 -0.4478
 8268TIP3    H246220   3.731   4.865   4.302 -1.8006 -0.4472 -0.7668
 8269TIP3   OH246221   6.775   0.924  13.025  0.4009  0.2935  0.7947
 8269TIP3    H146222   6.693   0.970  13.005 -0.0379 -0.1248  1.6105
 8269TIP3    H246223   6.810   0.898  12.940 -0.9945 -0.6957  0.5185
 8270TIP3   OH246224   4.898   5.091  10.882  0.2631 -0.0150 -0.1659
 8270TIP3    H146225   4.966   5.147  10.845  0.0995 -0.3064 -0.9189
 8270TIP3    H246226   4.855   5.052  10.806 -0.9950  0.4649  0.2946
 8271TIP3   OH246227   4.881   4.890  11.962  0.2007  0.5929 -0.2897
 8271TIP3    H146228   4.932   4.949  11.906 -0.8260 -0.3728 -2.2756
 8271TIP3    H246229   4.791   4.899  11.932  0.1041 -2.4293 -1.0465
 8272TIP3   OH246230   4.445   2.600   0.485 -0.1641 -0.3577  0.2510
 8272TIP3    H146231   4.516   2.635   0.431  0.7886 -1.9713  0.4397
 8272TIP3    H246232   4.431   2.512   0.451  1.0898 -1.7446  3.2175
 8273TIP3   OH246233   0.281   3.310   5.838  0.5565  0.5281  0.8451
 8273TIP3    H146234   0.214   3.378   5.847 -0.9543 -1.2215  3.3376
 8273TIP3    H246235   0.262   3.269   5.754  0.7557  2.3702 -0.1347
 8274TIP3   OH246236   2.023   6.452   0.316  0.2945  0.2244 -0.6842
 8274TIP3    H146237   2.030   6.506   0.237  0.8232  0.7774 -0.2618
 8274TIP3    H246238   2.075   6.374   0.296  0.5845  0.4488 -0.8051
 8275TIP3   OH246239   2.008   5.848  13.143  0.2608 -0.3697 -0.2462
 8275TIP3    H146240   2.082   5.894  13.182  1.2721 -1.1453 -1.2095
 8275TIP3    H246241   1.932   5.877  13.193  0.9001  2.1906 -0.7276
 8276TIP3   OH246242   2.417   4.275  15.656 -0.2631  0.1213 -0.1144
 8276TIP3    H146243   2.340   4.248  15.607  0.1984 -1.4861  0.0106
 8276TIP3    H246244   2.464   4.334  15.598 -1.5192  1.0124 -0.2336
 8277TIP3   OH246245   5.696   5.860   0.504 -0.2602 -0.8571  0.0754
 8277TIP3    H146246   5.636   5.935   0.504  0.0163 -0.5923 -2.1778
 8277TIP3    H246247   5.781   5.898   0.524  0.2543 -0.1670 -3.0795
 8278TIP3   OH246248   5.383   2.998   1.592 -0.0855 -0.2149  0.0292
 8278TIP3    H146249   5.413   2.975   1.504 -1.8736 -0.6284 -0.5066
 8278TIP3    H246250   5.393   2.918   1.643 -0.9060 -0.5614 -0.3355
 8279TIP3   OH246251   4.433   6.167   0.740 -0.0031 -0.4373 -0.6971
 8279TIP3    H146252   4.486   6.245   0.726  0.7781 -0.8114  0.1404
 8279TIP3    H246253   4.342   6.198   0.735  0.3009  0.7374  0.7334
 8280TIP3   OH246254   2.702   1.475  12.297 -0.6882 -0.1479  0.2947
 8280TIP3    H146255   2.718   1.507  12.208 -1.1333  0.2588  0.3551
 8280TIP3    H246256   2.784   1.434  12.323 -0.7597 -0.8308 -0.5370
 8281TIP3   OH246257   0.499   5.080   5.406  0.0045 -0.5124 -0.1912
 8281TIP3    H146258   0.595   5.075   5.401 -0.0952 -1.3178 -1.6562
 8281TIP3    H246259   0.472   4.989   5.419 -0.6855 -0.7072 -2.7068
 8282TIP3   OH246260   4.992   2.384  13.334  0.0328  0.0947  0.1105
 8282TIP3    H146261   5.031   2.467  13.358  1.0540 -0.5816  0.8532
 8282TIP3    H246262   4.913   2.378  13.388 -0.1746  0.6896 -0.1304
 8283TIP3   OH246263   0.259   5.247  17.231 -0.1887  0.2006 -0.0566
 8283TIP3    H146264   0.305   5.308  17.174  1.4913 -0.5434  0.4648
 8283TIP3    H246265   0.325   5.181  17.255 -1.1592 -0.1505  1.7947
 8284TIP3   OH246266   2.143   4.363  12.168 -0.1680  0.1020 -0.8870
 8284TIP3    H146267   2.178   4.302  12.232 -1.7393  0.4635  0.3667
 8284TIP3    H246268   2.214   4.426  12.152  0.0680  0.3237  0.9250
 8285TIP3   OH246269   0.423   6.766   5.915 -0.3247 -0.3400  0.1853
 8285TIP3    H146270   0.435   6.770   5.820 -0.6180  0.9726  0.1920
 8285TIP3    H246271   0.464   6.684   5.941  0.1691 -0.4865 -1.0181
 8286TIP3   OH246272   1.662   5.380   4.245 -0.5761  0.0370 -0.0514
 8286TIP3    H146273   1.644   5.336   4.329  2.3472 -1.2134 -0.0058
 8286TIP3    H246274   1.707   5.313   4.193  0.1989  1.6968 -1.5547
 8287TIP3   OH246275   3.030   5.958  13.591  0.4290  0.7185  0.9488
 8287TIP3    H146276   3.049   6.037  13.539  1.3337  0.2735  0.6003
 8287TIP3    H246277   3.070   5.887  13.542 -0.2341  0.0534  1.3626
 8288TIP3   OH246278   4.793   4.913   6.301 -0.2659 -0.2728  0.1793
 8288TIP3    H146279   4.798   4.835   6.355 -1.3024 -1.1689 -0.9880
 8288TIP3    H246280   4.710   4.906   6.255  1.1500 -0.2152 -2.5284
 8289TIP3   OH246281   6.410   4.758   1.302 -0.3209 -0.2601 -0.3363
 8289TIP3    H146282   6.391   4.847   1.272 -0.2135 -0.5806 -1.3951
 8289TIP3    H246283   6.332   4.708   1.279 -0.0316 -0.6196 -0.5364
 8290TIP3   OH246284   1.104   3.974   3.011 -0.3780 -0.0900  0.8854
 8290TIP3    H146285   1.021   3.927   3.013 -1.4061  1.6783  1.1198
 8290TIP3    H246286   1.101   4.029   3.090  0.7336  0.4407  0.5580
 8291TIP3   OH246287   5.364   1.240   0.519 -0.0479  0.0471  0.4786
 8291TIP3    H146288   5.339   1.191   0.598  2.0040  1.7629  2.2684
 8291TIP3    H246289   5.459   1.243   0.523 -0.0670  3.0886 -0.2194
 8292TIP3   OH246290   5.328   2.536  14.774 -0.1857 -0.6388  0.3428
 8292TIP3    H146291   5.317   2.575  14.861 -1.9947  1.1940 -0.6612
 8292TIP3    H246292   5.404   2.479  14.783  0.5539  0.6510  2.7444
 8293TIP3   OH246293   5.654   3.274   1.181  0.5007  0.6075  0.4044
 8293TIP3    H146294   5.674   3.348   1.125 -3.0505  3.0939  2.2707
 8293TIP3    H246295   5.612   3.210   1.123  2.2249  0.6274 -0.9015
 8294TIP3   OH246296   2.240   4.387  15.147  0.5493  0.0082 -0.5805
 8294TIP3    H146297   2.217   4.305  15.102  1.1143 -0.3479 -0.2204
 8294TIP3    H246298   2.332   4.377  15.169  0.3297  0.2749  0.4705
 8295TIP3   OH246299   2.980   0.249  16.277 -0.5817  0.4459 -0.1071
 8295TIP3    H146300   2.987   0.234  16.371  2.3388 -0.0039 -0.3476
 8295TIP3    H246301   3.041   0.187  16.238 -1.1966  1.1502 -2.2568
 8296TIP3   OH246302   0.213   1.140  14.912 -0.2236  0.7307 -0.8415
 8296TIP3    H146303   0.259   1.135  14.829  1.2438 -1.5663  0.0623
 8296TIP3    H246304   0.259   1.207  14.962  1.5394 -0.8092 -0.3437
 8297TIP3   OH246305   0.813   5.817  13.446 -0.2851  0.2035  0.0528
 8297TIP3    H146306   0.833   5.803  13.539  0.7546  2.5205  0.1988
 8297TIP3    H246307   0.844   5.906  13.428 -1.3734  0.1312 -2.2738
 8298TIP3   OH246308   1.553   1.681   0.779 -0.3115 -0.3841 -0.1188
 8298TIP3    H146309   1.642   1.663   0.810 -1.0467 -0.2232  2.0983
 8298TIP3    H246310   1.516   1.595   0.761 -0.3006 -0.5463  0.6290
 8299TIP3   OH246311   3.259   1.855  12.600  0.2490  0.4573 -0.0206
 8299TIP3    H146312   3.295   1.943  12.602  0.5526  0.3303  0.0912
 8299TIP3    H246313   3.318   1.806  12.543 -0.1283  0.4164 -0.3862
 8300TIP3   OH246314   3.715   0.327  15.480  0.5453  0.1288 -0.1595
 8300TIP3    H146315   3.636   0.354  15.526  0.8586  2.2003 -0.7694
 8300TIP3    H246316   3.785   0.335  15.545  0.6418  0.9020 -0.3445
 8301TIP3   OH246317   0.584   5.675  12.679 -0.3400  0.3487  0.1483
 8301TIP3    H146318   0.629   5.653  12.597  0.0419 -0.1886  0.4937
 8301TIP3    H246319   0.497   5.635  12.670  0.5617 -1.8828  1.0243
 8302TIP3   OH246320   2.586   6.640   4.171  0.1243 -0.2839  0.2516
 8302TIP3    H146321   2.581   6.612   4.080  1.4994 -0.2264  0.1511
 8302TIP3    H246322   2.520   6.710   4.178 -0.7899 -1.0642 -0.3958
 8303TIP3   OH246323   4.936   6.131   6.208  0.4059  0.0841 -0.4009
 8303TIP3    H146324   4.928   6.045   6.250 -1.3664  0.1565 -0.5732
 8303TIP3    H246325   4.869   6.185   6.251 -0.9772  0.3586 -2.8274
 8304TIP3   OH246326   4.191   2.436   2.064  0.3649 -0.2132  0.5570
 8304TIP3    H146327   4.200   2.364   2.002  5.3399  1.5409 -0.9292
 8304TIP3    H246328   4.166   2.511   2.011  1.3011  0.5610  1.2001
 8305TIP3   OH246329   5.386   0.751  14.171 -0.4368 -0.2031 -0.2985
 8305TIP3    H146330   5.379   0.846  14.161  1.3582  0.0900  1.1283
 8305TIP3    H246331   5.455   0.738  14.236 -2.0697 -2.4372  1.0655
 8306TIP3   OH246332   2.856   6.774  13.044  0.4044  0.1214  0.1020
 8306TIP3    H146333   2.865   6.739  12.955  1.1112 -2.2753  1.0581
 8306TIP3    H246334   2.937   6.746  13.088 -0.0077  1.1433  1.5296
 8307TIP3   OH246335   5.569   4.950   5.157  0.6378 -0.8526 -0.0768
 8307TIP3    H146336   5.573   5.022   5.095  1.4859 -0.9038 -0.0827
 8307TIP3    H246337   5.503   4.891   5.120 -0.4309  0.1589  0.1984
 8308TIP3   OH246338   6.320   0.024  16.145 -0.2583 -0.1035 -0.1292
 8308TIP3    H146339   6.393   0.085  16.150 -1.3249  1.4915 -2.9807
 8308TIP3    H246340   6.337  -0.029  16.067 -1.1904 -0.9923  0.2521
 8309TIP3   OH246341   2.116   2.870   1.715  0.5706  0.0771 -0.1098
 8309TIP3    H146342   2.035   2.824   1.696 -0.0443  1.3803 -0.6573
 8309TIP3    H246343   2.119   2.876   1.811  0.5228 -0.8244 -0.0428
 8310TIP3   OH246344   3.362   1.809  15.957 -0.2942  0.0541 -0.4372
 8310TIP3    H146345   3.298   1.739  15.952 -0.7391  0.4056  0.3349
 8310TIP3    H246346   3.310   1.889  15.968  0.3073  0.2247  1.2649
 8311TIP3   OH246347   6.519   6.754  11.441  0.3694  0.1953 -0.1946
 8311TIP3    H146348   6.493   6.839  11.477  0.9850  0.1995  0.2352
 8311TIP3    H246349   6.516   6.766  11.346 -0.5005  0.4108 -0.1472
 8312TIP3   OH246350   0.209   6.451   1.879  0.1544  0.2692  0.1868
 8312TIP3    H146351   0.165   6.440   1.963  1.1871  0.1929  0.7213
 8312TIP3    H246352   0.290   6.400   1.887 -0.3569 -0.8095 -1.3146
 8313TIP3   OH246353   3.527   2.198   3.340 -0.3203 -0.3912  0.6201
 8313TIP3    H146354   3.441   2.159   3.358 -0.1354 -1.0041  0.2051
 8313TIP3    H246355   3.538   2.189   3.245 -1.1623  2.5283  0.1876
 8314TIP3   OH246356   2.005   6.680  13.246 -0.6279 -0.2062  0.9071
 8314TIP3    H146357   2.034   6.764  13.211  1.0240 -0.4521  1.6138
 8314TIP3    H246358   1.942   6.647  13.182  1.5663 -0.1931 -1.3345
 8315TIP3   OH246359   6.449   1.869   3.193 -0.2483 -0.3609  0.1415
 8315TIP3    H146360   6.518   1.855   3.259 -0.7807 -0.9083  0.5959
 8315TIP3    H246361   6.372   1.893   3.244 -0.4702 -0.0290 -0.3462
 8316TIP3   OH246362   1.019   6.372   6.052 -0.7107 -0.7275  0.2927
 8316TIP3    H146363   0.992   6.395   6.141  1.0002  1.6539  0.2312
 8316TIP3    H246364   1.114   6.384   6.051 -0.8909  1.0069 -2.2910
 8317TIP3   OH246365   1.017   2.488   5.263 -0.3739 -0.4244  0.5523
 8317TIP3    H146366   1.093   2.431   5.279  0.0729  0.1073  0.3697
 8317TIP3    H246367   1.039   2.534   5.182 -0.3151  0.6828  1.1847
 8318TIP3   OH246368   1.705   1.953   0.187 -0.3067  0.0073  0.3948
 8318TIP3    H146369   1.728   2.012   0.115  0.5309 -1.2052 -0.3339
 8318TIP3    H246370   1.691   1.868   0.145 -3.0785 -0.0022  1.2160
 8319TIP3   OH246371   2.268   2.961   5.490 -0.3777 -1.1926  0.1816
 8319TIP3    H146372   2.202   3.028   5.472  1.0849  0.3396  0.4136
 8319TIP3    H246373   2.235   2.915   5.568 -1.0011 -0.2191  0.4915
 8320TIP3   OH246374   1.523   4.415   0.768 -0.1691  0.6067 -0.1870
 8320TIP3    H146375   1.581   4.475   0.815 -1.2330  1.5896 -0.1164
 8320TIP3    H246376   1.527   4.444   0.677 -0.4744  0.6301 -0.1955
 8321TIP3   OH246377   6.366   5.363  15.901 -0.2065  0.3086  0.6714
 8321TIP3    H146378   6.399   5.393  15.986  0.9782  0.5792  0.1314
 8321TIP3    H246379   6.304   5.430  15.874  0.5099  0.9711  0.6531
 8322TIP3   OH246380   5.710   6.167   2.556 -0.7131 -0.3381 -0.4381
 8322TIP3    H146381   5.800   6.164   2.589 -1.2417 -0.3302  1.0324
 8322TIP3    H246382   5.717   6.215   2.474  0.6395 -0.3849 -0.3671
 8323TIP3   OH246383   5.110   6.531  11.890 -0.2655 -0.2235 -0.0827
 8323TIP3    H146384   5.084   6.442  11.867 -0.4041 -0.1834 -0.0746
 8323TIP3    H246385   5.096   6.581  11.810 -1.6281  0.1094  0.3717
 8324TIP3   OH246386   3.178   1.548   1.696 -0.1819  0.7909 -0.6645
 8324TIP3    H146387   3.166   1.610   1.624  0.3765  2.0254  0.2787
 8324TIP3    H246388   3.154   1.598   1.774  0.5886 -0.0930  0.1418
 8325TIP3   OH246389   4.044   6.645  12.014 -0.1720 -0.6402  0.2047
 8325TIP3    H146390   4.031   6.738  12.031 -0.2551 -0.7191  0.5785
 8325TIP3    H246391   3.994   6.601  12.082  0.5585 -0.9550  0.5468
 8326TIP3   OH246392   0.115   1.646   0.151 -0.5692  0.3961 -0.3012
 8326TIP3    H146393   0.089   1.673   0.240 -1.1348  1.4558 -0.7785
 8326TIP3    H246394   0.033   1.622   0.109 -0.1811 -1.1171 -0.2176
 8327TIP3   OH246395   6.669   1.764   2.487  0.2865  0.5918  0.1067
 8327TIP3    H146396   6.575   1.778   2.495 -0.0038 -0.9390 -0.4373
 8327TIP3    H246397   6.700   1.759   2.577 -0.4139 -0.4752  0.3051
 8328TIP3   OH246398   3.409   2.262  14.837 -0.3460  0.7391  0.3720
 8328TIP3    H146399   3.471   2.309  14.782 -1.0747 -0.1226 -1.2358
 8328TIP3    H246400   3.412   2.307  14.921  1.8026  1.2333  0.0588
 8329TIP3   OH246401   2.923   5.413  13.977 -0.4266  0.1173  0.0366
 8329TIP3    H146402   3.008   5.412  14.020 -1.5691  0.2598  2.3341
 8329TIP3    H246403   2.917   5.327  13.935 -0.3562 -1.0023  2.2767
 8330TIP3   OH246404   1.339   1.089   0.815  0.1716 -0.1760 -0.0358
 8330TIP3    H146405   1.341   0.993   0.819 -0.0796 -0.2658 -1.6779
 8330TIP3    H246406   1.312   1.116   0.902  1.2907 -1.5599  0.7691
 8331TIP3   OH246407   2.356   3.946  14.860  0.3054  0.0724  0.2986
 8331TIP3    H146408   2.446   3.918  14.875 -0.2508 -0.0809  3.8701
 8331TIP3    H246409   2.364   4.028  14.811  2.2904 -0.9431 -1.1301
 8332TIP3   OH246410   4.758   4.321  11.134 -0.0375  0.5364  0.4118
 8332TIP3    H146411   4.844   4.334  11.175  0.1781 -0.6047  0.3323
 8332TIP3    H246412   4.775   4.329  11.040 -0.1950  1.2917  0.4481
 8333TIP3   OH246413   1.410   4.906   4.757 -0.0029 -0.0349  0.0771
 8333TIP3    H146414   1.467   4.966   4.805 -2.1066  1.0145  1.2694
 8333TIP3    H246415   1.417   4.823   4.805 -0.8695  0.5827  1.2922
 8334TIP3   OH246416   4.675   5.764  17.091 -0.3294 -0.4776 -0.6091
 8334TIP3    H146417   4.727   5.689  17.121  0.1281 -0.5219 -1.5137
 8334TIP3    H246418   4.740   5.830  17.067 -0.7244  0.1243 -0.0730
 8335TIP3   OH246419   3.002   2.571  11.306  0.8951 -0.6191  0.1401
 8335TIP3    H146420   3.097   2.562  11.304  1.1220  1.2553  1.2702
 8335TIP3    H246421   2.982   2.622  11.227  1.2639  2.3318  1.8942
 8336TIP3   OH246422   0.997   0.848   1.978 -0.3099 -0.1843  0.3953
 8336TIP3    H146423   1.076   0.875   2.026  1.8163 -0.7627 -2.6708
 8336TIP3    H246424   0.932   0.914   2.001  1.3533  0.9174  2.1711
 8337TIP3   OH246425   4.839   3.706  12.264 -0.3351 -0.0533 -0.2980
 8337TIP3    H146426   4.920   3.679  12.222 -0.2069  0.5463 -0.4398
 8337TIP3    H246427   4.846   3.801  12.271  0.0575 -0.2175  1.9002
 8338TIP3   OH246428   3.015   3.155  12.610  0.2137 -0.6677 -0.7487
 8338TIP3    H146429   3.095   3.112  12.641  0.7187  0.8803  0.1701
 8338TIP3    H246430   3.047   3.230  12.559 -0.6360  1.4883  1.8307
 8339TIP3   OH246431   0.662   6.213  16.473  0.1263 -0.1475  0.3467
 8339TIP3    H146432   0.595   6.148  16.493  0.6024 -1.1458 -1.2781
 8339TIP3    H246433   0.735   6.192  16.531 -0.0125 -0.5674  0.3640
 8340TIP3   OH246434   2.095   2.163  10.854  0.5104 -0.0242 -0.8077
 8340TIP3    H146435   2.037   2.169  10.930  0.6158  1.5262 -0.8319
 8340TIP3    H246436   2.183   2.175  10.889  0.4744  1.7965 -1.2998
 8341TIP3   OH246437   3.991   5.402   3.529 -0.2474  0.2747  0.1318
 8341TIP3    H146438   4.050   5.347   3.478  0.7310  0.5935  0.8869
 8341TIP3    H246439   3.933   5.443   3.465 -0.7368 -1.3294 -0.4675
 8342TIP3   OH246440   1.059   6.367   2.093 -0.0854  0.3399  0.1952
 8342TIP3    H146441   1.142   6.358   2.140 -0.1833  0.5734  0.4170
 8342TIP3    H246442   1.008   6.429   2.146 -0.8628 -0.6906  0.6833
 8343TIP3   OH246443   4.116   1.783  15.606  0.4149  0.3208 -0.0794
 8343TIP3    H146444   4.045   1.792  15.543 -0.0371 -1.7534  0.0815
 8343TIP3    H246445   4.151   1.695  15.589  2.6659  1.1492  0.1218
 8344TIP3   OH246446   1.847   3.247  11.577 -0.1290 -0.1282  0.3606
 8344TIP3    H146447   1.842   3.331  11.531  0.4483 -0.1563  0.2323
 8344TIP3    H246448   1.760   3.209  11.569 -1.1431  1.6350  2.6744
 8345TIP3   OH246449   3.482   0.505  11.419 -0.0234 -0.0215 -0.3142
 8345TIP3    H146450   3.501   0.511  11.512  0.1901 -1.0617 -0.2865
 8345TIP3    H246451   3.544   0.440  11.386  0.1558  0.6045 -1.2553
 8346TIP3   OH246452   2.587   0.036  16.231 -0.5794  0.0143 -0.2321
 8346TIP3    H146453   2.607   0.007  16.320  0.6156  0.1482 -0.4579
 8346TIP3    H246454   2.524  -0.029  16.199 -0.4038 -0.4831  0.4282
 8347TIP3   OH246455   0.152   1.630   2.299  0.0694 -0.2396  0.0931
 8347TIP3    H146456   0.162   1.549   2.348  0.2269 -0.9944 -1.1905
 8347TIP3    H246457   0.062   1.628   2.267  0.8659 -1.1730 -2.1697
 8348TIP3   OH246458   5.868   0.563   1.677  0.4671 -0.2473 -0.1495
 8348TIP3    H146459   5.960   0.568   1.652  0.5552 -0.7139  0.0828
 8348TIP3    H246460   5.866   0.583   1.770  0.0058  2.6267 -0.7328
 8349TIP3   OH246461   3.270   6.258  16.286 -0.0477  0.0476  0.0397
 8349TIP3    H146462   3.364   6.240  16.278 -0.3371 -1.5478  0.1130
 8349TIP3    H246463   3.250   6.314  16.211  1.2594  1.6981  0.8776
 8350TIP3   OH246464   3.072   4.531   1.711 -0.1540 -0.1104 -0.1276
 8350TIP3    H146465   3.041   4.618   1.687 -0.7635 -0.6953 -1.4784
 8350TIP3    H246466   3.124   4.545   1.791  0.7342  1.6410 -0.9975
 8351TIP3   OH246467   5.394   4.748  14.223  0.1053  0.4334 -0.3505
 8351TIP3    H146468   5.472   4.694  14.238 -0.3695  0.0364  0.7750
 8351TIP3    H246469   5.323   4.700  14.266 -0.2743  2.1195  0.9576
 8352TIP3   OH246470   0.301   1.097   6.434 -0.2780 -0.4446  0.1940
 8352TIP3    H146471   0.208   1.075   6.435 -0.4078  0.0324  2.6392
 8352TIP3    H246472   0.342   1.031   6.490  1.3437 -2.4354 -3.1800
 8353TIP3   OH246473   3.226   5.127   0.437 -0.4413  0.4318 -0.2586
 8353TIP3    H146474   3.278   5.191   0.487 -0.8631  0.9520 -0.4798
 8353TIP3    H246475   3.204   5.059   0.501  1.3722 -0.3164 -0.3952
 8354TIP3   OH246476   4.994   4.157  15.435 -0.1477  0.0145 -0.1480
 8354TIP3    H146477   4.927   4.164  15.367 -2.6892 -0.1593  2.2403
 8354TIP3    H246478   4.990   4.240  15.481  0.6944 -0.3372  0.5754
 8355TIP3   OH246479   1.876   6.041  12.103  0.0017  0.0923  0.3400
 8355TIP3    H146480   1.918   6.033  12.017  0.3926 -1.4211  0.6471
 8355TIP3    H246481   1.943   6.013  12.165 -0.2656  1.2029  1.1571
 8356TIP3   OH246482   1.233   3.553  11.009 -0.2454 -0.9077 -0.3463
 8356TIP3    H146483   1.302   3.490  11.031 -0.7286 -1.7018 -1.0205
 8356TIP3    H246484   1.249   3.574  10.917  0.6305  0.8976  0.2126
 8357TIP3   OH246485   0.112   1.106  16.360 -0.0673  0.1440  0.1506
 8357TIP3    H146486   0.111   1.186  16.413 -0.1308  0.1678  0.1154
 8357TIP3    H246487   0.111   1.137  16.270 -0.7992  0.0979  0.1342
 8358TIP3   OH246488   0.914   2.318   5.969  0.0037 -0.5288 -0.7566
 8358TIP3    H146489   0.890   2.299   6.060  0.9259  0.5661 -0.2750
 8358TIP3    H246490   0.957   2.403   5.973  0.1899 -0.5492 -2.2036
 8359TIP3   OH246491   2.083   0.887  12.784 -0.7655 -0.0144 -0.1905
 8359TIP3    H146492   2.020   0.948  12.744 -1.1818 -0.7994 -0.7495
 8359TIP3    H246493   2.029   0.813  12.811 -0.4014  0.2479  1.3247
 8360TIP3   OH246494   4.670   3.103  11.543  0.2489  0.1242  0.1637
 8360TIP3    H146495   4.580   3.084  11.568  0.0579  1.5938  0.6493
 8360TIP3    H246496   4.666   3.118  11.448  0.2474 -1.3130 -0.0626
 8361TIP3   OH246497   0.744   4.139   0.441  0.2526  0.0603 -0.2989
 8361TIP3    H146498   0.759   4.166   0.531  0.0032 -0.9961  0.0575
 8361TIP3    H246499   0.822   4.169   0.394  1.9222 -2.2821  0.8908
 8362TIP3   OH246500   1.757   0.900   4.736  0.2757  0.4965  0.4674
 8362TIP3    H146501   1.662   0.898   4.733  0.3099 -1.2082 -0.4673
 8362TIP3    H246502   1.782   0.968   4.673 -0.2846 -0.6086 -0.9649
 8363TIP3   OH246503   5.712   6.460  15.668 -0.2372  0.3901 -0.8644
 8363TIP3    H146504   5.714   6.554  15.685 -0.0636  0.3555 -0.6942
 8363TIP3    H246505   5.715   6.420  15.755 -0.5998  0.2315 -0.9264
 8364TIP3   OH246506   2.617   1.003   5.043  0.3802 -0.2207  0.2000
 8364TIP3    H146507   2.678   0.932   5.062  0.0333 -0.4375  0.4999
 8364TIP3    H246508   2.533   0.972   5.075 -0.0205 -0.1978 -0.8248
 8365TIP3   OH246509   3.572   6.509   3.264  0.0308  0.7738 -0.3985
 8365TIP3    H146510   3.532   6.422   3.276 -1.8802  1.7432  0.4952
 8365TIP3    H246511   3.576   6.546   3.352  0.9170  1.5775 -0.7672
 8366TIP3   OH246512   1.853   0.306   2.317  0.3705  0.0399  0.6452
 8366TIP3    H146513   1.887   0.237   2.260 -0.3220  1.3612 -1.4362
 8366TIP3    H246514   1.931   0.343   2.359  1.1257  0.4050 -1.0318
 8367TIP3   OH246515   6.503   4.348   0.512  0.4996 -0.4383 -0.2256
 8367TIP3    H146516   6.455   4.393   0.581  0.3527  0.5436 -0.9492
 8367TIP3    H246517   6.588   4.392   0.509 -0.1350  0.7529 -1.8580
 8368TIP3   OH246518   4.738   3.735  16.156  0.3826 -0.1537  0.3062
 8368TIP3    H146519   4.686   3.747  16.077 -1.6014 -0.9227  1.4582
 8368TIP3    H246520   4.702   3.796  16.219  0.8147 -0.7600  1.1584
 8369TIP3   OH246521   6.584   5.529   3.106 -0.7696  0.1428 -0.5213
 8369TIP3    H146522   6.509   5.491   3.060 -0.2582 -0.4381 -0.8791
 8369TIP3    H246523   6.546   5.598   3.160 -1.6998 -0.7635  0.0242
 8370TIP3   OH246524   6.381   5.460   2.730 -0.0022  0.3934  1.1290
 8370TIP3    H146525   6.442   5.463   2.803 -0.2540  2.0975  1.3078
 8370TIP3    H246526   6.414   5.526   2.669 -1.6618  1.3816  1.2600
 8371TIP3   OH246527   2.084   6.160  15.906 -0.2644 -0.0362  0.5264
 8371TIP3    H146528   2.144   6.212  15.854 -1.3825 -1.7930 -2.6504
 8371TIP3    H246529   2.019   6.223  15.937  0.8492  1.1706  0.4614
 8372TIP3   OH246530   2.538   6.217   3.048  0.4867 -0.4773  0.3201
 8372TIP3    H146531   2.529   6.138   3.101  2.5475  0.7645  2.5711
 8372TIP3    H246532   2.487   6.283   3.095  0.9518  0.2109 -0.1363
 8373TIP3   OH246533   4.581   0.167   1.717  0.3232  0.5716  0.1580
 8373TIP3    H146534   4.592   0.088   1.665 -0.7640  0.7190 -0.3118
 8373TIP3    H246535   4.494   0.199   1.694 -0.0435  0.8245  1.8120
 8374TIP3   OH246536   2.008   3.260   1.784 -0.4351  0.2519  0.2838
 8374TIP3    H146537   1.986   3.236   1.695  0.9744  0.8689 -0.2434
 8374TIP3    H246538   1.943   3.216   1.838 -1.1885 -0.2563 -1.0330
 8375TIP3   OH246539   4.700   6.617   4.402  0.4104  0.1815 -0.2832
 8375TIP3    H146540   4.683   6.523   4.409 -0.8434  0.5214  1.5564
 8375TIP3    H246541   4.785   6.622   4.359  0.6263 -1.8060 -0.1628
 8376TIP3   OH246542   6.092   3.512  15.568  0.0141  0.5799 -0.2824
 8376TIP3    H146543   6.011   3.496  15.616  1.5539 -1.1758  1.7993
 8376TIP3    H246544   6.071   3.490  15.477 -1.4176 -1.3338  0.4975
 8377TIP3   OH246545   1.107   6.608   0.061  0.6104 -0.1976 -0.2047
 8377TIP3    H146546   1.046   6.554   0.111  0.9295  0.4816  0.9450
 8377TIP3    H246547   1.062   6.692   0.052  0.5098 -0.3453 -1.1739
 8378TIP3   OH246548   1.345   5.863   5.791  0.2155 -1.3019 -0.4404
 8378TIP3    H146549   1.276   5.804   5.823  0.6692 -2.2382 -1.1500
 8378TIP3    H246550   1.412   5.804   5.757  0.1748 -0.3528 -2.2215
 8379TIP3   OH246551   6.647   1.448   4.987 -0.1330 -0.4942  0.7624
 8379TIP3    H146552   6.700   1.522   4.958  1.4705 -2.0827 -0.4672
 8379TIP3    H246553   6.693   1.414   5.064  0.3278 -1.5128  0.0506
 8380TIP3   OH246554   2.159   4.063  17.074  0.6308  0.2014  0.2079
 8380TIP3    H146555   2.179   4.064  17.168  0.3333 -2.3104  0.3569
 8380TIP3    H246556   2.154   3.969  17.052 -1.2239  0.7330 -1.8928
 8381TIP3   OH246557   5.468   6.752  12.394  0.2663 -0.3879 -0.2421
 8381TIP3    H146558   5.386   6.704  12.381 -0.0349 -0.0978  0.5589
 8381TIP3    H246559   5.502   6.721  12.477  0.7949 -0.2502 -0.4048
 8382TIP3   OH246560   1.116   0.236  12.944 -1.0882 -0.3091 -0.1925
 8382TIP3    H146561   1.168   0.276  12.874 -0.8212  0.1624  0.2766
 8382TIP3    H246562   1.178   0.185  12.995 -0.9218  0.9371  0.8708
 8383TIP3   OH246563   2.685   1.881  14.140  0.0991  0.3175 -0.3964
 8383TIP3    H146564   2.632   1.959  14.159  1.0065  1.1373 -1.1660
 8383TIP3    H246565   2.698   1.839  14.225  1.2618  2.0762  0.3149
 8384TIP3   OH246566   0.833   5.214   1.364 -0.6468 -0.2202 -0.0185
 8384TIP3    H146567   0.885   5.140   1.333 -0.1813  0.5158 -1.0580
 8384TIP3    H246568   0.887   5.255   1.432 -1.1247 -1.1162  0.9127
 8385TIP3   OH246569   2.757   1.571  14.253  0.0914  0.1193  0.1392
 8385TIP3    H146570   2.848   1.598  14.248  0.1767 -0.3473 -0.8368
 8385TIP3    H246571   2.759   1.485  14.294  0.4038 -1.4681 -3.0621
 8386TIP3   OH246572   2.591   6.196  14.636 -0.0837 -0.5909 -0.5003
 8386TIP3    H146573   2.531   6.124  14.614  0.8942 -0.8384 -2.5068
 8386TIP3    H246574   2.647   6.204  14.558  2.4223 -0.3220  1.2710
 8387TIP3   OH246575   2.446   3.162   1.815  0.2316  1.1496  1.0571
 8387TIP3    H146576   2.461   3.256   1.807 -1.0686  1.2931  0.1178
 8387TIP3    H246577   2.404   3.137   1.733 -0.6334 -0.0126  1.8316
 8388TIP3   OH246578   4.684   4.903  15.530 -0.0034 -0.7752 -0.2178
 8388TIP3    H146579   4.640   4.902  15.445  1.8097  0.0164 -1.2032
 8388TIP3    H246580   4.700   4.996  15.547 -0.2733 -0.9406  0.9534
 8389TIP3   OH246581   1.357   5.737  15.831 -0.1161  0.4586 -0.2366
 8389TIP3    H146582   1.383   5.770  15.745  0.9598 -2.0499 -0.9354
 8389TIP3    H246583   1.359   5.642  15.822 -2.0249  0.1541  1.9843
 8390TIP3   OH246584   1.181   5.210   1.794  0.6880 -0.2594 -0.7323
 8390TIP3    H146585   1.157   5.299   1.820 -0.9372 -0.6145 -0.9447
 8390TIP3    H246586   1.264   5.219   1.748  0.3677  1.1893 -1.0367
 8391TIP3   OH246587   6.700   6.753   5.561 -0.6232 -0.8681 -0.4973
 8391TIP3    H146588   6.631   6.726   5.622 -1.0186  0.3576 -0.3864
 8391TIP3    H246589   6.654   6.792   5.487 -0.0496 -0.0240 -0.4192
 8392TIP3   OH246590   3.467   2.815  14.883  0.0842 -0.1025 -0.7990
 8392TIP3    H146591   3.539   2.752  14.873 -0.5179 -0.5283 -2.4296
 8392TIP3    H246592   3.388   2.762  14.878 -0.3905  0.5633 -0.3723
 8393TIP3   OH246593   0.119   0.230   0.170 -0.3002  0.0930  0.0884
 8393TIP3    H146594   0.152   0.308   0.125 -0.9480 -1.0119 -2.4182
 8393TIP3    H246595   0.033   0.256   0.203 -2.0128 -0.4064 -3.6169
 8394TIP3   OH246596   6.644   6.221   0.364  0.7274 -0.3086  0.2200
 8394TIP3    H146597   6.552   6.244   0.367  0.3619 -1.6812  0.1599
 8394TIP3    H246598   6.675   6.230   0.454  0.1905 -1.1392  0.4944
 8395TIP3   OH246599   1.706   0.699   1.366  0.1504 -0.0737  0.3529
 8395TIP3    H146600   1.783   0.665   1.321  0.9280  2.1560 -0.0742
 8395TIP3    H246601   1.715   0.669   1.457  1.1377 -0.4319  0.1319
 8396TIP3   OH246602   1.209   3.600   1.402 -0.1841  0.3468  0.2967
 8396TIP3    H146603   1.274   3.670   1.406 -0.0272  0.2123  0.1054
 8396TIP3    H246604   1.209   3.562   1.490 -0.3176  0.6313  0.4199
 8397TIP3   OH246605   4.757   0.126  12.705 -0.4984 -0.0907 -0.3848
 8397TIP3    H146606   4.714   0.069  12.640 -0.6393 -1.1395  0.6075
 8397TIP3    H246607   4.685   0.157  12.759 -0.1228 -1.1540  0.7468
 8398TIP3   OH246608   6.357   2.075   4.180 -0.5810  0.0493  0.5783
 8398TIP3    H146609   6.350   2.117   4.094  0.1338 -0.1548  0.4151
 8398TIP3    H246610   6.416   2.132   4.230  1.3227 -1.3319 -0.0212
 8399TIP3   OH246611   1.163   5.099   1.202  0.0867  0.0813 -0.3792
 8399TIP3    H146612   1.227   5.171   1.196  1.6704 -1.1119  1.2805
 8399TIP3    H246613   1.171   5.053   1.119  1.8368 -0.3783  0.0127
 8400TIP3   OH246614   4.948   1.456  13.419 -0.3665  0.3431 -0.9876
 8400TIP3    H146615   4.933   1.380  13.363 -2.2744 -0.0284 -0.0149
 8400TIP3    H246616   4.866   1.505  13.416 -1.0515 -0.4208  2.5506
 8401TIP3   OH246617   1.193   4.629  11.306 -0.3369  0.4751  0.2803
 8401TIP3    H146618   1.283   4.624  11.275 -0.0914  0.9707  0.8869
 8401TIP3    H246619   1.178   4.546  11.350 -0.3993  0.1223 -0.4029
 8402TIP3   OH246620   4.480   6.204  13.193  0.1712 -0.7464  0.4114
 8402TIP3    H146621   4.504   6.150  13.268  1.8673  0.3276  0.6637
 8402TIP3    H246622   4.563   6.233  13.156 -0.6828  0.5517 -0.5611
 8403TIP3   OH246623   3.304   6.772   3.133  0.0285  0.0091  0.2179
 8403TIP3    H146624   3.254   6.762   3.052  1.0198  2.7070 -0.7928
 8403TIP3    H246625   3.393   6.793   3.104  0.6978 -0.2205  2.0169
 8404TIP3   OH246626   6.674   6.476  11.955  0.2333 -0.3136 -0.1798
 8404TIP3    H146627   6.732   6.527  11.899 -1.4733 -0.9844 -2.6707
 8404TIP3    H246628   6.624   6.541  12.004  1.0046  0.3122 -0.2178
 8405TIP3   OH246629   4.765   5.197   4.242 -0.2838 -0.4358  0.3091
 8405TIP3    H146630   4.800   5.114   4.274 -0.9775 -0.6407  0.5499
 8405TIP3    H246631   4.701   5.172   4.175  1.4373 -0.0023 -1.5530
 8406TIP3   OH246632   3.756   5.922  12.512 -0.0755 -0.5493 -0.0106
 8406TIP3    H146633   3.770   5.912  12.607 -0.6341 -2.1640 -0.0799
 8406TIP3    H246634   3.729   5.835  12.483 -0.2089  0.0159 -1.6150
 8407TIP3   OH246635   5.086   5.616   0.499  0.3413 -0.7142 -0.2253
 8407TIP3    H146636   5.147   5.635   0.570 -0.7923 -0.6054  0.7315
 8407TIP3    H246637   5.129   5.548   0.447  1.2802 -0.6106  0.4133
 8408TIP3   OH246638   0.373   2.282  15.589  0.6349 -0.0460 -0.0014
 8408TIP3    H146639   0.317   2.323  15.523  1.7427 -0.7439 -1.3894
 8408TIP3    H246640   0.337   2.313  15.672 -1.1170  0.4084 -0.8936
 8409TIP3   OH246641   4.083   5.554   4.043 -0.2858 -0.4484  0.2314
 8409TIP3    H146642   4.048   5.643   4.044 -0.1406 -0.4009  1.9324
 8409TIP3    H246643   4.108   5.540   3.952  1.9394  2.1552  0.3631
 8410TIP3   OH246644   2.810   6.116  16.146 -0.1469  0.3002  0.1629
 8410TIP3    H146645   2.897   6.121  16.187 -0.9626  0.1109  1.9473
 8410TIP3    H246646   2.778   6.029  16.169 -0.5577  0.1307 -1.0307
 8411TIP3   OH246647   4.452   6.464  15.835 -0.1434  0.3027  0.0595
 8411TIP3    H146648   4.442   6.409  15.757  1.0896  0.3401 -0.1255
 8411TIP3    H246649   4.369   6.512  15.840 -1.7089 -2.3751  0.8739
 8412TIP3   OH246650   3.180   2.546  16.593 -0.6084  0.0722  0.4921
 8412TIP3    H146651   3.168   2.620  16.534 -1.1431 -0.7205 -0.4073
 8412TIP3    H246652   3.270   2.556  16.625  0.4208 -0.6435 -2.0817
 8413TIP3   OH246653   2.043   0.195  13.172 -0.4408 -0.5796  0.2062
 8413TIP3    H146654   2.063   0.276  13.220 -0.6010 -0.3725 -0.0709
 8413TIP3    H246655   2.074   0.213  13.083 -2.2836 -0.0760 -0.3412
 8414TIP3   OH246656   2.346   0.804   5.381 -0.1185  0.1532  0.0816
 8414TIP3    H146657   2.334   0.716   5.416 -1.1898 -0.2026 -1.1641
 8414TIP3    H246658   2.279   0.856   5.426 -0.6284 -0.0322 -0.4579
 8415TIP3   OH246659   0.160   1.381   4.955  0.0308  0.7488  0.2952
 8415TIP3    H146660   0.192   1.368   5.044  0.1276 -1.0593  0.0341
 8415TIP3    H246661   0.120   1.297   4.932  1.1508  0.7318 -1.8101
 8416TIP3   OH246662   1.457   5.977  12.197 -0.5126 -0.1018  0.0012
 8416TIP3    H146663   1.519   5.938  12.259  0.0166  2.9688  1.5249
 8416TIP3    H246664   1.374   5.979  12.245 -0.3498  1.2971  0.2561
 8417TIP3   OH246665   1.260   2.475   2.004  0.5094 -0.6810 -0.2795
 8417TIP3    H146666   1.263   2.480   2.099 -0.6094 -3.6467 -0.0377
 8417TIP3    H246667   1.231   2.562   1.976  1.1584  0.3189  2.0387
 8418TIP3   OH246668   2.269   0.936   3.312  0.3865  0.4595 -0.0843
 8418TIP3    H146669   2.183   0.975   3.325  0.1312 -0.7174  2.0950
 8418TIP3    H246670   2.305   0.981   3.236 -1.2764  2.4695  0.2705
 8419TIP3   OH246671   3.632   4.668  12.937 -0.3761 -0.2047 -0.1552
 8419TIP3    H146672   3.577   4.667  12.859 -1.4660 -0.9316  0.6201
 8419TIP3    H246673   3.595   4.601  12.994  0.6708  0.0252  0.8182
 8420TIP3   OH246674   3.025   0.256  13.639 -0.2861 -0.1733 -0.2388
 8420TIP3    H146675   2.976   0.283  13.561  0.7378  0.3306 -0.7210
 8420TIP3    H246676   2.973   0.185  13.677 -0.6761 -0.5914 -1.5217
 8421TIP3   OH246677   1.158   3.972  11.562 -0.2416 -0.7452  0.0443
 8421TIP3    H146678   1.196   4.043  11.614 -1.8356 -0.2472  0.5554
 8421TIP3    H246679   1.215   3.897  11.578 -1.4132 -0.9677  3.6080
 8422TIP3   OH246680   4.891   3.867   3.271  0.2034  0.1137  0.6841
 8422TIP3    H146681   4.814   3.811   3.272  0.2361  0.0467 -0.0965
 8422TIP3    H246682   4.864   3.944   3.220  0.5515  0.2357  0.6807
 8423TIP3   OH246683   2.005   4.412   0.285  0.0640  0.1617 -0.3360
 8423TIP3    H146684   1.935   4.376   0.230 -0.4059  1.1008 -0.3707
 8423TIP3    H246685   2.071   4.442   0.222  0.8886 -1.4959 -0.2728
 8424TIP3   OH246686   0.494   1.646   6.217 -1.0426 -0.2782 -0.6458
 8424TIP3    H146687   0.566   1.672   6.160 -1.2564  0.5094 -0.5667
 8424TIP3    H246688   0.432   1.719   6.212 -0.8674 -0.0099  0.9213
 8425TIP3   OH246689   6.656   0.731  13.512 -0.4392 -0.0092 -0.8278
 8425TIP3    H146690   6.732   0.778  13.476  1.1604 -0.0536  2.3043
 8425TIP3    H246691   6.607   0.799  13.559 -0.2823 -0.7007  0.3426
 8426TIP3   OH246692   3.166   1.874   7.036  0.5004  0.3590 -0.4318
 8426TIP3    H146693   3.116   1.896   6.956 -0.4181 -1.5672 -0.4058
 8426TIP3    H246694   3.132   1.789   7.062  0.5006  1.1633  2.2861
 8427TIP3   OH246695   6.106   0.309   2.007  0.3758 -0.0876  0.3173
 8427TIP3    H146696   6.011   0.307   2.005  0.3620 -0.3403  1.0726
 8427TIP3    H246697   6.131   0.221   2.037  0.8598 -0.1814 -0.3445
 8428TIP3   OH246698   6.319   3.965   1.114  0.1104 -0.1517  0.0027
 8428TIP3    H146699   6.239   3.936   1.070 -1.1298  2.8198  0.1564
 8428TIP3    H246700   6.380   3.893   1.102 -1.9708 -1.7015 -1.7967
 8429TIP3   OH246701   6.207   4.339   6.460  0.2850  0.7018 -0.3223
 8429TIP3    H146702   6.162   4.256   6.447 -1.9019  2.2090 -2.9565
 8429TIP3    H246703   6.194   4.359   6.552 -0.4816 -1.1670 -0.0067
 8430TIP3   OH246704   6.573   1.238  12.034 -0.1018  0.5561 -0.7484
 8430TIP3    H146705   6.485   1.276  12.042  0.1824  0.8702  0.9931
 8430TIP3    H246706   6.622   1.276  12.107  0.5437 -2.2563  0.3184
 8431TIP3   OH246707   3.190   5.289   4.461  0.0515 -0.8783 -0.1373
 8431TIP3    H146708   3.244   5.258   4.534 -0.3577 -0.5083  0.3280
 8431TIP3    H246709   3.194   5.218   4.397 -0.2049 -1.5371  0.5663
 8432TIP3   OH246710   3.238   1.670   5.520 -0.0681 -0.0820 -0.2809
 8432TIP3    H146711   3.256   1.739   5.457 -3.6389 -0.3882 -1.7027
 8432TIP3    H246712   3.143   1.657   5.517 -0.2456 -0.9611  4.2662
 8433TIP3   OH246713   5.234   3.050   6.536 -0.3492 -0.3064  0.4390
 8433TIP3    H146714   5.165   2.989   6.563 -0.8146 -0.5872 -1.2947
 8433TIP3    H246715   5.316   3.004   6.553 -0.6891 -1.2763 -0.4747
 8434TIP3   OH246716   4.609   0.470  16.318  1.2880 -0.2986 -0.0497
 8434TIP3    H146717   4.547   0.483  16.247  1.9379  1.4075 -0.3364
 8434TIP3    H246718   4.622   0.557  16.355  1.9638 -0.9525  1.3122
 8435TIP3   OH246719   2.983   0.486  15.865 -0.2806 -0.7255  0.0248
 8435TIP3    H146720   3.078   0.496  15.854 -0.3388 -1.2192 -0.9055
 8435TIP3    H246721   2.969   0.499  15.959  0.9860 -2.8171  0.5356
 8436TIP3   OH246722   5.810   4.546  13.384 -0.0636  0.1617  0.5172
 8436TIP3    H146723   5.814   4.624  13.329 -0.3119 -2.0870 -2.8497
 8436TIP3    H246724   5.769   4.576  13.465  0.8114  3.7205 -0.2780
 8437TIP3   OH246725   4.143   6.731   2.213  0.0301  0.4136 -0.2576
 8437TIP3    H146726   4.137   6.673   2.137  0.1811  0.9255 -0.6631
 8437TIP3    H246727   4.097   6.684   2.283  0.6312 -0.4514 -0.4253
 8438TIP3   OH246728   5.958   5.714  15.017 -0.0657 -0.3181 -0.3189
 8438TIP3    H146729   6.012   5.638  15.038 -0.4519 -0.5635 -0.2066
 8438TIP3    H246730   5.869   5.687  15.040 -0.1783  0.2309 -0.1116
 8439TIP3   OH246731   0.837   4.540  10.881  0.4759  0.3709 -0.5641
 8439TIP3    H146732   0.827   4.520  10.788  0.0466 -0.5326 -0.3352
 8439TIP3    H246733   0.930   4.556  10.893  0.7413 -0.8947 -0.8865
 8440TIP3   OH246734   5.530   3.533   4.086 -0.2362 -0.1891 -0.1891
 8440TIP3    H146735   5.457   3.552   4.146 -0.6883  0.3014 -0.8920
 8440TIP3    H246736   5.488   3.509   4.003  0.4018 -0.1953 -0.5139
 8441TIP3   OH246737   4.349   6.144   0.382 -0.5866  0.4604 -0.0741
 8441TIP3    H146738   4.356   6.213   0.448 -0.1510 -0.4494  0.8413
 8441TIP3    H246739   4.366   6.189   0.299 -2.0321  1.7899  0.3191
 8442TIP3   OH246740   2.640   5.195   4.194 -0.4011  0.0910 -0.0130
 8442TIP3    H146741   2.712   5.191   4.131 -1.5401  1.7116 -1.4577
 8442TIP3    H246742   2.681   5.173   4.278  1.6108  0.2036 -0.9270
 8443TIP3   OH246743   4.199   2.595  15.184 -0.6063 -0.2696  0.2088
 8443TIP3    H146744   4.172   2.507  15.209  1.0587 -0.4939  1.2609
 8443TIP3    H246745   4.274   2.582  15.126 -0.2446  0.4672  0.5111
 8444TIP3   OH246746   5.103   6.385  15.233 -0.7013  0.2078 -0.2161
 8444TIP3    H146747   5.137   6.296  15.240 -0.5373  0.2821 -0.0438
 8444TIP3    H246748   5.110   6.406  15.140  1.2308  0.7965  0.0340
 8445TIP3   OH246749   2.821   6.398   2.263  0.2871  0.2732 -0.4012
 8445TIP3    H146750   2.802   6.440   2.179 -1.8104 -0.8536 -0.5023
 8445TIP3    H246751   2.915   6.381   2.260  0.2890  0.5080 -2.3935
 8446TIP3   OH246752   0.920   4.548  11.495  0.4229  0.2095 -0.9334
 8446TIP3    H146753   0.956   4.488  11.561 -2.6730 -0.6598  0.0593
 8446TIP3    H246754   0.898   4.492  11.421 -1.4481  0.2485 -0.4357
 8447TIP3   OH246755   1.578   2.267  11.829  0.1289  0.1059 -0.2141
 8447TIP3    H146756   1.657   2.224  11.795 -0.5568 -0.7213 -0.8024
 8447TIP3    H246757   1.586   2.262  11.924  0.4817 -0.5426 -0.2784
 8448TIP3   OH246758   2.673   2.902  16.932  0.3706  0.2739 -0.0128
 8448TIP3    H146759   2.610   2.851  16.881  0.7489  0.3805 -0.5938
 8448TIP3    H246760   2.627   2.981  16.956 -0.0501 -0.1070  0.4406
 8449TIP3   OH246761   2.046   3.205  11.385 -0.0636 -0.1182  0.5647
 8449TIP3    H146762   1.985   3.197  11.458  1.3951  0.4057  1.8731
 8449TIP3    H246763   2.095   3.285  11.404  1.7437 -1.0941  0.0840
 8450TIP3   OH246764   0.943   3.034  10.772 -0.3609 -0.1475  0.2843
 8450TIP3    H146765   0.999   3.100  10.731 -0.3449 -0.6162 -0.4756
 8450TIP3    H246766   0.892   3.082  10.836 -1.3337  0.8725 -1.2152
 8451TIP3   OH246767   6.542   1.253   1.885  0.2012  0.7489 -0.2038
 8451TIP3    H146768   6.449   1.239   1.901 -0.0609  1.7021 -0.8777
 8451TIP3    H246769   6.547   1.340   1.845  1.4950  1.2392  0.9821
 8452TIP3   OH246770   5.029   3.319  16.053 -0.4176 -0.1378  0.0369
 8452TIP3    H146771   5.110   3.321  16.002 -1.2027 -0.6599 -1.2536
 8452TIP3    H246772   5.050   3.368  16.133  0.9462  0.3563 -0.6052
 8453TIP3   OH246773   3.544   0.284  16.293 -0.0924 -0.3155  0.0383
 8453TIP3    H146774   3.481   0.275  16.221 -0.5593 -1.5867  0.6033
 8453TIP3    H246775   3.500   0.246  16.369  0.5789  0.6051  0.9097
 8454TIP3   OH246776   0.633   2.150  15.421  0.2710  0.0684  0.0315
 8454TIP3    H146777   0.622   2.066  15.466  0.2291 -0.4926 -1.0174
 8454TIP3    H246778   0.549   2.194  15.433  0.1373 -0.2282  0.2020
 8455TIP3   OH246779   1.749   0.380  15.741  0.1470  0.1958  0.4598
 8455TIP3    H146780   1.747   0.342  15.653  1.4162 -1.0306  0.9587
 8455TIP3    H246781   1.683   0.331  15.790 -0.4473  0.7727  0.2509
 8456TIP3   OH246782   0.920   0.271  12.548  0.0023 -0.6643  0.0607
 8456TIP3    H146783   0.913   0.343  12.486  0.6269 -1.6522 -1.1823
 8456TIP3    H246784   0.880   0.304  12.628 -0.2599  0.8447 -0.6768
 8457TIP3   OH246785   4.031   2.424  13.355  0.1450  0.8992  0.4409
 8457TIP3    H146786   4.121   2.457  13.350  0.7060 -0.0911  3.0461
 8457TIP3    H246787   4.027   2.357  13.288  1.7493  0.1270  1.0788
 8458TIP3   OH246788   0.272   6.364   0.139 -0.2753  0.4371 -0.3172
 8458TIP3    H146789   0.354   6.403   0.167 -0.5089  0.7641 -0.0873
 8458TIP3    H246790   0.217   6.364   0.217 -0.6263  0.5686 -0.5623
 8459TIP3   OH246791   1.727   4.818   0.488 -0.2058 -0.3753 -0.0286
 8459TIP3    H146792   1.706   4.794   0.398  1.2098 -1.7175 -0.0225
 8459TIP3    H246793   1.752   4.911   0.483  2.9961 -1.2403 -1.6072
 8460TIP3   OH246794   5.180   5.788  13.849  0.7134  0.5381  0.2703
 8460TIP3    H146795   5.145   5.762  13.934 -1.0422 -1.1390 -0.9210
 8460TIP3    H246796   5.193   5.883  13.857 -1.8089  0.8240  1.6062
 8461TIP3   OH246797   2.087   6.538   2.205  0.1572  0.1293  0.3802
 8461TIP3    H146798   2.141   6.597   2.152 -0.5608  0.8777  0.4869
 8461TIP3    H246799   2.076   6.582   2.289  0.0197 -0.3719  0.6319
 8462TIP3   OH246800   3.139   2.803  11.913 -0.3947 -0.0268  0.6252
 8462TIP3    H146801   3.179   2.888  11.934  1.8615 -0.5690 -1.2603
 8462TIP3    H246802   3.107   2.814  11.823 -3.0270 -0.1834  1.4826
 8463TIP3   OH246803   1.266   2.543   3.475 -0.1155 -0.3342 -0.0713
 8463TIP3    H146804   1.231   2.572   3.559  0.4433  0.5936 -0.1455
 8463TIP3    H246805   1.313   2.462   3.494  1.5861  0.8330  0.8616
 8464TIP3   OH246806   5.214   1.956  15.259  0.0456  0.6093 -0.7679
 8464TIP3    H146807   5.131   1.925  15.223  0.4499  0.5438 -1.6520
 8464TIP3    H246808   5.280   1.901  15.218  0.6704  1.8390 -1.4489
 8465TIP3   OH246809   0.559   1.193   5.233 -0.2443  0.4372  0.1250
 8465TIP3    H146810   0.605   1.170   5.152  1.8336 -1.0704  1.6752
 8465TIP3    H246811   0.554   1.111   5.282 -2.3041  1.1361  1.1407
 8466TIP3   OH246812   2.059   0.438   1.705 -0.1359  0.2660 -0.1275
 8466TIP3    H146813   2.140   0.458   1.659  0.1017  0.2222  0.2697
 8466TIP3    H246814   2.008   0.385   1.643  0.6450 -0.7284  0.0681
 8467TIP3   OH246815   5.580   4.287   4.360  0.5198 -0.1032  0.0740
 8467TIP3    H146816   5.491   4.319   4.351  0.5378 -0.5482 -1.8118
 8467TIP3    H246817   5.586   4.256   4.451 -0.7320  1.4221  0.6813
 8468TIP3   OH246818   1.691   3.308  12.670 -0.1062 -0.1719  0.0899
 8468TIP3    H146819   1.775   3.345  12.645 -1.1820  1.7823 -0.7200
 8468TIP3    H246820   1.653   3.275  12.589 -0.6235 -0.0097  0.2612
 8469TIP3   OH246821   5.699   5.226   5.030  0.0941 -0.1722 -0.0917
 8469TIP3    H146822   5.730   5.232   5.120 -0.3336  1.4219 -0.0280
 8469TIP3    H246823   5.606   5.249   5.035  0.6173  2.4378 -1.2283
 8470TIP3   OH246824   0.818   5.201   3.920  0.0073  0.1686  0.7268
 8470TIP3    H146825   0.758   5.131   3.894  0.8160 -0.0115 -0.6756
 8470TIP3    H246826   0.903   5.174   3.887  0.4719  1.4488  0.8474
 8471TIP3   OH246827   2.330   6.554  15.826 -0.2521  0.3177 -0.0026
 8471TIP3    H146828   2.372   6.618  15.770  1.2802 -0.2678  0.4462
 8471TIP3    H246829   2.395   6.484  15.835 -1.6436 -0.9965  0.0258
 8472TIP3   OH246830   0.298   4.664  10.590 -0.1740  0.2351 -0.4783
 8472TIP3    H146831   0.251   4.613  10.656 -1.1417  1.0552 -0.5204
 8472TIP3    H246832   0.238   4.666  10.515  0.9908 -0.8335 -1.4509
 8473TIP3   OH246833   4.621   2.771   3.957  0.3839  0.0563  0.4622
 8473TIP3    H146834   4.621   2.708   4.029 -0.5271  0.3342  0.7087
 8473TIP3    H246835   4.687   2.835   3.982  0.8120 -0.4126  0.5503
 8474TIP3   OH246836   5.440   0.793  13.508 -0.6681  0.0194 -0.4892
 8474TIP3    H146837   5.513   0.749  13.551  0.5525  1.6739 -0.7804
 8474TIP3    H246838   5.386   0.826  13.580 -1.0132 -1.0080 -0.2683
 8475TIP3   OH246839   3.684   5.979  16.801  0.5680  0.4764  0.2027
 8475TIP3    H146840   3.736   6.046  16.845 -2.2484  2.4546  0.6214
 8475TIP3    H246841   3.703   5.992  16.708 -0.3217  2.1948  0.2505
 8476TIP3   OH246842   6.515   0.802   2.957 -0.4354  0.7773  0.1498
 8476TIP3    H146843   6.462   0.822   2.879 -0.6135  0.3902  0.1714
 8476TIP3    H246844   6.468   0.731   3.001  0.0413  0.5087  0.2302
 8477TIP3   OH246845   6.208   0.838  12.789  0.3989  0.3587  0.3441
 8477TIP3    H146846   6.176   0.918  12.747  2.2772  0.5505 -0.7715
 8477TIP3    H246847   6.181   0.846  12.880 -1.1868  1.3087 -0.1882
 8478TIP3   OH246848   5.915   0.955   1.843  0.1672  0.3175  0.4108
 8478TIP3    H146849   5.825   0.931   1.864  0.9266 -1.8245  1.3237
 8478TIP3    H246850   5.919   1.050   1.859 -1.9298  0.4564  0.2221
 8479TIP3   OH246851   5.244   0.375  17.165  0.0954  0.4491  0.0662
 8479TIP3    H146852   5.285   0.346  17.084  1.9381  0.7857  0.8376
 8479TIP3    H246853   5.170   0.316  17.179  1.1023 -1.0027 -0.6986
 8480TIP3   OH246854   1.346   1.845  13.449  0.0913 -0.0687  0.4162
 8480TIP3    H146855   1.258   1.842  13.487  0.3587 -0.0746  1.0437
 8480TIP3    H246856   1.339   1.797  13.367 -0.7572  0.8675 -0.0781
 8481TIP3   OH246857   2.796   6.187   1.183  0.4995  0.3405  0.4302
 8481TIP3    H146858   2.780   6.197   1.277  2.3374 -0.3010  0.8353
 8481TIP3    H246859   2.792   6.093   1.168  1.6913  0.3266  0.1524
 8482TIP3   OH246860   2.883   2.051  15.555  0.4794  0.1388 -0.7269
 8482TIP3    H146861   2.907   2.099  15.476 -0.2312  0.5955 -0.6707
 8482TIP3    H246862   2.948   2.076  15.620  3.8160 -3.6465 -2.3639
 8483TIP3   OH246863   3.043   5.089  15.374  0.1884 -0.3735  0.5078
 8483TIP3    H146864   2.989   5.099  15.452  0.5689 -1.6033  0.9551
 8483TIP3    H246865   3.046   5.176  15.335  0.3599  0.3654  2.1186
 8484TIP3   OH246866   5.208   3.501  17.184 -0.4179  0.2140 -0.1268
 8484TIP3    H146867   5.159   3.500  17.103  0.9131  3.2120 -1.0398
 8484TIP3    H246868   5.273   3.431  17.174  0.1644  0.9852 -1.9404
 8485TIP3   OH246869   0.890   4.313  15.907 -0.3722 -0.2049 -0.2763
 8485TIP3    H146870   0.942   4.377  15.957 -1.4496  1.4702 -1.2577
 8485TIP3    H246871   0.807   4.357  15.890 -1.5716 -2.2928 -0.0434
 8486TIP3   OH246872   6.779   5.943   2.190 -0.0982 -0.5362  0.2681
 8486TIP3    H146873   6.847   5.965   2.253 -0.4435  1.6108 -0.0725
 8486TIP3    H246874   6.704   5.918   2.244  0.1146 -0.2587  0.6975
 8487TIP3   OH246875   5.887   5.689  12.439  0.4338  0.0066  0.3532
 8487TIP3    H146876   5.849   5.602  12.423  0.0853  0.4250 -1.1709
 8487TIP3    H246877   5.977   5.682  12.407  0.6746 -0.0519  1.0425
 8488TIP3   OH246878   3.469   0.676   5.804  0.1176 -0.0349  0.0553
 8488TIP3    H146879   3.539   0.630   5.850 -0.9389 -1.9871 -0.2355
 8488TIP3    H246880   3.474   0.766   5.837  2.8228 -0.1020 -0.0707
 8489TIP3   OH246881   2.819   3.140   1.745  0.6675  0.7307  0.1024
 8489TIP3    H146882   2.846   3.152   1.836  1.4915  1.4382 -0.2278
 8489TIP3    H246883   2.768   3.060   1.746 -2.3251  2.5689  1.8264
 8490TIP3   OH246884   2.576   3.540  15.715  0.4014 -0.3596 -0.2716
 8490TIP3    H146885   2.609   3.459  15.753  1.7009 -0.3699 -1.3492
 8490TIP3    H246886   2.530   3.512  15.636  1.4531 -0.0294 -1.0269
 8491TIP3   OH246887   4.886   3.281   4.546 -0.3646 -0.3373 -0.3333
 8491TIP3    H146888   4.901   3.194   4.509 -0.2494  0.2870 -1.8384
 8491TIP3    H246889   4.795   3.281   4.574  0.1045 -1.4841  1.2540
 8492TIP3   OH246890   3.394   4.907   5.352 -0.1123  0.1364  0.2926
 8492TIP3    H146891   3.320   4.963   5.328  1.3200  1.5515 -0.9257
 8492TIP3    H246892   3.438   4.889   5.269  0.7817 -0.8866  0.9813
 8493TIP3   OH246893   0.588   1.160   0.899 -0.2325  1.0273 -0.1254
 8493TIP3    H146894   0.573   1.178   0.807 -2.5831  2.2132  0.4664
 8493TIP3    H246895   0.657   1.222   0.925  1.8324 -0.6107 -1.4912
 8494TIP3   OH246896   6.748   4.663   0.207  0.6400  0.7419  0.0760
 8494TIP3    H146897   6.700   4.588   0.170  1.9241 -0.1256  0.1425
 8494TIP3    H246898   6.691   4.738   0.189 -1.1002 -0.3520  0.8144
 8495TIP3   OH246899   2.138   3.721   0.408  0.3969 -0.8469  0.3917
 8495TIP3    H146900   2.072   3.747   0.343  0.8924 -0.6935 -0.0562
 8495TIP3    H246901   2.111   3.766   0.488 -0.6469 -1.6380  0.4965
 8496TIP3   OH246902   3.244   5.803   3.823  0.8235 -1.0808 -0.2016
 8496TIP3    H146903   3.255   5.898   3.818  2.2860 -1.2028  0.2992
 8496TIP3    H246904   3.188   5.788   3.899  2.9522 -0.7348  1.4989
 8497TIP3   OH246905   6.694   5.185   5.435  0.0007  0.2128  0.3461
 8497TIP3    H146906   6.770   5.127   5.439  0.1790  0.5478  2.1843
 8497TIP3    H246907   6.626   5.138   5.483 -0.2834  0.8856  0.6079
 8498TIP3   OH246908   6.451   2.431   3.730 -0.8421  0.0862 -0.2648
 8498TIP3    H146909   6.419   2.370   3.797  0.1003 -0.1309 -0.0010
 8498TIP3    H246910   6.480   2.375   3.659  0.2198  0.1992  0.0609
 8499TIP3   OH246911   2.603   3.016  12.740  0.0378 -0.5343  0.0670
 8499TIP3    H146912   2.535   2.967  12.694 -0.4585 -0.0483  0.2689
 8499TIP3    H246913   2.566   3.033  12.826  0.0188  0.5641 -0.1482
 8500TIP3   OH246914   1.068   2.537  13.230  0.0000 -0.7182 -0.4860
 8500TIP3    H146915   0.988   2.506  13.188 -0.2465 -1.0897  0.2527
 8500TIP3    H246916   1.088   2.470  13.295 -0.6648  0.7887  1.3016
 8501TIP3   OH246917   4.813   4.564  11.335  0.3515  0.2395 -0.1370
 8501TIP3    H146918   4.831   4.542  11.243  1.1002 -0.0401  0.0692
 8501TIP3    H246919   4.732   4.614  11.333 -0.6339 -1.3383 -0.7777
 8502TIP3   OH246920   4.103   0.949  12.507  0.4391 -0.5912 -0.1692
 8502TIP3    H146921   4.068   0.968  12.594  0.6869  1.7411 -0.5513
 8502TIP3    H246922   4.032   0.973  12.447  0.5676 -1.4202 -0.6656
 8503TIP3   OH246923   6.235   2.562   3.433 -0.2992  0.1846 -0.0031
 8503TIP3    H146924   6.312   2.534   3.384 -0.1584 -0.8196  0.7570
 8503TIP3    H246925   6.221   2.492   3.498 -1.3370  0.7678  0.4257
 8504TIP3   OH246926   4.321   5.281  12.693  0.0070 -0.2302  0.5372
 8504TIP3    H146927   4.281   5.321  12.771  2.5591  1.6567  0.9337
 8504TIP3    H246928   4.339   5.355  12.635  1.1838 -1.2657 -0.4303
 8505TIP3   OH246929   0.670   3.125  16.552 -0.3417 -1.2556 -0.2187
 8505TIP3    H146930   0.661   3.131  16.647 -2.1386  0.1917 -0.4713
 8505TIP3    H246931   0.605   3.061  16.526 -0.9917 -0.4153 -0.6542
 8506TIP3   OH246932   4.583   2.688  15.237 -0.2889 -0.1621  0.5167
 8506TIP3    H146933   4.611   2.597  15.244 -0.9751 -0.4402 -0.2570
 8506TIP3    H246934   4.629   2.722  15.161  0.4799  0.3381  1.1966
 8507TIP3   OH246935   3.627   0.861  11.035  0.4066 -0.1029  0.9602
 8507TIP3    H146936   3.568   0.853  10.960  0.5187  0.5633  0.7978
 8507TIP3    H246937   3.614   0.780  11.084  1.9332 -1.5593 -0.9209
 8508TIP3   OH246938   6.087   3.699   0.191 -0.3295  0.1428  0.3830
 8508TIP3    H146939   6.091   3.603   0.196  2.0646  0.1921  0.0587
 8508TIP3    H246940   6.127   3.728   0.273  1.1347  0.8485 -0.5600
 8509TIP3   OH246941   6.102   3.275   0.607 -0.3020 -0.2701 -0.4602
 8509TIP3    H146942   6.018   3.244   0.641  0.3507 -1.5307  0.0760
 8509TIP3    H246943   6.138   3.200   0.560  0.5027  0.2762 -0.7310
 8510TIP3   OH246944   0.749   4.171   2.074  0.4931 -0.5704 -0.6864
 8510TIP3    H146945   0.805   4.099   2.104  0.0239 -0.5254  0.3414
 8510TIP3    H246946   0.661   4.143   2.098  0.1042 -0.4816 -1.9729
 8511TIP3   OH246947   2.528   5.500   0.022  0.1773 -0.1902  0.4067
 8511TIP3    H146948   2.467   5.504  -0.051  0.0092  0.4780  0.5841
 8511TIP3    H246949   2.571   5.415   0.013  0.8976  0.3255 -1.0469
 8512TIP3   OH246950   2.529   3.867  13.753  0.4929  0.2123  0.2317
 8512TIP3    H146951   2.575   3.798  13.705  1.2824  0.7336  0.2394
 8512TIP3    H246952   2.441   3.832  13.764  0.1996  0.2325 -1.8728
 8513TIP3   OH246953   0.388   5.200  14.921  0.0138  0.1165  0.6141
 8513TIP3    H146954   0.324   5.207  14.849 -0.1021  1.2846  0.8214
 8513TIP3    H246955   0.457   5.262  14.898 -0.3832  1.0444  1.8695
 8514TIP3   OH246956   0.039   1.303   0.454  0.7178 -0.4863 -0.4609
 8514TIP3    H146957   0.117   1.294   0.399  0.1468  0.5571 -1.4508
 8514TIP3    H246958  -0.022   1.237   0.421  0.9635 -0.9341 -0.0365
 8515TIP3   OH246959   2.122   3.970   5.339  0.4177  0.0480  1.2048
 8515TIP3    H146960   2.048   3.982   5.398  0.4000  1.0177  0.9943
 8515TIP3    H246961   2.192   4.022   5.377  0.4933  0.4462  0.5306
 8516TIP3   OH246962   0.252   1.844   3.831  0.3899 -0.8494  0.2906
 8516TIP3    H146963   0.348   1.847   3.840  0.3356 -0.3171  0.7595
 8516TIP3    H246964   0.220   1.893   3.907 -0.2540 -0.9998  0.1154
 8517TIP3   OH246965   4.501   0.408  13.979 -0.6652 -0.5562  0.0321
 8517TIP3    H146966   4.455   0.325  13.991  0.0558 -0.8765  0.6421
 8517TIP3    H246967   4.594   0.384  13.979 -0.3296  0.5290  2.7492
 8518TIP3   OH246968   6.717   5.535  11.095  0.4842 -0.4230  0.1837
 8518TIP3    H146969   6.779   5.542  11.168  0.1528 -0.3421  0.4575
 8518TIP3    H246970   6.745   5.457  11.047  1.2156  0.0011 -0.0842
 8519TIP3   OH246971   5.012   4.033  11.218  0.6468  0.0960  0.2675
 8519TIP3    H146972   4.983   3.973  11.149 -1.9310  0.9119  0.5641
 8519TIP3    H246973   4.990   4.120  11.183 -1.8637  0.4508  2.5748
 8520TIP3   OH246974   3.469   1.411   5.075 -0.1662 -0.5788 -0.1170
 8520TIP3    H146975   3.401   1.474   5.096  1.3087  1.2394 -0.6290
 8520TIP3    H246976   3.479   1.417   4.980  0.7229 -0.7725 -0.0439
 8521TIP3   OH246977   2.693   5.998   4.982 -0.0472  0.2132 -0.3646
 8521TIP3    H146978   2.763   6.039   4.933 -1.3621  0.8336 -1.7456
 8521TIP3    H246979   2.636   6.070   5.008 -0.6289 -0.3770  0.0102
 8522TIP3   OH246980   4.875   2.770   2.556 -0.1958 -0.1570  0.7516
 8522TIP3    H146981   4.822   2.849   2.565 -1.2464 -0.8356  0.6143
 8522TIP3    H246982   4.892   2.742   2.645 -0.8975 -0.4783  0.7892
 8523TIP3   OH246983   2.914   4.280   4.427  0.1353 -0.2664  0.8629
 8523TIP3    H146984   2.852   4.317   4.364 -0.8595  0.7327  2.3808
 8523TIP3    H246985   2.899   4.186   4.423 -1.5682 -0.0243  1.2780
 8524TIP3   OH246986   4.572   3.351   3.244 -0.0164 -0.0674  0.3901
 8524TIP3    H146987   4.624   3.294   3.301  0.9996  0.2509 -0.1934
 8524TIP3    H246988   4.623   3.356   3.163 -0.8086  0.5133 -0.0759
 8525TIP3   OH246989   2.328   1.520  13.356 -0.4410 -0.3390  0.4395
 8525TIP3    H146990   2.247   1.528  13.406 -1.2521 -2.6679 -0.4017
 8525TIP3    H246991   2.396   1.515  13.422 -0.8413  2.6735  1.1366
 8526TIP3   OH246992   5.530   0.304  15.681  0.4242  0.1025 -0.2235
 8526TIP3    H146993   5.478   0.230  15.648  2.8997 -1.8335 -0.0017
 8526TIP3    H246994   5.588   0.326  15.609 -0.5457  2.0976 -0.4027
 8527TIP3   OH246995   5.197   1.997  15.534  0.3387  0.4625  0.6457
 8527TIP3    H146996   5.217   1.976  15.443  0.5101  0.9644  0.5674
 8527TIP3    H246997   5.225   2.088  15.545 -0.6315  0.7416  0.9092
 8528TIP3   OH246998   4.293   2.033   1.203  0.0746 -0.0619  0.5401
 8528TIP3    H146999   4.348   1.954   1.207  1.7728  1.1076  1.1249
 8528TIP3    H247000   4.310   2.070   1.117  1.4848  1.1445  1.2932
 8529TIP3   OH247001   0.697   3.889  14.776  0.6541  0.6948 -0.5663
 8529TIP3    H147002   0.674   3.978  14.802  1.7486  1.2408 -1.4244
 8529TIP3    H247003   0.697   3.891  14.680 -0.4246 -0.5250 -0.6081
 8530TIP3   OH247004   1.304   2.773   0.081  0.3259 -0.1781 -0.3264
 8530TIP3    H147005   1.324   2.864   0.059  1.4393 -0.3862 -0.1683
 8530TIP3    H247006   1.250   2.780   0.160  2.1087  0.2688  0.8679
 8531TIP3   OH247007   0.285   3.622  15.017 -0.1076  0.1201 -0.4366
 8531TIP3    H147008   0.247   3.698  15.062 -1.6344 -0.0244 -1.4458
 8531TIP3    H247009   0.231   3.548  15.045  0.3397 -0.3159 -0.7281
 8532TIP3   OH247010   4.513   2.768  12.404 -0.5612 -0.1123 -0.1105
 8532TIP3    H147011   4.551   2.696  12.354  0.0342 -0.8854  1.4301
 8532TIP3    H247012   4.566   2.844  12.379  0.8692 -0.8304  0.6503
 8533TIP3   OH247013   1.122   1.844  12.574  0.0096  0.2013  0.5109
 8533TIP3    H147014   1.034   1.838  12.610  0.0080 -0.5160  0.3863
 8533TIP3    H247015   1.172   1.891  12.640 -0.0077 -1.0477  1.4228
 8534TIP3   OH247016   2.487   2.683  13.923  0.2148 -0.3635 -0.0506
 8534TIP3    H147017   2.405   2.648  13.959  0.5157 -1.0783 -0.0481
 8534TIP3    H247018   2.460   2.757  13.870 -0.6117 -1.6287 -1.4393
 8535TIP3   OH247019   5.450   3.056   2.900 -0.3393  1.1828  0.0079
 8535TIP3    H147020   5.406   3.141   2.906 -3.0812  0.0778 -2.6913
 8535TIP3    H247021   5.389   2.994   2.941 -1.1267 -0.2754 -3.1619
 8536TIP3   OH247022   1.741   5.941  15.992 -0.1358  0.1564 -0.9762
 8536TIP3    H147023   1.798   6.017  15.981  0.2251  0.1821  0.9096
 8536TIP3    H247024   1.802   5.868  16.006 -0.5083  0.2603  1.5300
 8537TIP3   OH247025   5.047   1.029   4.800 -0.2467 -0.3252 -0.2662
 8537TIP3    H147026   5.109   1.086   4.755 -0.3169  0.7828  0.9851
 8537TIP3    H247027   4.969   1.083   4.812 -0.7404 -1.0685 -0.0912
 8538TIP3   OH247028   0.124   2.510  11.106  0.3547 -0.2247  0.1732
 8538TIP3    H147029   0.191   2.563  11.149  2.5001 -1.6836 -1.2905
 8538TIP3    H247030   0.133   2.423  11.144 -0.3337 -0.5601 -0.4154
 8539TIP3   OH247031   6.135   4.942  13.744 -0.0084  0.6525  0.0252
 8539TIP3    H147032   6.205   4.985  13.793  0.8421  0.8059 -1.3043
 8539TIP3    H247033   6.167   4.853  13.729  0.3024  0.9954 -1.3750
 8540TIP3   OH247034   4.639   1.111   2.186 -0.1914  0.3351 -0.9645
 8540TIP3    H147035   4.702   1.137   2.119 -0.2914  1.2644 -0.7047
 8540TIP3    H247036   4.628   1.017   2.174  1.4329  0.1222 -0.8541
 8541TIP3   OH247037   4.294   2.701  12.910 -0.2118 -0.5777  0.0516
 8541TIP3    H147038   4.227   2.670  12.849 -0.8226  0.2482  0.2824
 8541TIP3    H247039   4.251   2.699  12.996 -0.1549  0.5235  0.1169
 8542TIP3   OH247040   1.432   4.683   0.329 -0.1210  0.0354  0.3437
 8542TIP3    H147041   1.413   4.719   0.242  0.8883 -0.8878 -0.2723
 8542TIP3    H247042   1.369   4.726   0.387  1.2187  2.9896 -0.3194
 8543TIP3   OH247043   6.503   4.043   3.665 -0.4540  0.5056 -0.7938
 8543TIP3    H147044   6.432   4.096   3.701 -0.4051  1.8421 -2.5903
 8543TIP3    H247045   6.459   3.970   3.621 -0.6464  0.5056 -0.6014
 8544TIP3   OH247046   6.262   1.845   4.722  0.5566 -0.0246 -0.1998
 8544TIP3    H147047   6.239   1.907   4.791  0.8302 -1.0626  0.8619
 8544TIP3    H247048   6.191   1.852   4.658 -1.1348 -0.9645  1.5057
 8545TIP3   OH247049   1.702   0.536   1.616  0.4685  0.0883  0.1362
 8545TIP3    H147050   1.627   0.504   1.666 -0.5354 -0.3613 -1.6219
 8545TIP3    H247051   1.738   0.607   1.670 -1.2942  0.3930  0.9511
 8546TIP3   OH247052   0.743   1.048   2.652 -0.0043  0.6353 -0.7276
 8546TIP3    H147053   0.730   0.962   2.690 -0.2031 -0.1777 -2.5679
 8546TIP3    H247054   0.732   1.109   2.725  1.5173 -0.9477  0.8704
 8547TIP3   OH247055   1.568   6.433   1.631 -0.0531  0.5577 -0.3655
 8547TIP3    H147056   1.495   6.433   1.692 -0.1483  0.3361 -0.4799
 8547TIP3    H247057   1.552   6.510   1.575 -1.4933 -0.8337 -1.9338
 8548TIP3   OH247058   2.751   4.697   1.379 -0.0050  0.5335  0.3714
 8548TIP3    H147059   2.808   4.690   1.302 -1.4657  1.0817 -0.7783
 8548TIP3    H247060   2.761   4.613   1.424 -1.0502 -0.7902 -1.7866
 8549TIP3   OH247061   3.519   1.971  15.568  0.7718 -0.1789 -0.1272
 8549TIP3    H147062   3.518   1.892  15.621 -0.8525  0.0411  0.2119
 8549TIP3    H247063   3.542   1.941  15.480 -1.0808 -1.2241 -0.2765
 8550TIP3   OH247064   6.188   2.709  16.679  0.2090  0.5556 -0.0922
 8550TIP3    H147065   6.201   2.618  16.706 -1.2421  0.1662 -0.6277
 8550TIP3    H247066   6.095   2.713  16.656  0.8237  1.5203 -2.5367
 8551TIP3   OH247067   0.193   2.099   3.401  0.2062  0.0841 -0.3477
 8551TIP3    H147068   0.119   2.153   3.425  0.7968  0.5725  0.4057
 8551TIP3    H247069   0.180   2.017   3.449 -0.3389 -0.1939 -0.9662
 8552TIP3   OH247070   4.330   6.782   5.158 -0.1949  0.4088 -0.3278
 8552TIP3    H147071   4.251   6.729   5.158 -0.3705  0.6657  0.1200
 8552TIP3    H247072   4.383   6.747   5.086 -1.1462  0.8799 -1.2653
 8553TIP3   OH247073   3.003   6.471   1.093 -0.4693  0.1002 -0.1147
 8553TIP3    H147074   2.970   6.382   1.087  0.0260  0.0403 -2.2266
 8553TIP3    H247075   2.941   6.517   1.149  0.0081 -1.8984  2.1303
 8554TIP3   OH247076   3.629   1.144  11.013 -0.1357 -0.2756 -0.2322
 8554TIP3    H147077   3.637   1.050  11.026  1.3647  0.0760  1.8354
 8554TIP3    H247078   3.712   1.170  10.973  0.0776  0.3391  0.5759
 8555TIP3   OH247079   3.494   0.456  14.387  0.6490  0.3148  0.1793
 8555TIP3    H147080   3.515   0.489  14.474 -0.5201  0.2802  0.4726
 8555TIP3    H247081   3.552   0.506  14.328  2.6338 -0.8242  1.1011
 8556TIP3   OH247082   6.384   6.706  14.158  0.0071 -0.0586 -1.0384
 8556TIP3    H147083   6.442   6.752  14.098 -0.2439  0.0953 -1.1633
 8556TIP3    H247084   6.419   6.724  14.245  0.3141 -0.2038 -1.1302
 8557TIP3   OH247085   0.361   2.078  15.293  0.0845  0.6568 -0.5901
 8557TIP3    H147086   0.287   2.045  15.344  0.1334  2.6996  0.8539
 8557TIP3    H247087   0.322   2.145  15.236  0.6059  0.8487 -0.7212
 8558TIP3   OH247088   3.947   2.528   3.581 -0.5158 -0.2248  0.8568
 8558TIP3    H147089   4.012   2.496   3.644 -2.2157 -2.2181  1.6692
 8558TIP3    H247090   3.981   2.612   3.552  2.9122 -1.6321  0.5432
 8559TIP3   OH247091   2.214   3.813   2.250  0.2895  0.0990  0.2709
 8559TIP3    H147092   2.171   3.894   2.223  0.1314 -0.3928 -1.0015
 8559TIP3    H247093   2.196   3.752   2.179  2.9660 -0.1720 -0.2299
 8560TIP3   OH247094   4.050   6.239  13.878  0.2088 -0.4171 -0.4621
 8560TIP3    H147095   4.022   6.153  13.846 -0.5439 -0.5710  0.5413
 8560TIP3    H247096   3.985   6.300  13.843 -1.5087 -0.7767  1.8912
 8561TIP3   OH247097   6.220   4.927   2.206 -0.1395 -0.0207  0.1887
 8561TIP3    H147098   6.262   5.011   2.188 -3.0109  1.6581  0.8172
 8561TIP3    H247099   6.186   4.937   2.296 -0.1242 -2.0160  0.4258
 8562TIP3   OH247100   4.987   4.581  11.906  0.9088 -0.7562  0.0509
 8562TIP3    H147101   4.899   4.563  11.937  0.6318 -0.2842 -0.4515
 8562TIP3    H247102   4.975   4.622  11.820  1.5406  1.2551  0.8853
 8563TIP3   OH247103   4.935   0.051   2.402 -0.2648 -0.0537  0.7183
 8563TIP3    H147104   4.903   0.006   2.324 -0.3365  1.5679 -0.1980
 8563TIP3    H247105   5.002   0.111   2.370 -0.1827  0.5162  1.9279
 8564TIP3   OH247106   2.083   4.124   2.353  0.5124 -0.1343  0.2225
 8564TIP3    H147107   2.100   4.111   2.260 -0.0882  1.0296 -0.0676
 8564TIP3    H247108   1.997   4.167   2.356 -0.1985 -1.5931  1.4020
 8565TIP3   OH247109   0.917   6.445   5.557  0.0790 -0.1506  0.3212
 8565TIP3    H147110   0.860   6.373   5.529 -0.1812 -0.2158  1.0060
 8565TIP3    H247111   0.925   6.434   5.652  2.6914 -1.1869  0.0197
 8566TIP3   OH247112   1.928   2.454   3.321  0.0773  0.5116  0.1366
 8566TIP3    H147113   1.887   2.382   3.370 -0.7217  0.7697 -0.1418
 8566TIP3    H247114   2.004   2.478   3.373  1.7284 -2.1286 -0.9906
 8567TIP3   OH247115   0.707   1.111  13.427 -0.5256 -0.6533  0.4882
 8567TIP3    H147116   0.732   1.042  13.366 -1.0974  0.1913 -0.7248
 8567TIP3    H247117   0.759   1.094  13.506  1.9018 -0.4708 -1.0290
 8568TIP3   OH247118   5.564   0.315   1.222  0.2936 -0.1026 -0.2849
 8568TIP3    H147119   5.588   0.379   1.289  1.3344 -1.8225  1.0306
 8568TIP3    H247120   5.478   0.283   1.251  0.7865 -0.9140  0.2765
 8569TIP3   OH247121   4.112   5.013  16.124  0.3836 -0.2868  0.6055
 8569TIP3    H147122   4.093   4.980  16.211  0.1068 -0.3380  0.5255
 8569TIP3    H247123   4.125   4.934  16.070 -1.8102 -0.3047  0.0698
 8570TIP3   OH247124   2.688   0.664  14.448  0.0103  0.3792 -0.7628
 8570TIP3    H147125   2.754   0.600  14.473  1.0399  1.2726 -1.1265
 8570TIP3    H247126   2.616   0.650  14.510  0.8256 -0.1512  0.0777
 8571TIP3   OH247127   2.296   1.487   4.990  0.2089  0.3692  0.5101
 8571TIP3    H147128   2.265   1.415   5.045 -0.3857 -0.5899 -1.0374
 8571TIP3    H247129   2.377   1.516   5.031 -0.3717 -0.1498  2.0368
 8572TIP3   OH247130   0.124   5.017   6.168 -0.4070  0.0854  0.1476
 8572TIP3    H147131   0.164   5.055   6.090 -0.0319  1.1150  0.8348
 8572TIP3    H247132   0.031   5.013   6.148 -0.4374  1.2796  0.0244
 8573TIP3   OH247133   0.994   4.165   1.491  0.1092  0.2031 -0.2246
 8573TIP3    H147134   0.987   4.259   1.479 -1.3119 -0.2686 -3.6905
 8573TIP3    H247135   1.066   4.139   1.434 -0.8166 -1.0651 -0.8403
 8574TIP3   OH247136   0.900   0.719   4.265 -0.7757 -0.0385  0.4582
 8574TIP3    H147137   0.873   0.775   4.192  0.5724 -1.5864 -1.2902
 8574TIP3    H247138   0.844   0.642   4.259  0.0989 -0.6767  0.3463
 8575TIP3   OH247139   4.325   3.897   3.553  0.6566  0.0802  0.5310
 8575TIP3    H147140   4.346   3.981   3.594 -0.7886 -0.7314  2.9943
 8575TIP3    H247141   4.329   3.833   3.624 -0.4781 -1.6123 -0.8716
 8576TIP3   OH247142   1.454   3.581   4.043 -0.2405 -0.2116  0.1037
 8576TIP3    H147143   1.408   3.577   4.127  1.6335  0.1414  1.1694
 8576TIP3    H247144   1.385   3.595   3.979 -1.6450  0.1242  1.6541
 8577TIP3   OH247145   4.896   0.743   6.595 -0.3562  0.2421  0.3508
 8577TIP3    H147146   4.988   0.717   6.601 -0.4164  0.0392  0.4065
 8577TIP3    H247147   4.852   0.664   6.563 -0.9228 -0.5532  2.9925
 8578TIP3   OH247148   0.213   2.616   4.189 -0.1283 -0.0571  0.2403
 8578TIP3    H147149   0.169   2.696   4.218  0.9927  0.4669  0.5026
 8578TIP3    H247150   0.176   2.547   4.245  0.6538  0.6595  1.6811
 8579TIP3   OH247151   2.365   5.680   2.155  0.1907 -0.3312  0.0185
 8579TIP3    H147152   2.390   5.589   2.138  1.6432 -0.2769  1.6658
 8579TIP3    H247153   2.447   5.724   2.178 -0.9576  0.5880  2.5510
 8580TIP3   OH247154   1.979   3.983   0.982 -0.3181 -0.3815 -0.0187
 8580TIP3    H147155   1.934   4.065   1.006  0.3913  0.6070 -1.9258
 8580TIP3    H247156   1.945   3.963   0.894  1.3542 -0.7990 -0.5748
 8581TIP3   OH247157   3.035   2.868  15.238 -0.8027 -0.1615 -0.4930
 8581TIP3    H147158   3.107   2.907  15.188 -0.8660 -1.1766 -1.3982
 8581TIP3    H247159   3.016   2.932  15.307  0.2863  0.5767 -0.8633
 8582TIP3   OH247160   3.836   6.668  13.603 -0.5245  0.3664 -0.1938
 8582TIP3    H147161   3.787   6.612  13.663 -0.4686  0.0986 -0.3985
 8582TIP3    H247162   3.808   6.757  13.625 -0.0672  0.3087  0.6175
 8583TIP3   OH247163   0.998   5.432   2.754 -0.3744 -0.7155 -0.1443
 8583TIP3    H147164   0.974   5.522   2.731  0.8542  0.2212  2.0917
 8583TIP3    H247165   0.916   5.393   2.786 -1.1660 -0.7657 -2.1980
 8584TIP3   OH247166   3.607   3.131  13.914  0.2283 -0.1602 -0.4690
 8584TIP3    H147167   3.578   3.188  13.985  0.8418 -1.3906  0.7911
 8584TIP3    H247168   3.556   3.051  13.925  2.4233 -1.4798  0.3926
 8585TIP3   OH247169   2.780   5.073  11.998  0.0770 -0.4250  0.4568
 8585TIP3    H147170   2.716   5.116  11.941  0.5699 -0.3258 -0.0219
 8585TIP3    H247171   2.733   5.059  12.081 -0.5474 -0.3148  0.1206
 8586TIP3   OH247172   6.573   3.455  17.082 -0.1002  0.3029 -0.4993
 8586TIP3    H147173   6.553   3.374  17.035  2.2365  0.2795 -1.4950
 8586TIP3    H247174   6.591   3.519  17.013  0.1077  1.1519  0.3302
 8587TIP3   OH247175   3.157   5.412   1.629 -0.3496  0.1371  0.1897
 8587TIP3    H147176   3.221   5.343   1.645  0.1553  0.5922  0.1360
 8587TIP3    H247177   3.173   5.440   1.539 -0.6954  0.1801  0.1405
 8588TIP3   OH247178   3.494   3.755   3.857 -0.1865 -0.5777 -0.8297
 8588TIP3    H147179   3.440   3.684   3.824 -5.5606  2.4248  0.8166
 8588TIP3    H247180   3.524   3.801   3.779 -2.9711 -0.3531 -1.8111
 8589TIP3   OH247181   3.561   2.402  13.328 -0.7250 -0.9903  0.3125
 8589TIP3    H147182   3.472   2.436  13.329  0.1294  1.4065 -1.0906
 8589TIP3    H247183   3.554   2.315  13.290 -2.5659 -1.1480  0.9870
 8590TIP3   OH247184   4.052   4.057  14.761 -0.7536  0.0386 -0.0182
 8590TIP3    H147185   4.040   3.965  14.739  0.4630 -0.4145  1.0983
 8590TIP3    H247186   3.983   4.076  14.825  0.6427 -0.8779  1.8172
 8591TIP3   OH247187   2.127   6.101  14.995 -0.3847 -0.2072 -0.0261
 8591TIP3    H147188   2.098   6.152  15.071 -0.4261 -0.3834  0.0744
 8591TIP3    H247189   2.221   6.089  15.009 -0.1430  0.8494 -0.6340
 8592TIP3   OH247190   5.703   5.817   1.194  0.0186  0.6944 -0.0563
 8592TIP3    H147191   5.634   5.883   1.184  0.1308  1.0609  1.4386
 8592TIP3    H247192   5.735   5.830   1.283  2.3380  0.8113 -0.8902
 8593TIP3   OH247193   0.834   2.738   4.501 -0.3751 -0.0769 -0.1037
 8593TIP3    H147194   0.805   2.757   4.590  1.4462 -3.6466  1.3382
 8593TIP3    H247195   0.917   2.785   4.493  0.2597 -1.0506  0.6735
 8594TIP3   OH247196   3.728   5.240  14.333 -0.2853  0.1246  0.3515
 8594TIP3    H147197   3.671   5.190  14.392 -0.1561 -0.8467 -0.3262
 8594TIP3    H247198   3.670   5.272  14.265 -0.4494  1.3220  1.0301
 8595TIP3   OH247199   3.025   4.133  16.597  0.4177 -0.5121  0.0920
 8595TIP3    H147200   3.049   4.221  16.568 -0.5730  0.0113  0.8178
 8595TIP3    H247201   3.011   4.084  16.516 -0.5079  0.4194 -0.3340
 8596TIP3   OH247202   1.758   4.333   2.274  0.1648  0.1016 -0.4904
 8596TIP3    H147203   1.762   4.251   2.226 -0.6106  1.0397 -2.2051
 8596TIP3    H247204   1.665   4.349   2.289  0.3995 -0.4399  1.8626
 8597TIP3   OH247205   2.643   4.964   4.533 -0.2635  0.4086 -0.6863
 8597TIP3    H147206   2.687   4.963   4.618 -1.3829  1.9223 -0.0728
 8597TIP3    H247207   2.676   5.043   4.490 -0.2328  0.0194 -1.3886
 8598TIP3   OH247208   2.955   0.637   2.710 -0.1114 -0.3667  0.1206
 8598TIP3    H147209   2.893   0.641   2.783  1.2863 -0.1364  1.3193
 8598TIP3    H247210   2.903   0.663   2.633 -1.1448  1.2094  1.3222
 8599TIP3   OH247211   3.392   1.346  14.820 -0.7470  0.0786 -0.3978
 8599TIP3    H147212   3.473   1.295  14.824 -1.1464 -0.3949  2.0877
 8599TIP3    H247213   3.349   1.316  14.740  0.5600 -1.0981 -0.6836
 8600TIP3   OH247214   0.385   5.166  15.911  0.1441  0.1497 -0.2440
 8600TIP3    H147215   0.395   5.136  15.820 -1.3158 -0.5749 -0.1847
 8600TIP3    H247216   0.330   5.244  15.905  1.4610  1.1092 -0.1191
 8601TIP3   OH247217   1.225   6.128  12.618  0.3687  0.3531  0.3070
 8601TIP3    H147218   1.304   6.176  12.593 -0.6386  0.4208 -3.0977
 8601TIP3    H247219   1.242   6.038  12.590 -0.7242  0.3784 -0.4938
 8602TIP3   OH247220   5.072   0.121   4.989 -0.4449 -0.3180 -0.2549
 8602TIP3    H147221   5.166   0.105   4.977 -0.4969 -1.1220  0.2866
 8602TIP3    H247222   5.043   0.162   4.908  0.1890 -0.9378 -0.8007
 8603TIP3   OH247223   3.021   1.625   6.690 -0.1184 -0.3246  0.4488
 8603TIP3    H147224   2.995   1.533   6.690 -0.3064 -0.2720  0.3731
 8603TIP3    H247225   3.048   1.642   6.600  3.5174 -1.3104  1.2760
 8604TIP3   OH247226   5.568   1.788   0.444  0.1322  0.1001 -0.2058
 8604TIP3    H147227   5.495   1.819   0.390  0.2621  1.2527  0.2666
 8604TIP3    H247228   5.641   1.779   0.383  0.0625  0.6251 -0.3692
 8605TIP3   OH247229   4.222   5.117  13.149 -0.0430 -0.7070  0.6948
 8605TIP3    H147230   4.282   5.174  13.101 -1.6297 -0.4659 -1.0599
 8605TIP3    H247231   4.197   5.169  13.226  1.2063 -0.4285  0.9305
 8606TIP3   OH247232   0.992   6.717  15.745  0.1250  0.3521 -0.2095
 8606TIP3    H147233   0.957   6.799  15.779  0.5412  1.0030 -1.3009
 8606TIP3    H247234   0.972   6.719  15.651 -1.4301 -1.6155  0.0379
 8607TIP3   OH247235   0.031   6.233  11.911  0.0230 -0.2967 -0.3934
 8607TIP3    H147236   0.119   6.259  11.939  0.2740  0.0306 -1.4702
 8607TIP3    H247237  -0.024   6.307  11.935  0.3792  0.3386 -1.4946
 8608TIP3   OH247238   4.616   4.070  12.578  0.7332 -0.2121 -0.0353
 8608TIP3    H147239   4.621   4.144  12.517  0.5595 -1.2048 -1.2664
 8608TIP3    H247240   4.553   4.010  12.538  0.0865 -0.5636  1.4687
 8609TIP3   OH247241   3.662   3.736   6.001 -0.0948 -0.2330 -0.0281
 8609TIP3    H147242   3.673   3.667   5.935  0.1006 -0.4169  0.1963
 8609TIP3    H247243   3.751   3.756   6.029 -0.1279  0.3759 -0.3658
 8610TIP3   OH247244   5.124   4.883  16.837 -0.1624 -0.5851 -0.1511
 8610TIP3    H147245   5.133   4.940  16.914 -0.5253 -0.8942  0.1218
 8610TIP3    H247246   5.214   4.863  16.813 -0.0339 -0.0923 -0.1019
 8611TIP3   OH247247   0.332   1.280   5.711  0.4213 -0.2984  0.5104
 8611TIP3    H147248   0.385   1.209   5.748  2.6206  0.1880 -1.5552
 8611TIP3    H247249   0.304   1.331   5.787  0.4108 -2.2741  1.8825
 8612TIP3   OH247250   2.022   6.256   5.486 -0.2511  0.0561  0.0276
 8612TIP3    H147251   1.943   6.256   5.431  1.0691  1.9744 -1.9587
 8612TIP3    H247252   2.094   6.246   5.425  1.2040  1.1225  1.5218
 8613TIP3   OH247253   1.275   2.716  12.184  0.4532 -0.2710 -0.3307
 8613TIP3    H147254   1.345   2.707  12.250 -0.3532 -1.5059  0.3635
 8613TIP3    H247255   1.321   2.708  12.100  1.4579  1.0757  0.0636
 8614TIP3   OH247256   3.760   1.687  11.149 -0.2648 -0.1203 -0.5425
 8614TIP3    H147257   3.671   1.706  11.120 -0.0045  1.2649 -0.4387
 8614TIP3    H247258   3.811   1.680  11.068 -0.7810 -2.6630 -0.7002
 8615TIP3   OH247259   5.660   5.359   2.543  0.2708 -0.2930  0.0747
 8615TIP3    H147260   5.649   5.453   2.554 -0.6086 -0.3291 -0.4295
 8615TIP3    H247261   5.571   5.324   2.548  0.2199 -0.7469 -2.8965
 8616TIP3   OH247262   3.521   4.983  15.578  0.2724  0.8673 -0.2109
 8616TIP3    H147263   3.578   4.924  15.528  0.8119  2.1761 -1.1785
 8616TIP3    H247264   3.460   4.924  15.624  1.2246 -0.4648 -0.6107
 8617TIP3   OH247265   3.064   2.849   3.049 -0.0443  0.1881 -0.8522
 8617TIP3    H147266   3.108   2.885   3.126 -1.7342 -0.2025  0.3080
 8617TIP3    H247267   3.135   2.837   2.986  1.5174 -0.3648  0.9477
 8618TIP3   OH247268   1.350   4.371   6.080  0.0524 -0.2652 -0.3419
 8618TIP3    H147269   1.297   4.319   6.140 -0.9899  0.2444 -0.8077
 8618TIP3    H247270   1.297   4.379   6.001  0.3930  1.0954 -0.4524
 8619TIP3   OH247271   1.795   4.216   5.833  0.2445 -0.4317  0.0004
 8619TIP3    H147272   1.748   4.269   5.898 -2.3488 -2.4000 -0.2030
 8619TIP3    H247273   1.853   4.278   5.790  0.0476  1.4762  2.3482
 8620TIP3   OH247274   3.868   6.626   5.750 -0.0577  0.1939 -0.0545
 8620TIP3    H147275   3.819   6.708   5.741  3.2363  2.5309  2.3736
 8620TIP3    H247276   3.824   6.579   5.820 -0.3889  1.0758  0.3329
 8621TIP3   OH247277   5.323   5.139   4.357 -0.4705 -0.2475  0.1517
 8621TIP3    H147278   5.307   5.052   4.318 -2.3089  0.7073 -1.3196
 8621TIP3    H247279   5.252   5.193   4.323 -0.0082  1.5553  2.0005
 8622TIP3   OH247280   4.897   4.443   0.088  0.1061 -0.1277  0.1145
 8622TIP3    H147281   4.812   4.440   0.044  0.8066  1.7916 -1.4504
 8622TIP3    H247282   4.934   4.356   0.075 -1.0336 -0.5489 -0.3685
 8623TIP3   OH247283   5.946   2.807   5.552  0.2766 -0.2204  0.4319
 8623TIP3    H147284   5.877   2.815   5.486  1.2793  0.6498 -0.5258
 8623TIP3    H247285   5.967   2.897   5.576  0.9527 -0.4875  0.8462
 8624TIP3   OH247286   1.387   2.218   5.612 -0.2026 -0.6794 -0.1515
 8624TIP3    H147287   1.428   2.293   5.569  0.0330 -1.6935 -1.7495
 8624TIP3    H247288   1.443   2.199   5.687  1.3647 -1.0572 -1.3977
 8625TIP3   OH247289   3.547   0.822   5.031 -0.6192  0.0620 -0.3060
 8625TIP3    H147290   3.588   0.843   5.115  1.2813 -0.3446 -1.0983
 8625TIP3    H247291   3.571   0.895   4.974 -2.4298  0.6438 -0.3296
 8626TIP3   OH247292   4.244   0.137  17.110 -0.7003 -0.5475 -0.4380
 8626TIP3    H147293   4.314   0.127  17.175 -0.5541 -3.5412 -0.9935
 8626TIP3    H247294   4.289   0.168  17.031 -0.6013  1.2359  0.2847
 8627TIP3   OH247295   1.439   6.275   4.130  0.1961 -0.2762  0.1630
 8627TIP3    H147296   1.450   6.351   4.074 -1.8433  1.0674  1.5283
 8627TIP3    H247297   1.504   6.212   4.098  1.5913  1.8388 -1.2752
 8628TIP3   OH247298   6.117   5.949  11.292  1.1288 -0.8768  0.5784
 8628TIP3    H147299   6.127   5.962  11.386  0.1427  1.3421  0.4068
 8628TIP3    H247300   6.189   5.999  11.253  0.6787 -0.5840  0.1042
 8629TIP3   OH247301   3.120   1.455  14.716  0.2131  0.2243 -0.2577
 8629TIP3    H147302   3.056   1.436  14.785 -1.7937 -0.2816 -2.1838
 8629TIP3    H247303   3.139   1.370  14.677  1.6943  0.4466 -0.0332
 8630TIP3   OH247304   2.830   4.903   3.859  0.5409  0.1729  0.4187
 8630TIP3    H147305   2.896   4.835   3.860 -0.1654 -0.5871 -2.1039
 8630TIP3    H247306   2.751   4.860   3.891  1.1751  1.0477  3.3094
 8631TIP3   OH247307   5.437   4.464  13.447  1.0396  0.0313 -0.2843
 8631TIP3    H147308   5.355   4.471  13.496  0.8356 -2.7890 -0.1502
 8631TIP3    H247309   5.471   4.553  13.445 -1.4539  1.0464  0.6503
 8632TIP3   OH247310   4.571   3.916  12.117 -0.3096 -0.5885  0.4458
 8632TIP3    H147311   4.656   3.931  12.159  0.2624  0.8786 -1.1602
 8632TIP3    H247312   4.593   3.900  12.025 -1.7879 -0.1333  0.0090
 8633TIP3   OH247313   0.291   2.944  15.725 -0.1069 -0.6208 -0.2437
 8633TIP3    H147314   0.368   2.980  15.770 -0.8506  0.6167  0.0563
 8633TIP3    H247315   0.283   2.855  15.759 -0.4192  0.1558  1.7748
 8634TIP3   OH247316   1.174   2.622   3.761 -0.1463  0.3849  0.6790
 8634TIP3    H147317   1.210   2.638   3.849 -0.2161  2.1233  0.3890
 8634TIP3    H247318   1.082   2.601   3.777 -0.4820  2.0298  0.9119
 8635TIP3   OH247319   2.709   3.555  13.009  0.4707  0.9295 -0.4070
 8635TIP3    H147320   2.686   3.533  12.919  0.1647  3.2864 -0.9412
 8635TIP3    H247321   2.625   3.568  13.053  0.5182 -2.6094  0.9313
 8636TIP3   OH247322   4.760   4.040   4.344 -0.0805 -0.5252 -0.4715
 8636TIP3    H147323   4.807   4.030   4.427  1.3000  1.2016 -1.0073
 8636TIP3    H247324   4.829   4.044   4.277 -0.9263  2.2574 -1.2541
 8637TIP3   OH247325   5.300   0.886  13.100  0.7970  0.1806 -0.2853
 8637TIP3    H147326   5.278   0.906  13.009  1.1731  0.6142 -0.2795
 8637TIP3    H247327   5.236   0.934  13.152  0.1653 -0.5923 -0.3328
 8638TIP3   OH247328   3.337   3.152  14.315  0.5090 -0.2569 -0.3945
 8638TIP3    H147329   3.334   3.075  14.259 -0.4637 -1.0405  0.7059
 8638TIP3    H247330   3.246   3.166  14.341  0.9671 -0.0190  1.1283
 8639TIP3   OH247331   6.077   3.923  14.768  0.0073 -0.2824 -0.3655
 8639TIP3    H147332   6.067   3.972  14.686  0.5075  0.9356  0.2732
 8639TIP3    H247333   6.163   3.951  14.801  0.1295 -1.3264  0.1994
 8640TIP3   OH247334   6.334   6.031   3.379 -0.2065  0.0126  0.2304
 8640TIP3    H147335   6.272   5.958   3.379 -1.4771  1.0405  2.3153
 8640TIP3    H247336   6.399   6.007   3.313 -0.3159 -3.2402  1.2161
 8641TIP3   OH247337   2.250   5.647  11.612  0.4687  0.0197 -0.0795
 8641TIP3    H147338   2.304   5.659  11.534  1.5881  0.6936  0.7708
 8641TIP3    H247339   2.294   5.700  11.679 -0.6385 -0.3142  0.9219
 8642TIP3   OH247340   4.654   5.651  13.224 -0.3462  0.5558 -0.3426
 8642TIP3    H147341   4.565   5.652  13.261 -0.6372 -0.6669 -1.0034
 8642TIP3    H247342   4.640   5.656  13.130  0.0993 -4.0403 -0.7249
 8643TIP3   OH247343   6.380   2.453   5.345 -0.4648 -0.0497  0.9966
 8643TIP3    H147344   6.459   2.412   5.309 -0.6164 -0.8559  1.5686
 8643TIP3    H247345   6.358   2.399   5.421 -3.1505 -1.4869 -0.7086
 8644TIP3   OH247346   5.529   0.827   3.241  0.4518  0.0473 -0.6709
 8644TIP3    H147347   5.462   0.838   3.309 -0.2787 -1.8993 -1.0503
 8644TIP3    H247348   5.485   0.854   3.160  0.5533  0.0612 -0.7210
 8645TIP3   OH247349   5.211   3.293  13.672 -0.4370 -0.0038  0.0990
 8645TIP3    H147350   5.225   3.252  13.586  0.1903 -2.3191  1.2660
 8645TIP3    H247351   5.169   3.224  13.724 -1.8554  1.7563  1.3204
 8646TIP3   OH247352   2.530   5.936   0.884  0.8817 -0.6061  0.1838
 8646TIP3    H147353   2.445   5.963   0.919  0.8288  0.0030 -0.4200
 8646TIP3    H247354   2.565   6.014   0.842  2.1632 -0.5970  1.2296
 8647TIP3   OH247355   3.053   2.612  16.049 -0.4659  0.3382 -0.0664
 8647TIP3    H147356   3.125   2.670  16.073 -1.0881  1.0434  0.1054
 8647TIP3    H247357   3.000   2.604  16.128  0.5529 -1.8648  0.4249
 8648TIP3   OH247358   0.494   3.713  17.107 -0.6035 -0.3604 -0.6327
 8648TIP3    H147359   0.476   3.807  17.104 -0.7142 -0.3686 -0.2559
 8648TIP3    H247360   0.548   3.696  17.030  1.5343  0.4618  0.6393
 8649TIP3   OH247361   6.247   4.664  11.499 -0.3297 -0.1050  0.0791
 8649TIP3    H147362   6.189   4.718  11.445 -1.7358 -0.5290  1.1246
 8649TIP3    H247363   6.203   4.579  11.503  1.1691 -0.9301 -0.4116
 8650TIP3   OH247364   5.955   5.874  14.221 -0.4413  0.5543 -0.0536
 8650TIP3    H147365   5.912   5.951  14.182  0.3545  1.1362  0.1951
 8650TIP3    H247366   6.038   5.867  14.173 -1.2527 -1.1993 -1.2680
 8651TIP3   OH247367   5.545   2.140  12.068 -0.0197 -0.6836  0.1168
 8651TIP3    H147368   5.467   2.135  12.124  0.0159 -0.1688  0.2142
 8651TIP3    H247369   5.516   2.191  11.993  0.2551 -0.4157  0.1964
 8652TIP3   OH247370   0.126   2.733  15.973 -0.1969 -0.0005  0.4490
 8652TIP3    H147371   0.200   2.793  15.967  0.3639 -0.6955  0.2978
 8652TIP3    H247372   0.158   2.660  16.026 -0.0570 -1.3248 -1.4009
 8653TIP3   OH247373   6.125   2.320   2.277 -0.1789  0.1595 -1.0421
 8653TIP3    H147374   6.151   2.229   2.266 -1.4878 -0.5038  1.0221
 8653TIP3    H247375   6.203   2.363   2.313  0.5294 -0.0698 -2.2979
 8654TIP3   OH247376   4.744   1.263  15.823 -0.2004 -0.3892 -0.0510
 8654TIP3    H147377   4.651   1.256  15.846 -0.3567 -1.4405 -0.9453
 8654TIP3    H247378   4.745   1.312  15.741  0.0934  0.2820  0.3513
 8655TIP3   OH247379   0.809   5.425   3.767  0.3006  0.3860  0.2803
 8655TIP3    H147380   0.824   5.339   3.806  3.8627 -0.1873 -2.0966
 8655TIP3    H247381   0.723   5.419   3.727  0.6551 -2.2268 -0.1612
 8656TIP3   OH247382   3.080   0.611   1.674  0.0620  0.1466 -0.1533
 8656TIP3    H147383   3.044   0.694   1.644 -0.2840 -0.4146 -1.3116
 8656TIP3    H247384   3.049   0.546   1.610  1.4055 -0.6646 -0.0117
 8657TIP3   OH247385   6.037   4.794  10.456  0.2505 -0.1853 -0.5179
 8657TIP3    H147386   6.103   4.768  10.520  0.7209  2.1465 -0.0324
 8657TIP3    H247387   5.954   4.791  10.504  0.3499 -0.3817 -0.3576
 8658TIP3   OH247388   4.335   5.578   0.170 -0.6025 -0.6720  0.2768
 8658TIP3    H147389   4.295   5.544   0.090 -1.2343 -0.2218  0.4049
 8658TIP3    H247390   4.336   5.673   0.158 -0.6374 -0.6083  0.7777
 8659TIP3   OH247391   5.316   1.970  15.951  0.3626  0.1540 -0.5517
 8659TIP3    H147392   5.274   2.049  15.917  0.1713  0.7161  0.9752
 8659TIP3    H247393   5.247   1.903  15.947  0.3714  0.1924 -1.3544
 8660TIP3   OH247394   6.784   0.977  13.471 -0.2649 -0.4609 -0.3819
 8660TIP3    H147395   6.841   0.989  13.546 -0.9391  1.5084 -0.1650
 8660TIP3    H247396   6.695   0.991  13.505 -0.6602 -0.6911 -1.2966
 8661TIP3   OH247397   6.512   1.432   0.796  0.5988  0.4933  0.7015
 8661TIP3    H147398   6.607   1.439   0.787  0.5553  0.5544  0.3084
 8661TIP3    H247399   6.477   1.490   0.729  0.2579 -2.9794 -2.3379
 8662TIP3   OH247400   0.869   1.124   1.968  0.1059 -0.3359  0.3190
 8662TIP3    H147401   0.848   1.127   2.061  0.6649  4.3722  0.4442
 8662TIP3    H247402   0.787   1.102   1.925 -0.6641 -0.4607  1.8149
 8663TIP3   OH247403   6.636   2.465   0.563  0.4642 -0.3244  0.3743
 8663TIP3    H147404   6.582   2.531   0.521 -0.6766 -1.0626  0.6706
 8663TIP3    H247405   6.599   2.381   0.535  2.7745 -0.8798 -1.1513
 8664TIP3   OH247406   2.134   0.678  16.552 -0.1552  0.3362  0.0086
 8664TIP3    H147407   2.173   0.739  16.615  1.6121 -0.7716 -0.0048
 8664TIP3    H247408   2.202   0.614  16.534 -1.3639 -0.5854 -1.4302
 8665TIP3   OH247409   1.595   1.585  17.193  0.2055 -0.2496 -0.3729
 8665TIP3    H147410   1.505   1.553  17.196  0.6676 -1.4726  1.2591
 8665TIP3    H247411   1.645   1.513  17.155  0.6691  0.0102 -0.2544
 8666TIP3   OH247412   6.396   0.947   2.747 -0.5456  0.3774  0.0392
 8666TIP3    H147413   6.379   0.886   2.675 -0.5197 -1.6525  1.7009
 8666TIP3    H247414   6.343   1.024   2.726 -0.5716 -0.1964 -2.1112
 8667TIP3   OH247415   0.969   5.085  12.684  0.2969  0.0697  0.5086
 8667TIP3    H147416   1.004   5.150  12.623  0.0366  0.7543  1.0772
 8667TIP3    H247417   0.997   5.116  12.770  0.5778 -0.8365  0.7488
 8668TIP3   OH247418   1.997   6.115  16.518 -0.3170  0.3452  0.2193
 8668TIP3    H147419   1.988   6.153  16.605  0.6659  0.8086  0.1209
 8668TIP3    H247420   2.053   6.039  16.530 -1.7762 -0.7511  0.3078
 8669TIP3   OH247421   3.904   3.175  13.138  0.6509  0.3811  0.0015
 8669TIP3    H147422   3.917   3.090  13.180  0.1353 -0.2358 -1.0604
 8669TIP3    H247423   3.946   3.238  13.197  0.3373 -0.5151  1.2038
 8670TIP3   OH247424   4.276   2.516   6.647  0.0893 -0.1409 -0.2355
 8670TIP3    H147425   4.198   2.478   6.688 -0.2942 -0.9035 -1.5978
 8670TIP3    H247426   4.295   2.455   6.575  0.7585  1.1185 -1.1269
 8671TIP3   OH247427   6.584   6.016   3.099 -0.1113  0.2301  0.0706
 8671TIP3    H147428   6.573   5.941   3.040  1.5592  0.1934 -0.2163
 8671TIP3    H247429   6.562   6.092   3.044 -1.0860  0.0194  0.1527
 8672TIP3   OH247430   4.058   3.574  12.267 -0.3309  0.0726  0.2678
 8672TIP3    H147431   4.128   3.509  12.266  1.6197  1.9532  3.6382
 8672TIP3    H247432   3.979   3.525  12.287  0.3456 -1.8136 -1.5093
 8673TIP3   OH247433   6.121   2.464   0.163  0.1179  0.3811 -0.8072
 8673TIP3    H147434   6.058   2.512   0.109  0.2756 -0.5742 -1.8710
 8673TIP3    H247435   6.117   2.374   0.130  0.0169 -0.3009  0.9749
 8674TIP3   OH247436   1.570   4.319  14.631  0.2582 -0.3719 -0.0886
 8674TIP3    H147437   1.490   4.275  14.660 -1.0688  0.6903 -2.0759
 8674TIP3    H247438   1.611   4.349  14.713 -2.5599  1.0950  0.8888
 8675TIP3   OH247439   4.950   6.262   5.581  0.2264  0.0350  0.0404
 8675TIP3    H147440   4.971   6.298   5.667  1.2040  0.2397 -0.2729
 8675TIP3    H247441   5.017   6.299   5.523 -0.3603 -0.1879 -0.7845
 8676TIP3   OH247442   1.846   0.629  13.140  0.2919  0.0260  0.4175
 8676TIP3    H147443   1.782   0.635  13.069 -0.7667  2.0251  1.5203
 8676TIP3    H247444   1.909   0.698  13.121  0.4366  0.0516  0.9819
 8677TIP3   OH247445   1.836   5.171  11.619 -0.0022  0.2632  0.1816
 8677TIP3    H147446   1.845   5.114  11.542  2.7329  0.7816  0.0686
 8677TIP3    H247447   1.802   5.114  11.688 -1.9013 -0.3488 -1.2049
 8678TIP3   OH247448   4.052   1.873   3.623 -0.5151  0.0178 -0.6258
 8678TIP3    H147449   4.068   1.879   3.528  0.6989 -0.3685 -0.4588
 8678TIP3    H247450   4.017   1.958   3.647  2.0140  1.1940 -0.9221
 8679TIP3   OH247451   5.318   6.439  12.745  0.1679 -0.2155 -0.0340
 8679TIP3    H147452   5.265   6.396  12.678  1.8969 -0.4545 -1.2545
 8679TIP3    H247453   5.329   6.529  12.715 -0.6529  0.2085  0.8872
 8680TIP3   OH247454   5.775   4.870  15.862  0.1851  0.2243  0.9911
 8680TIP3    H147455   5.754   4.926  15.788  1.5969  0.5462  0.8272
 8680TIP3    H247456   5.791   4.784  15.824  0.4344  0.2752  0.9824
 8681TIP3   OH247457   0.782   0.613  14.419 -0.0767 -0.1121 -0.2728
 8681TIP3    H147458   0.806   0.521  14.415 -1.0145 -0.3501 -0.8190
 8681TIP3    H247459   0.789   0.637  14.511  1.1134 -0.4658 -0.2736
 8682TIP3   OH247460   2.745   2.552   1.440 -0.1096 -0.0959  0.0928
 8682TIP3    H147461   2.746   2.483   1.507 -0.2127 -0.1256  0.0629
 8682TIP3    H247462   2.836   2.559   1.411  0.3239  1.2853  1.6592
 8683TIP3   OH247463   0.662   2.725   0.719 -0.3310  0.2038  0.6224
 8683TIP3    H147464   0.728   2.764   0.661 -0.2263 -0.6126  0.1911
 8683TIP3    H247465   0.712   2.666   0.775 -0.7843 -0.9456 -0.1673
 8684TIP3   OH247466   6.526   2.297   0.395 -0.4038  0.3467 -0.0691
 8684TIP3    H147467   6.620   2.289   0.374 -0.0061  0.3108  1.6932
 8684TIP3    H247468   6.490   2.348   0.322  0.8683 -0.1820 -1.0834
 8685TIP3   OH247469   4.743   6.463  14.976 -0.1687  0.9146  0.1176
 8685TIP3    H147470   4.647   6.457  14.980 -0.0830 -3.1104 -1.2544
 8685TIP3    H247471   4.770   6.466  15.068 -1.5015 -2.6734  0.7320
 8686TIP3   OH247472   4.382   6.198  11.561  0.4360 -0.1792  0.5434
 8686TIP3    H147473   4.314   6.141  11.525 -1.7191  1.4498  1.9124
 8686TIP3    H247474   4.347   6.287  11.550  1.8369  0.6129  2.2959
 8687TIP3   OH247475   1.669   3.495  11.629  0.0589  0.1120  0.0406
 8687TIP3    H147476   1.711   3.489  11.715  0.9305 -0.7246 -0.4376
 8687TIP3    H247477   1.724   3.555  11.579 -1.5782  2.2260  0.7010
 8688TIP3   OH247478   4.934   1.581   4.027 -0.0872  0.6792  0.6183
 8688TIP3    H147479   4.968   1.565   4.115 -0.0136 -0.1826  0.4324
 8688TIP3    H247480   4.930   1.495   3.986  1.2354  1.2267 -0.7163
 8689TIP3   OH247481   5.574   1.599   0.188 -0.1254 -0.1372 -0.1976
 8689TIP3    H147482   5.544   1.509   0.197  0.0089 -0.2347 -0.7070
 8689TIP3    H247483   5.507   1.651   0.233  0.3375 -0.5715  1.0311
 8690TIP3   OH247484   4.788   6.542  11.585 -0.1066  0.4254  0.2371
 8690TIP3    H147485   4.727   6.499  11.645 -0.7186  1.3857  0.3188
 8690TIP3    H247486   4.732   6.595  11.529  0.5750  0.5262 -0.3536
 8691TIP3   OH247487   6.321   4.619   5.677  0.2060  0.1640 -0.6859
 8691TIP3    H147488   6.292   4.557   5.744 -0.8410  0.2467 -1.0576
 8691TIP3    H247489   6.411   4.640   5.702  0.5225 -1.3828 -0.4612
 8692TIP3   OH247490   1.836   6.087   4.734 -0.3161 -0.0682 -0.2654
 8692TIP3    H147491   1.890   6.067   4.657  1.6363  0.2619  0.9681
 8692TIP3    H247492   1.819   6.001   4.773  0.8033 -0.0518  0.2906
 8693TIP3   OH247493   1.686   1.060   5.338 -0.3277 -0.5924  0.3064
 8693TIP3    H147494   1.684   1.154   5.320  0.9813 -0.6953 -0.4886
 8693TIP3    H247495   1.779   1.038   5.336 -0.7857 -2.5170 -2.8811
 8694TIP3   OH247496   5.767   5.561  12.714 -0.2281  0.3253 -0.0342
 8694TIP3    H147497   5.858   5.558  12.744 -0.5585 -0.0115  0.9464
 8694TIP3    H247498   5.753   5.653  12.691  0.3262  0.4048 -0.0687
 8695TIP3   OH247499   2.841   4.015  15.174 -0.0478 -0.1021 -0.1472
 8695TIP3    H147500   2.795   3.931  15.186  1.3233 -0.6601  1.4348
 8695TIP3    H247501   2.926   3.990  15.139 -0.4406  0.8352 -1.8170
 8696TIP3   OH247502   0.283   4.930  17.074 -0.4029  0.3960 -0.1630
 8696TIP3    H147503   0.214   4.990  17.046  0.1601  0.4623 -1.4923
 8696TIP3    H247504   0.352   4.942  17.008  0.7955  0.2061  1.0479
 8697TIP3   OH247505   3.553   0.380   1.755  0.3527  0.3202  0.3817
 8697TIP3    H147506   3.600   0.381   1.672 -0.4296  1.2130 -0.0523
 8697TIP3    H247507   3.588   0.303   1.801  0.5427 -0.3761 -0.9044
 8698TIP3   OH247508   4.915   1.510  17.045  0.6376 -0.6868 -0.0591
 8698TIP3    H147509   4.922   1.605  17.054  4.0257 -0.9771  1.0147
 8698TIP3    H247510   4.911   1.477  17.135 -0.7543 -1.5742 -0.4242
 8699TIP3   OH247511   0.062   2.466   4.339  0.5676 -0.6722  0.1149
 8699TIP3    H147512   0.022   2.467   4.252  1.2720 -0.7729 -0.2103
 8699TIP3    H247513   0.093   2.377   4.350 -1.6866 -1.3115  1.4659
 8700TIP3   OH247514   6.734   1.983   0.977 -1.0879  0.2930  0.0593
 8700TIP3    H147515   6.723   1.899   0.932  0.1630 -0.0396  0.3632
 8700TIP3    H247516   6.699   1.967   1.065  0.9250 -0.5088  0.7468
 8701TIP3   OH247517   4.740   5.973   3.085 -0.8188  0.2534 -0.2392
 8701TIP3    H147518   4.681   5.901   3.066 -0.0752 -0.4330  0.0535
 8701TIP3    H247519   4.804   5.972   3.014 -0.4335  0.2340  0.1086
 8702TIP3   OH247520   1.316   4.493  16.936 -0.0331 -0.4269  0.0668
 8702TIP3    H147521   1.328   4.422  16.872  1.6467 -0.4688  0.4062
 8702TIP3    H247522   1.235   4.470  16.981 -0.6584 -0.9851 -1.2956
 8703TIP3   OH247523   1.177   0.865  14.100  0.1608  0.1289 -0.1211
 8703TIP3    H147524   1.092   0.872  14.145 -0.1999  1.0695 -0.9237
 8703TIP3    H247525   1.233   0.819  14.162 -0.3878  1.2130  1.2102
 8704TIP3   OH247526   3.218   5.096  15.716 -0.3579  0.7342  0.6770
 8704TIP3    H147527   3.236   5.003  15.712 -1.5302  0.5579 -0.5923
 8704TIP3    H247528   3.291   5.132  15.766 -0.2074 -0.9313  1.6996
 8705TIP3   OH247529   0.810   5.765   4.446  0.1722  0.1860 -0.0804
 8705TIP3    H147530   0.837   5.772   4.538  0.1694  0.2508 -0.0850
 8705TIP3    H247531   0.788   5.854   4.421 -0.9861 -0.0041  0.2128
 8706TIP3   OH247532   1.048   3.947  15.247 -0.0032  0.5214  0.1056
 8706TIP3    H147533   0.989   3.986  15.182  0.6072  1.9412  0.3999
 8706TIP3    H247534   1.085   3.871  15.203 -1.3407  0.1516 -0.4073
 8707TIP3   OH247535   1.464   3.424   1.437 -0.2009  0.1521  0.9671
 8707TIP3    H147536   1.447   3.352   1.498  1.4031  0.4960  1.8414
 8707TIP3    H247537   1.383   3.475   1.438  0.1285  0.7162  3.5895
 8708TIP3   OH247538   0.572   2.675  14.642  0.3654 -0.5924  0.3610
 8708TIP3    H147539   0.481   2.703  14.627  0.2765 -0.7684  0.5679
 8708TIP3    H247540   0.567   2.580  14.648  0.6536 -0.6499 -0.2406
 8709TIP3   OH247541   5.783   4.329  15.948  0.0412 -0.4620  0.5538
 8709TIP3    H147542   5.693   4.357  15.932  0.6115  0.3661 -1.3063
 8709TIP3    H247543   5.780   4.287  16.034 -2.0537 -0.1687  0.6460
 8710TIP3   OH247544   1.635   0.541  16.985 -0.7694 -0.6496  0.1434
 8710TIP3    H147545   1.606   0.525  16.895 -0.4071 -0.4327 -0.0085
 8710TIP3    H247546   1.599   0.467  17.034 -0.5560 -1.0286 -0.2669
 8711TIP3   OH247547   2.531   4.056  15.413 -0.4180  0.0695  0.0764
 8711TIP3    H147548   2.453   4.026  15.459 -0.0939 -1.2533 -0.2031
 8711TIP3    H247549   2.580   3.976  15.395 -0.2214  0.6206 -1.9799
 8712TIP3   OH247550   0.190   0.336   5.172  0.2761  0.4600 -0.0925
 8712TIP3    H147551   0.161   0.247   5.155 -0.3299  0.8167 -0.9683
 8712TIP3    H247552   0.120   0.373   5.226  0.3553  0.5141 -0.0264
 8713TIP3   OH247553   5.713   0.905   5.307  0.7057 -0.0548  0.1683
 8713TIP3    H147554   5.630   0.858   5.302  1.2179 -0.9842  0.3034
 8713TIP3    H247555   5.780   0.838   5.289  1.3852  0.8308 -0.6698
 8714TIP3   OH247556   5.614   1.325   2.440 -0.3418  0.3217 -0.5831
 8714TIP3    H147557   5.590   1.417   2.448 -0.1892  0.4495 -1.5153
 8714TIP3    H247558   5.703   1.326   2.406 -0.4395 -0.1645 -0.8607
 8715TIP3   OH247559   0.572   4.921   4.863 -0.1230  0.7244 -0.6883
 8715TIP3    H147560   0.487   4.932   4.905  0.3888  0.5156  0.4201
 8715TIP3    H247561   0.624   4.871   4.926 -0.2299 -2.1453 -2.7544
 8716TIP3   OH247562   1.343   1.176  11.570  0.0806 -0.3828  0.4057
 8716TIP3    H147563   1.399   1.202  11.643  2.2862  0.0479 -1.3896
 8716TIP3    H247564   1.303   1.258  11.539 -0.6909 -0.5377  0.9613
 8717TIP3   OH247565   5.204   6.401  14.972 -0.0166 -0.2659 -0.4758
 8717TIP3    H147566   5.288   6.447  14.975 -0.0434 -0.0558 -2.1549
 8717TIP3    H247567   5.214   6.337  14.902 -0.5085 -1.7951  0.8376
 8718TIP3   OH247568   2.401   1.165   5.839 -0.0171  0.1670 -0.3616
 8718TIP3    H147569   2.356   1.187   5.920 -0.0926  0.1060 -0.3872
 8718TIP3    H247570   2.338   1.114   5.789  0.1790 -0.1635 -0.2738
 8719TIP3   OH247571   6.026   4.243   3.316  0.1312  0.2009 -0.7727
 8719TIP3    H147572   6.110   4.286   3.327 -0.8571  2.1968 -0.8101
 8719TIP3    H247573   5.982   4.292   3.247 -2.2783  1.1179  1.3421
 8720TIP3   OH247574   5.456   4.951   1.043 -0.4813 -0.2538  0.2982
 8720TIP3    H147575   5.544   4.948   1.006 -0.6467 -1.1118 -0.0367
 8720TIP3    H247576   5.455   5.031   1.096  1.0313 -1.1203  1.6845
 8721TIP3   OH247577   5.410   1.458   3.962  0.5821  0.1485  0.6449
 8721TIP3    H147578   5.385   1.510   3.885  0.3725 -1.7142 -0.5795
 8721TIP3    H247579   5.332   1.459   4.018  0.4434  0.8105  0.4495
 8722TIP3   OH247580   6.275   6.768   4.400  0.0032 -0.4505 -0.0227
 8722TIP3    H147581   6.226   6.690   4.377 -1.6591  0.0960  1.5565
 8722TIP3    H247582   6.339   6.738   4.465 -0.9604 -0.4276  0.9508
 8723TIP3   OH247583   2.227   1.265  16.336  0.6160  0.4494  0.2377
 8723TIP3    H147584   2.309   1.290  16.378  1.2123  1.3492 -1.4088
 8723TIP3    H247585   2.254   1.223  16.254 -0.5810  3.2837 -1.6936
 8724TIP3   OH247586   5.170   2.639   0.663 -0.6389  0.4104 -0.7584
 8724TIP3    H147587   5.232   2.575   0.698 -1.5951  0.5641  1.2471
 8724TIP3    H247588   5.088   2.590   0.655 -0.9262  0.9192 -0.8950
 8725TIP3   OH247589   3.993   0.067  17.071 -0.5322 -0.2371  0.0212
 8725TIP3    H147590   3.929   0.138  17.065 -0.5530 -0.3773 -1.6089
 8725TIP3    H247591   4.077   0.112  17.073 -0.6265 -0.0953  1.0212
 8726TIP3   OH247592   4.214   3.209   0.694 -0.1141  0.0265  0.2161
 8726TIP3    H147593   4.121   3.201   0.717 -0.4673  2.2797 -0.3013
 8726TIP3    H247594   4.217   3.185   0.601 -0.1394 -0.2068  0.2739
 8727TIP3   OH247595   2.847   6.400   3.176 -0.9266 -0.5183  0.1473
 8727TIP3    H147596   2.820   6.314   3.143 -1.9691 -0.6807  1.4183
 8727TIP3    H247597   2.775   6.459   3.152  0.7319  0.4987 -2.6699
 8728TIP3   OH247598   2.560   0.723   5.182 -0.4173 -0.4654  0.3123
 8728TIP3    H147599   2.535   0.637   5.218  0.9883  0.1608  2.9240
 8728TIP3    H247600   2.508   0.786   5.232 -0.6055  0.2951 -0.8199
 8729TIP3   OH247601   3.573   3.692   5.354  0.3804 -0.0350 -0.3330
 8729TIP3    H147602   3.492   3.651   5.323  0.8265 -0.5354 -0.8192
 8729TIP3    H247603   3.624   3.709   5.275  0.4607  0.9156 -0.0871
 8730TIP3   OH247604   1.994   2.495  12.916  0.1532  0.5686 -0.3350
 8730TIP3    H147605   1.943   2.552  12.973  0.0634  0.7392 -0.5798
 8730TIP3    H247606   2.066   2.463  12.970 -1.1692 -1.0336  0.5031
 8731TIP3   OH247607   0.100   2.730  16.903 -0.4887 -0.0284  0.0715
 8731TIP3    H147608   0.114   2.660  16.967 -0.6747 -2.2111 -2.1724
 8731TIP3    H247609   0.015   2.710  16.865 -0.6337  1.5596 -0.4380
 8732TIP3   OH247610   6.125   1.451  13.901  0.5770  0.5087  0.0995
 8732TIP3    H147611   6.104   1.524  13.959  0.9624  1.3304 -0.7975
 8732TIP3    H247612   6.060   1.384  13.924 -1.1524  1.9100 -0.5371
 8733TIP3   OH247613   0.293   6.232   2.909  0.4483  0.6286 -0.2313
 8733TIP3    H147614   0.386   6.221   2.890  0.7065  0.7659  0.9249
 8733TIP3    H247615   0.291   6.282   2.990 -0.6260 -0.3238  0.3385
 8734TIP3   OH247616   0.583   0.212   3.607 -0.0131 -0.4829 -0.0049
 8734TIP3    H147617   0.569   0.300   3.574  1.0535  0.5027  2.0782
 8734TIP3    H247618   0.536   0.210   3.690 -0.3405 -2.0125 -0.2090
 8735TIP3   OH247619   2.973   3.142   3.662 -0.0024  0.2989 -0.1353
 8735TIP3    H147620   2.994   3.177   3.575  0.1657  1.1472  0.2446
 8735TIP3    H247621   3.045   3.080   3.680  1.0888  1.6549  0.2709
 8736TIP3   OH247622   0.854   0.231  12.981 -0.3411  0.4514 -0.3914
 8736TIP3    H147623   0.936   0.190  12.955 -1.2074 -1.4069 -0.2284
 8736TIP3    H247624   0.828   0.282  12.904  0.5090  0.3483 -0.7549
 8737TIP3   OH247625   2.344   4.140   4.062  0.0328 -0.3633  1.0985
 8737TIP3    H147626   2.310   4.184   4.140  1.5920 -1.0333  2.1712
 8737TIP3    H247627   2.387   4.210   4.012  0.6823 -0.2796  1.7707
 8738TIP3   OH247628   4.358   0.215   2.524  0.7377  0.4013 -0.6135
 8738TIP3    H147629   4.338   0.169   2.606 -1.2336 -1.5392 -2.1240
 8738TIP3    H247630   4.321   0.303   2.537  1.1020  0.3583  0.8553
 8739TIP3   OH247631   3.545   2.252   4.301  0.3373  0.5157 -0.0679
 8739TIP3    H147632   3.453   2.228   4.289  0.0923  1.1913  0.4144
 8739TIP3    H247633   3.543   2.345   4.322  0.9556  0.0645  2.1265
 8740TIP3   OH247634   2.338   1.807  14.350  0.0668  0.2720 -0.1690
 8740TIP3    H147635   2.253   1.834  14.384  0.7317  2.4386 -0.1150
 8740TIP3    H247636   2.393   1.885  14.359  2.8702 -1.8645  2.3623
 8741TIP3   OH247637   0.188   3.607  16.107  0.1317  0.2668  0.3835
 8741TIP3    H147638   0.256   3.648  16.160 -0.8170  1.2859  0.8158
 8741TIP3    H247639   0.129   3.678  16.083 -1.6449 -0.8528  1.3228
 8742TIP3   OH247640   5.805   3.460   3.993  0.4000  0.0824  0.3504
 8742TIP3    H147641   5.879   3.483   4.048  0.3722  0.5539  0.1919
 8742TIP3    H247642   5.731   3.509   4.029  0.8194  2.0363 -1.3563
 8743TIP3   OH247643   3.188   5.000   4.037  0.8190 -0.1117  0.2202
 8743TIP3    H147644   3.248   5.054   3.987 -0.4253  1.0363 -0.0597
 8743TIP3    H247645   3.103   5.011   3.994 -0.2734  0.8700  2.4769
 8744TIP3   OH247646   2.767   5.255  14.430 -0.0743 -0.3061  1.0647
 8744TIP3    H147647   2.714   5.282  14.355  0.1571  0.0001  1.0101
 8744TIP3    H247648   2.853   5.294  14.414  0.1166 -0.6568  1.2419
 8745TIP3   OH247649   3.441   6.710   1.778 -0.9167 -0.0557  0.1635
 8745TIP3    H147650   3.537   6.702   1.777 -0.9074 -0.3319 -3.3322
 8745TIP3    H247651   3.425   6.803   1.792 -0.2288 -0.2818  2.7992
 8746TIP3   OH247652   1.624   3.791   3.064 -0.2207  0.3985 -0.0214
 8746TIP3    H147653   1.655   3.853   2.998 -0.3520  1.2933  0.7538
 8746TIP3    H247654   1.530   3.783   3.046  0.1210 -1.0187 -1.2986
 8747TIP3   OH247655   3.088   5.109  14.141  0.0335  0.2582 -0.1975
 8747TIP3    H147656   3.001   5.096  14.177 -0.0932 -0.1695 -0.6716
 8747TIP3    H247657   3.145   5.052  14.193 -0.0358  0.1855 -0.2038
 8748TIP3   OH247658   5.944   3.615   2.145 -0.0140 -0.7965  0.2890
 8748TIP3    H147659   5.962   3.562   2.068 -0.0021 -0.3967  0.0109
 8748TIP3    H247660   5.857   3.653   2.129 -0.6614 -1.8978  1.1570
 8749TIP3   OH247661   6.668   4.076  12.599 -0.8996 -0.5698 -0.0056
 8749TIP3    H147662   6.591   4.023  12.616 -1.4148 -0.1446 -0.9565
 8749TIP3    H247663   6.679   4.129  12.677 -2.6745  0.7024 -0.5868
 8750TIP3   OH247664   1.493   4.932  11.982  0.6968  0.3286 -0.5672
 8750TIP3    H147665   1.526   4.845  12.002 -0.0948 -0.1698 -1.3780
 8750TIP3    H247666   1.493   4.936  11.886  0.5432  1.1363 -0.5356
 8751TIP3   OH247667   6.194   3.350   4.958 -0.3037  0.3756 -0.3093
 8751TIP3    H147668   6.172   3.291   5.030  1.1110 -0.3722 -0.4679
 8751TIP3    H247669   6.236   3.294   4.893  1.0378  1.5424 -0.4737
 8752TIP3   OH247670   2.521   1.309   3.348 -0.4905 -0.0901 -0.2468
 8752TIP3    H147671   2.606   1.270   3.367 -0.5263  0.7508  1.8796
 8752TIP3    H247672   2.540   1.403   3.341 -1.0696 -0.0209 -0.8633
 8753TIP3   OH247673   2.559   2.793  12.182  0.3843  0.2685 -0.4226
 8753TIP3    H147674   2.537   2.714  12.231  1.7613  1.8169  2.8503
 8753TIP3    H247675   2.500   2.860  12.217 -0.0425  0.9912 -2.4145
 8754TIP3   OH247676   5.880   1.235   2.396 -0.1913  0.0879  0.0629
 8754TIP3    H147677   5.892   1.199   2.308 -2.3323  0.0430 -0.2461
 8754TIP3    H247678   5.907   1.165   2.455 -0.1371 -0.4202 -0.5572
 8755TIP3   OH247679   3.380   4.077   6.106  0.3941 -0.3908  0.3951
 8755TIP3    H147680   3.359   4.157   6.154  1.8750  1.2711 -1.5928
 8755TIP3    H247681   3.459   4.044   6.147  0.2819 -0.3352  0.6579
 8756TIP3   OH247682   5.399   2.789  11.533  0.6860  0.0427 -0.0550
 8756TIP3    H147683   5.362   2.733  11.466 -0.5415  0.8530 -0.0706
 8756TIP3    H247684   5.454   2.851  11.486  0.1138  0.3818 -0.2768
 8757TIP3   OH247685   4.403   0.434   1.860 -0.4978 -0.2730  0.5546
 8757TIP3    H147686   4.476   0.440   1.923 -0.4895  1.3524  0.3928
 8757TIP3    H247687   4.325   0.450   1.913 -0.5170  0.7444  0.2279
 8758TIP3   OH247688   2.397   0.092   1.263  0.2595 -0.1243 -0.0959
 8758TIP3    H147689   2.412  -0.001   1.276  2.9703 -0.0810 -2.4532
 8758TIP3    H247690   2.353   0.098   1.179  0.3695  0.7519 -0.0959
 8759TIP3   OH247691   6.470   1.901  14.378  0.1296  0.2386 -0.2652
 8759TIP3    H147692   6.399   1.943  14.330 -0.9836 -1.4923 -0.1745
 8759TIP3    H247693   6.550   1.929  14.333 -0.6688  1.3766 -0.9929
 8760TIP3   OH247694   0.572   3.593  14.849  0.0062  0.1171 -0.5773
 8760TIP3    H147695   0.477   3.586  14.836  0.4605 -0.8130 -3.9727
 8760TIP3    H247696   0.598   3.667  14.793  1.4244 -0.2799 -0.4576
 8761TIP3   OH247697   4.574   5.941  16.113 -0.3695  0.0206  0.4125
 8761TIP3    H147698   4.535   5.972  16.031  1.6924 -0.6416 -0.8438
 8761TIP3    H247699   4.597   6.021  16.160  0.0669  0.3956 -0.4402
 8762TIP3   OH247700   4.116   5.884  16.926 -0.0756 -0.1456  0.1813
 8762TIP3    H147701   4.107   5.953  16.860 -0.0532 -1.1880 -0.9099
 8762TIP3    H247702   4.035   5.834  16.920  0.1419 -0.5474  0.6095
 8763TIP3   OH247703   4.027   2.241  13.167 -0.2062  0.2316  0.0461
 8763TIP3    H147704   3.956   2.186  13.201  1.2014 -1.0454  1.0027
 8763TIP3    H247705   4.100   2.180  13.153  2.6106  2.2479  4.4807
 8764TIP3   OH247706   2.380   4.959  14.244 -0.2067  0.1369  0.0585
 8764TIP3    H147707   2.358   4.962  14.151 -0.7531  1.9688  0.2345
 8764TIP3    H247708   2.307   5.003  14.287  1.4910  2.0036  1.0959
 8765TIP3   OH247709   5.758   0.853  16.688  0.0519  0.0569 -0.4953
 8765TIP3    H147710   5.664   0.848  16.670 -0.1753 -0.1092  0.6970
 8765TIP3    H247711   5.768   0.930  16.745  0.6763  0.2316 -0.8298
 8766TIP3   OH247712   3.525   4.179  14.006 -0.6601  0.4345  0.2857
 8766TIP3    H147713   3.482   4.265  14.008  0.8279  1.2029 -0.2172
 8766TIP3    H247714   3.612   4.195  14.041  0.2057 -0.5363 -1.3756
 8767TIP3   OH247715   4.961   2.297  11.624  0.0813 -0.2474 -0.1305
 8767TIP3    H147716   5.036   2.288  11.565  0.1792 -0.3240  0.0048
 8767TIP3    H247717   4.997   2.279  11.711 -0.0910 -0.2673 -0.0648
 8768TIP3   OH247718   5.794   3.366  12.119  0.1858  0.3067  0.5984
 8768TIP3    H147719   5.818   3.437  12.179  1.5799  0.0778  0.3282
 8768TIP3    H247720   5.851   3.378  12.043  1.2705 -1.7691  1.0366
 8769TIP3   OH247721   3.485   3.214   5.575  0.2477  0.4291  0.2992
 8769TIP3    H147722   3.578   3.192   5.584 -0.0781 -1.2431 -0.3099
 8769TIP3    H247723   3.448   3.144   5.522 -1.0187  1.9957 -0.9624
 8770TIP3   OH247724   2.364   3.503   5.291 -0.0589 -0.1627 -0.0502
 8770TIP3    H147725   2.382   3.597   5.297 -3.6180  0.5291  1.0437
 8770TIP3    H247726   2.397   3.467   5.373 -0.9391  0.5771  0.6410
 8771TIP3   OH247727   0.036   0.905   4.777  0.0754 -0.4204 -0.4893
 8771TIP3    H147728   0.092   0.867   4.845  0.7687  1.7907  0.2289
 8771TIP3    H247729  -0.047   0.922   4.821  0.8503  1.9604  0.1412
 8772TIP3   OH247730   0.605   5.156  14.398  0.1141  0.3725  0.3856
 8772TIP3    H147731   0.558   5.195  14.324  2.5189 -1.6969 -2.3514
 8772TIP3    H247732   0.683   5.211  14.409  0.8074 -0.5318  0.0186
 8773TIP3   OH247733   4.052   6.612  14.775 -0.0949  0.2031 -0.0635
 8773TIP3    H147734   4.086   6.664  14.847 -1.9539  1.1139  0.1989
 8773TIP3    H247735   3.957   6.611  14.790 -0.3360 -0.9280 -1.6100
 8774TIP3   OH247736   0.786   3.420   5.578  0.3539 -0.1312  0.0523
 8774TIP3    H147737   0.781   3.482   5.506  0.5100  0.5592  0.6303
 8774TIP3    H247738   0.824   3.341   5.539  2.2779  0.8800 -0.1940
 8775TIP3   OH247739   0.238   1.855   4.229 -0.4994 -0.7371  0.4054
 8775TIP3    H147740   0.260   1.929   4.172 -2.4496 -0.3453  0.1026
 8775TIP3    H247741   0.309   1.793   4.217  1.2128  1.1228  0.7088
 8776TIP3   OH247742   1.233   3.833  16.889 -0.6504 -0.7116  0.5055
 8776TIP3    H147743   1.205   3.813  16.800  1.1242 -0.0152 -0.2233
 8776TIP3    H247744   1.281   3.756  16.918  0.5216 -0.1399  0.1060
 8777TIP3   OH247745   4.205   1.889   0.769 -0.5786 -0.7782  0.0911
 8777TIP3    H147746   4.201   1.872   0.675  0.0621 -0.2338 -0.0435
 8777TIP3    H247747   4.262   1.820   0.803  0.5751  0.0100 -0.1874
 8778TIP3   OH247748   5.772   1.078  16.816 -0.6169  0.1070 -0.1912
 8778TIP3    H147749   5.821   1.095  16.735  1.2618  0.9713  1.0958
 8778TIP3    H247750   5.754   1.164  16.852 -0.0639 -0.3098  1.1153
 8779TIP3   OH247751   3.424   4.096  13.514 -0.4556 -0.0838  0.7335
 8779TIP3    H147752   3.493   4.107  13.579  0.1244 -0.0054  0.1169
 8779TIP3    H247753   3.393   4.006  13.527 -0.1464 -0.1635  0.9324
 8780TIP3   OH247754   2.452   1.101  14.938 -0.0129 -0.1827 -0.0787
 8780TIP3    H147755   2.498   1.157  14.874 -0.4356  0.9082  0.5593
 8780TIP3    H247756   2.406   1.163  14.994 -0.4546 -1.1918  0.6684
 8781TIP3   OH247757   6.272   4.924  11.288  0.1687 -0.4752  0.1944
 8781TIP3    H147758   6.202   4.931  11.353  0.1816  0.5993  0.1127
 8781TIP3    H247759   6.238   4.972  11.212  1.0378  0.1450  0.1897
 8782TIP3   OH247760   1.997   0.603   2.921 -0.0294 -0.0317  0.1655
 8782TIP3    H147761   2.084   0.565   2.918 -0.0746 -0.0742 -1.0184
 8782TIP3    H247762   1.938   0.530   2.903 -0.3059 -0.0012  0.9548
 8783TIP3   OH247763   6.172   0.486  11.656 -0.4901 -0.2117 -0.0622
 8783TIP3    H147764   6.100   0.461  11.598 -0.6940  0.5705 -0.1460
 8783TIP3    H247765   6.223   0.549  11.605 -0.5051  0.2560  0.5033
 8784TIP3   OH247766   4.107   5.315   5.227  0.0796  0.3788 -0.1492
 8784TIP3    H147767   4.096   5.260   5.149 -2.3648  0.0635  0.3583
 8784TIP3    H247768   4.018   5.326   5.260  1.0970  0.3761  2.6963
 8785TIP3   OH247769   4.040   2.638   2.502  0.5276 -0.1596  0.5675
 8785TIP3    H147770   4.030   2.564   2.441 -0.7634  0.6589 -0.2261
 8785TIP3    H247771   4.119   2.617   2.551  1.1009 -1.2796 -0.7864
 8786TIP3   OH247772   2.799   0.754  14.781  0.1291 -0.2712  0.3104
 8786TIP3    H147773   2.744   0.804  14.841 -0.0715  0.4465 -0.4571
 8786TIP3    H247774   2.738   0.698  14.733  0.0782  0.3809 -0.4015
 8787TIP3   OH247775   2.336   1.342   1.647 -0.3739  0.4675 -0.2740
 8787TIP3    H147776   2.358   1.345   1.740 -2.8289  0.4607  0.3416
 8787TIP3    H247777   2.413   1.302   1.605  0.0675 -1.1347  1.9735
 8788TIP3   OH247778   3.867   0.080  14.922  0.6688  0.4576 -0.1951
 8788TIP3    H147779   3.960   0.064  14.938  0.4580 -0.7488 -0.1239
 8788TIP3    H247780   3.851   0.166  14.962  1.2053 -0.4106  1.9863
 8789TIP3   OH247781   0.198   3.898  12.328  0.1669 -0.3279 -0.2523
 8789TIP3    H147782   0.121   3.846  12.302  1.3899 -2.4441  0.1985
 8789TIP3    H247783   0.236   3.928  12.246 -1.9990  2.0718 -0.4334
 8790TIP3   OH247784   4.387   5.245   3.279 -0.4472  0.4085 -0.3429
 8790TIP3    H147785   4.360   5.273   3.367  0.7321  0.3249  0.0534
 8790TIP3    H247786   4.335   5.166   3.263  0.5430 -0.5362  0.9823
 8791TIP3   OH247787   5.852   6.162  11.090  0.4818  0.4544 -0.2825
 8791TIP3    H147788   5.807   6.085  11.125 -2.3723  2.0065 -0.4315
 8791TIP3    H247789   5.945   6.141  11.100 -0.2284 -2.5416  0.6896
 8792TIP3   OH247790   1.512   6.004   5.113 -0.8704  0.6108 -0.4521
 8792TIP3    H147791   1.458   5.933   5.148 -0.1814  0.6898  0.7607
 8792TIP3    H247792   1.506   6.074   5.178  0.4382  0.7401 -0.4638
 8793TIP3   OH247793   2.063   4.133   2.823 -0.0429 -0.4613  0.2338
 8793TIP3    H147794   1.995   4.174   2.876 -1.5926 -0.4401 -1.7187
 8793TIP3    H247795   2.128   4.202   2.809 -1.7562  0.8329 -1.5288
 8794TIP3   OH247796   5.303   4.757  11.732 -0.0206  0.3411 -0.2921
 8794TIP3    H147797   5.346   4.715  11.657  2.5826  2.5103 -0.0772
 8794TIP3    H247798   5.223   4.705  11.745 -0.2387 -0.4810 -4.1518
 8795TIP3   OH247799   1.567   5.036  17.213  0.5376 -0.4589 -0.2631
 8795TIP3    H147800   1.636   4.972  17.200  0.2164 -0.9097  0.2362
 8795TIP3    H247801   1.540   5.026  17.305 -0.3857 -0.4931 -0.5258
 8796TIP3   OH247802   0.215   5.116  11.544 -0.0550 -0.1304  0.1857
 8796TIP3    H147803   0.169   5.150  11.467  0.0796 -0.1464  0.0969
 8796TIP3    H247804   0.167   5.150  11.619  0.1218  0.3201  0.0979
 8797TIP3   OH247805   3.492   0.899   2.706 -0.0692  0.6111  0.3241
 8797TIP3    H147806   3.423   0.833   2.702  1.4094 -0.9502 -0.0761
 8797TIP3    H247807   3.550   0.868   2.775  1.2662  0.8597 -0.6793
 8798TIP3   OH247808   4.303   6.273  16.386  0.1388  1.0216 -0.1282
 8798TIP3    H147809   4.373   6.259  16.323  0.5076  0.3662  0.4176
 8798TIP3    H247810   4.311   6.199  16.447 -1.0351  0.9349 -0.0742
 8799TIP3   OH247811   2.217   3.455  12.928  0.0273 -0.6096  0.2006
 8799TIP3    H147812   2.147   3.487  12.985 -0.1139 -1.2156  0.3762
 8799TIP3    H247813   2.278   3.528  12.920 -0.6277 -0.0747  0.0492
 8800TIP3   OH247814   0.537   3.549  15.155 -0.0551  0.1599  0.2090
 8800TIP3    H147815   0.517   3.595  15.074  0.4380  1.3468  0.7448
 8800TIP3    H247816   0.633   3.555  15.163 -0.0116 -0.7847  0.3800
 8801TIP3   OH247817   6.555   2.250   3.954  0.6030 -0.5285  0.1976
 8801TIP3    H147818   6.474   2.201   3.939 -0.5482  1.6270 -0.8766
 8801TIP3    H247819   6.608   2.232   3.877 -0.5507  1.2771 -1.0580
 8802TIP3   OH247820   3.198   6.589  13.935 -0.3389 -0.0494 -0.0745
 8802TIP3    H147821   3.150   6.670  13.954 -1.1554  0.4404 -3.8148
 8802TIP3    H247822   3.131   6.520  13.938 -0.2188 -0.1574  0.1451
 8803TIP3   OH247823   2.614   5.332   1.919 -0.5865 -0.4103  0.3959
 8803TIP3    H147824   2.594   5.341   1.826 -0.1134  2.0123  0.4884
 8803TIP3    H247825   2.653   5.245   1.927 -2.0210 -1.2483 -1.4030
 8804TIP3   OH247826   6.158   6.690  13.793 -0.2504  0.6800  0.2378
 8804TIP3    H147827   6.205   6.641  13.727 -0.9935 -0.8074  0.7879
 8804TIP3    H247828   6.182   6.648  13.876 -1.6677  0.5770  0.6198
 8805TIP3   OH247829   6.260   0.084   2.152 -0.0780  0.0310  0.5543
 8805TIP3    H147830   6.291   0.048   2.069 -0.8266  1.1407 -0.2336
 8805TIP3    H247831   6.337   0.086   2.208  0.9831  1.4537 -0.9072
 8806TIP3   OH247832   5.349   2.753  12.470  0.0304  0.0725 -0.6170
 8806TIP3    H147833   5.262   2.724  12.497 -0.3831  1.7228 -0.1528
 8806TIP3    H247834   5.403   2.744  12.548 -0.2441  1.1501 -0.3054
 8807TIP3   OH247835   5.901   2.717   5.838  0.9582 -0.0160 -0.7471
 8807TIP3    H147836   5.920   2.708   5.744  0.9761 -2.8270 -0.5096
 8807TIP3    H247837   5.813   2.752   5.841  0.7155 -0.5052 -1.8424
 8808TIP3   OH247838   6.363   4.184  13.674 -0.3820 -0.0254  0.1357
 8808TIP3    H147839   6.403   4.109  13.631 -2.0675 -0.8073 -0.0862
 8808TIP3    H247840   6.307   4.223  13.606  0.9106  1.7883  0.0612
 8809TIP3   OH247841   0.737   5.092   4.675  0.2318 -0.4059 -0.1070
 8809TIP3    H147842   0.699   5.031   4.738 -0.8349  0.8111  0.4563
 8809TIP3    H247843   0.661   5.135   4.635  0.9555  0.1309 -0.9124
 8810TIP3   OH247844   2.103   3.847   3.178  0.0853 -0.2811  0.1476
 8810TIP3    H147845   2.077   3.847   3.086 -0.3279 -2.0335  0.2625
 8810TIP3    H247846   2.037   3.795   3.223 -0.1619  1.2098  1.5856
 8811TIP3   OH247847   5.112   4.500  10.496 -0.1726  0.1126 -0.3978
 8811TIP3    H147848   5.017   4.514  10.489 -0.0277  1.4844  0.3364
 8811TIP3    H247849   5.120   4.408  10.523 -1.2989  0.0703 -0.1817
 8812TIP3   OH247850   3.839   5.942   6.635 -0.8024  0.3475 -0.2278
 8812TIP3    H147851   3.829   6.037   6.631  1.9832  0.6514 -1.0279
 8812TIP3    H247852   3.876   5.918   6.550 -0.0755 -1.2574  0.5179
 8813TIP3   OH247853   4.991   3.193   2.797 -0.1667 -0.4104 -0.3650
 8813TIP3    H147854   5.053   3.183   2.725  1.2243  0.7700  0.6673
 8813TIP3    H247855   4.906   3.175   2.757  0.6843 -0.6986 -2.0923
 8814TIP3   OH247856   2.189   0.143  14.779  0.6933  0.1491 -0.0366
 8814TIP3    H147857   2.257   0.210  14.784  0.9852  0.0535 -2.2471
 8814TIP3    H247858   2.110   0.191  14.751  0.1493  0.0622  1.3372
 8815TIP3   OH247859   1.833   4.277   2.539 -0.1368  0.2243 -0.4515
 8815TIP3    H147860   1.742   4.291   2.567 -0.6867 -2.6269 -0.7277
 8815TIP3    H247861   1.838   4.318   2.452 -0.5609  2.2002  0.4259
 8816TIP3   OH247862   0.773   6.481  16.729 -0.5312 -0.9374  0.2270
 8816TIP3    H147863   0.760   6.573  16.753 -0.3880 -0.5288 -1.2431
 8816TIP3    H247864   0.685   6.449  16.708 -0.6567 -1.2997  1.2618
 8817TIP3   OH247865   1.092   0.977  10.708 -0.0977 -0.2372 -0.2560
 8817TIP3    H147866   1.104   0.890  10.747  1.3958 -0.4137 -1.0554
 8817TIP3    H247867   1.101   1.038  10.781  1.0175 -0.6496 -0.0436
 8818TIP3   OH247868   2.204   1.687  12.933  0.4074  0.5806  0.2686
 8818TIP3    H147869   2.247   1.609  12.968 -0.9698 -0.4712 -0.3490
 8818TIP3    H247870   2.113   1.680  12.963  0.1156  1.6016 -0.3564
 8819TIP3   OH247871   4.953   0.815  13.209  0.2088  0.2065  0.1280
 8819TIP3    H147872   4.952   0.780  13.120  2.9919  2.4188 -0.8437
 8819TIP3    H247873   4.977   0.907  13.199 -1.0939  0.9373  3.0651
 8820TIP3   OH247874   3.449   0.376   4.076  0.4897 -0.1081  0.3354
 8820TIP3    H147875   3.367   0.331   4.055  0.1483  1.1271 -1.0549
 8820TIP3    H247876   3.426   0.469   4.078  2.4630  0.5209 -3.1826
 8821TIP3   OH247877   5.691   1.885   5.323  0.3147 -0.3762  0.4200
 8821TIP3    H147878   5.671   1.944   5.250  0.4579 -1.5977 -0.6299
 8821TIP3    H247879   5.647   1.924   5.398  0.4393  1.0903 -0.2445
 8822TIP3   OH247880   1.308   2.764  15.484 -0.0888 -0.1226  0.1167
 8822TIP3    H147881   1.385   2.809  15.518 -0.1622  1.0764 -1.2344
 8822TIP3    H247882   1.331   2.741  15.394 -0.9387 -0.6628  0.0297
 8823TIP3   OH247883   3.126   6.774  16.695 -0.3516 -0.8925 -0.3496
 8823TIP3    H147884   3.083   6.721  16.762  0.9026 -2.1265 -0.4917
 8823TIP3    H247885   3.213   6.791  16.731 -0.2447 -0.1682 -0.9532
 8824TIP3   OH247886   2.484   2.258  13.543  0.1172  0.2641  0.4636
 8824TIP3    H147887   2.462   2.345  13.510 -2.8855 -0.9601 -0.9348
 8824TIP3    H247888   2.523   2.213  13.468 -0.3360 -0.2796  0.5482
 8825TIP3   OH247889   1.724   4.706  12.357 -0.2983  0.3084 -0.0073
 8825TIP3    H147890   1.749   4.617  12.385  0.9515  0.0591 -1.8683
 8825TIP3    H247891   1.783   4.726  12.285 -1.1660  2.3320 -0.1777
 8826TIP3   OH247892   6.190   4.198   1.289  0.7498 -0.3878 -0.3277
 8826TIP3    H147893   6.159   4.242   1.209 -0.7321  0.8362  0.8992
 8826TIP3    H247894   6.143   4.115   1.289 -1.0413  0.5924  0.4466
 8827TIP3   OH247895   1.450   2.873   5.024  0.3507 -0.0568  0.2982
 8827TIP3    H147896   1.487   2.866   5.112  0.2496 -0.4655  0.3091
 8827TIP3    H247897   1.424   2.783   5.002  0.2717  0.0656 -0.1022
 8828TIP3   OH247898   1.786   1.142  16.958  0.7225 -0.0893 -0.0802
 8828TIP3    H147899   1.804   1.156  16.865  0.2499  0.6562 -0.0648
 8828TIP3    H247900   1.872   1.133  16.998  0.9522  0.3498 -0.4744
 8829TIP3   OH247901   5.860   5.069   3.978 -0.6966  0.1717  0.4367
 8829TIP3    H147902   5.799   4.996   3.986 -0.3016 -0.2393 -0.2558
 8829TIP3    H247903   5.946   5.031   3.996 -0.2161 -0.0288 -2.1776
 8830TIP3   OH247904   0.329   4.575  16.036 -0.3526  0.3379 -0.1390
 8830TIP3    H147905   0.349   4.642  15.971 -0.3314 -0.5851 -1.0942
 8830TIP3    H247906   0.342   4.619  16.121  1.6638  0.9649 -0.7358
 8831TIP3   OH247907   2.569   2.635  15.764 -0.1011 -0.2204 -0.0812
 8831TIP3    H147908   2.628   2.698  15.807  0.5436  0.2712 -1.6554
 8831TIP3    H247909   2.587   2.645  15.670 -2.8223  0.0472 -0.6034
 8832TIP3   OH247910   1.713   4.235  15.864  0.2540  0.3338  0.3670
 8832TIP3    H147911   1.696   4.185  15.784  1.5806 -0.6690  0.6894
 8832TIP3    H247912   1.713   4.170  15.934  0.3453  1.0264  1.0228
 8833TIP3   OH247913   1.375   0.100  14.099  0.0583  0.0102  0.4973
 8833TIP3    H147914   1.339   0.185  14.076 -1.1049 -1.1548 -2.2449
 8833TIP3    H247915   1.469   0.107  14.081 -0.3708  0.0785 -1.8318
 8834TIP3   OH247916   0.163   5.350  13.542 -0.3029 -0.7442  0.4209
 8834TIP3    H147917   0.077   5.368  13.504  0.4943  3.5273  0.4139
 8834TIP3    H247918   0.225   5.397  13.487  1.4950  0.4313  3.2899
 8835TIP3   OH247919   6.030   1.169   3.123 -0.0402 -0.5995  0.2871
 8835TIP3    H147920   6.078   1.098   3.166  0.6325  0.1414  0.7683
 8835TIP3    H247921   5.941   1.135   3.114  0.1684 -1.3409  0.9190
 8836TIP3   OH247922   1.496   1.086  13.104  0.4142  0.6398 -0.3119
 8836TIP3    H147923   1.525   1.000  13.072 -1.7009 -0.4502  0.6101
 8836TIP3    H247924   1.565   1.113  13.166 -0.2500 -1.7065  1.5348
 8837TIP3   OH247925   2.002   5.473  12.795 -0.1008  0.0213  0.6704
 8837TIP3    H147926   2.035   5.502  12.880 -0.7597 -1.3521  1.4111
 8837TIP3    H247927   2.069   5.414  12.761  0.5071  1.1556 -0.1094
 8838TIP3   OH247928   2.599   4.207   2.447 -0.1111 -0.0823  0.1012
 8838TIP3    H147929   2.541   4.141   2.409  2.6653 -2.0330 -0.9766
 8838TIP3    H247930   2.575   4.289   2.404 -0.9769 -1.1554 -1.5005
 8839TIP3   OH247931   3.435   0.212   2.204 -0.6222  0.3668 -0.0250
 8839TIP3    H147932   3.411   0.298   2.238 -0.6618  0.4371 -0.2271
 8839TIP3    H247933   3.368   0.153   2.239 -2.7462  1.0121 -2.7987
 8840TIP3   OH247934   4.491   6.382  13.594 -0.1111 -0.0547  0.0046
 8840TIP3    H147935   4.446   6.387  13.509 -2.0645 -0.2571  0.9946
 8840TIP3    H247936   4.437   6.322  13.646  1.7317 -0.8887  1.0012
 8841TIP3   OH247937   3.893   5.779   1.585  0.0413 -0.0295 -0.0106
 8841TIP3    H147938   3.847   5.720   1.525 -0.1579 -0.0380  0.1510
 8841TIP3    H247939   3.986   5.760   1.571 -0.0762 -2.9546  2.6022
 8842TIP3   OH247940   6.143   3.506   1.696  0.1095  0.4910 -0.5994
 8842TIP3    H147941   6.203   3.432   1.692  0.9382  0.9563  1.9966
 8842TIP3    H247942   6.149   3.547   1.610 -0.0282 -2.1778 -1.9203
 8843TIP3   OH247943   1.793   5.609  15.487 -0.3730 -0.0182 -0.1420
 8843TIP3    H147944   1.880   5.613  15.447 -1.1355  1.5004 -1.7032
 8843TIP3    H247945   1.798   5.667  15.562  0.1326 -0.4374  0.1596
 8844TIP3   OH247946   1.812   0.321  11.695  0.1015  0.2202 -0.0754
 8844TIP3    H147947   1.858   0.311  11.612  2.1267 -0.0900  1.0359
 8844TIP3    H247948   1.778   0.411  11.693  1.1593  0.6137 -0.7464
 8845TIP3   OH247949   1.189   6.695  12.656  0.0932 -0.0021 -0.2545
 8845TIP3    H147950   1.105   6.654  12.636  0.9042 -0.2241 -3.5016
 8845TIP3    H247951   1.177   6.787  12.632  1.2982 -0.4113 -2.6341
 8846TIP3   OH247952   2.452   4.963  16.515  0.3130 -0.2326 -0.7005
 8846TIP3    H147953   2.470   4.929  16.603 -0.6247 -0.9157 -0.7703
 8846TIP3    H247954   2.444   5.058  16.528 -1.6130 -0.5044  0.2648
 8847TIP3   OH247955   1.839   5.245   1.380 -0.1492 -0.3558  1.1468
 8847TIP3    H147956   1.745   5.260   1.392 -0.6442  1.1982 -3.6803
 8847TIP3    H247957   1.882   5.314   1.431 -1.7000  0.4687  1.3527
 8848TIP3   OH247958   0.780   4.588   6.087 -0.1349 -0.2400  0.1457
 8848TIP3    H147959   0.830   4.507   6.085 -0.4548 -0.4199 -0.8378
 8848TIP3    H247960   0.840   4.655   6.055 -0.5683 -0.4887 -1.2208
 8849TIP3   OH247961   5.711   3.713   1.511 -0.6569 -0.2568 -0.6310
 8849TIP3    H147962   5.663   3.737   1.431 -1.5358  1.0749  0.2658
 8849TIP3    H247963   5.732   3.620   1.500 -3.6383 -0.9361 -0.9808
 8850TIP3   OH247964   2.692   3.866   5.053  0.2915 -0.4186  0.1134
 8850TIP3    H147965   2.607   3.837   5.021 -0.4735 -1.2214  2.7127
 8850TIP3    H247966   2.672   3.938   5.114  1.5729  0.2131 -0.1737
 8851TIP3   OH247967   1.159   4.330  11.057  0.0207  0.4649 -0.1219
 8851TIP3    H147968   1.151   4.404  10.998  0.7017  0.1019 -0.6803
 8851TIP3    H247969   1.203   4.365  11.135 -0.0286  0.7316 -0.2149
 8852TIP3   OH247970   1.883   4.975   3.207 -0.0292 -0.2685 -0.8285
 8852TIP3    H147971   1.899   5.069   3.212  1.0177 -0.3215 -2.7760
 8852TIP3    H247972   1.796   4.968   3.168  0.4817 -0.0971 -2.0341
 8853TIP3   OH247973   1.539   0.003   5.698 -0.2071  0.3304  0.7980
 8853TIP3    H147974   1.546  -0.021   5.791 -1.2537 -0.3150  0.7179
 8853TIP3    H247975   1.504  -0.075   5.656  2.2797 -0.1182 -0.5047
 8854TIP3   OH247976   2.842   2.959  12.876 -0.1626  0.4421 -0.5148
 8854TIP3    H147977   2.765   2.956  12.819  2.0007 -0.5138 -3.4914
 8854TIP3    H247978   2.841   2.875  12.922 -1.1706  0.6579 -0.1184
 8855TIP3   OH247979   5.775   0.025   1.591 -0.0352 -0.2436 -0.1683
 8855TIP3    H147980   5.695   0.057   1.633 -0.4581 -0.5999 -0.6990
 8855TIP3    H247981   5.800   0.094   1.530 -0.0533 -0.2223 -0.1520
 8856TIP3   OH247982   4.511   1.986  14.959 -0.4776  0.0400 -0.2071
 8856TIP3    H147983   4.546   2.024  15.040 -0.2870  0.2751 -0.3987
 8856TIP3    H247984   4.424   2.024  14.950  0.0557  1.1215 -0.8659
 8857TIP3   OH247985   3.250   5.786   0.426  0.3100  0.4280  0.2184
 8857TIP3    H147986   3.335   5.829   0.430  0.4627  0.1621 -0.1131
 8857TIP3    H247987   3.187   5.854   0.448  0.5604  0.7943 -0.1913
 8858TIP3   OH247988   1.336   4.264  15.957 -0.0901 -0.3588  0.8553
 8858TIP3    H147989   1.381   4.282  15.875 -3.2352  1.8547 -0.4600
 8858TIP3    H247990   1.353   4.341  16.012  1.1583 -1.3820  1.9473
 8859TIP3   OH247991   3.532   1.015   3.137  0.6214 -0.1990  0.0716
 8859TIP3    H147992   3.519   0.946   3.072  1.1302 -1.2066  1.0201
 8859TIP3    H247993   3.480   0.986   3.212 -0.6787  1.4029 -0.1932
 8860TIP3   OH247994   1.143   2.611  16.263  0.0475  0.4553 -0.1437
 8860TIP3    H147995   1.064   2.657  16.292 -1.6459 -1.5321 -1.4723
 8860TIP3    H247996   1.121   2.518  16.270  2.0503 -0.1256 -1.1747
 8861TIP3   OH247997   2.021   4.847  13.312 -0.0522 -0.5782  0.5533
 8861TIP3    H147998   2.035   4.939  13.336 -1.6405  0.1546 -1.2185
 8861TIP3    H247999   1.962   4.813  13.379 -0.3965  0.0256  0.5634
 8862TIP3   OH248000   1.795   4.978   0.821 -0.0357  0.1711 -0.5457
 8862TIP3    H148001   1.806   4.954   0.729 -2.3641 -0.5050 -0.6674
 8862TIP3    H248002   1.783   4.895   0.867 -3.8467  0.7352 -0.3718
 8863TIP3   OH248003   2.739   6.014   1.932  0.0998 -0.3871  0.0222
 8863TIP3    H148004   2.786   6.075   1.876 -1.9560  0.0064 -1.3062
 8863TIP3    H248005   2.700   6.069   2.000  0.7433 -0.6110  0.5882
 8864TIP3   OH248006   1.541   6.012  12.607  0.1091  0.1364 -1.0665
 8864TIP3    H148007   1.540   6.068  12.685  0.4581 -1.4033  0.0760
 8864TIP3    H248008   1.481   5.940  12.629  0.8231 -0.7189 -1.9030
 8865TIP3   OH248009   0.902   6.209   3.066  0.6573  0.3167 -0.5220
 8865TIP3    H148010   0.971   6.145   3.083 -1.1728 -1.6470 -0.2572
 8865TIP3    H248011   0.835   6.159   3.019 -1.8360  1.4346  1.7604
 8866TIP3   OH248012   4.986   2.045  12.884 -0.2023 -0.0043 -0.2533
 8866TIP3    H148013   4.920   2.112  12.864 -1.5486 -1.1351  0.3789
 8866TIP3    H248014   5.031   2.079  12.962  0.7195  1.2990 -1.3350
 8867TIP3   OH248015   5.769   1.058   0.119  0.0619 -0.7915 -0.2250
 8867TIP3    H148016   5.816   1.141   0.117  0.6994 -1.1466 -0.2623
 8867TIP3    H248017   5.821   1.002   0.177 -1.4450 -0.5366  1.4459
 8868TIP3   OH248018   1.137   3.996  12.977 -0.3597 -0.4045  0.2529
 8868TIP3    H148019   1.105   4.081  12.947  1.9809  0.4068 -0.0679
 8868TIP3    H248020   1.169   4.012  13.065 -0.2706 -1.0609  0.3432
 8869TIP3   OH248021   2.359   5.710   4.563  0.0938 -0.4914  0.1924
 8869TIP3    H148022   2.319   5.699   4.477  1.5848  0.2564 -0.6239
 8869TIP3    H248023   2.451   5.688   4.549  0.9826  2.5544  0.9177
 8870TIP3   OH248024   4.743   2.460   1.590 -0.5829  0.4222  0.7957
 8870TIP3    H148025   4.790   2.503   1.518 -2.8997 -2.0792 -2.3600
 8870TIP3    H248026   4.659   2.507   1.594 -1.3115 -0.8346  0.3971
 8871TIP3   OH248027   5.290   4.095   5.748 -0.3139  0.1539  0.1936
 8871TIP3    H148028   5.266   4.177   5.705  1.5336  0.2776 -0.6713
 8871TIP3    H248029   5.265   4.027   5.686 -2.9397 -0.0398  1.4162
 8872TIP3   OH248030   6.248   0.290   6.182 -0.5910  0.3296 -0.1207
 8872TIP3    H148031   6.308   0.237   6.235 -0.4444 -0.8759 -1.4867
 8872TIP3    H248032   6.300   0.318   6.107 -0.8156  2.0082  0.3354
 8873TIP3   OH248033   6.349   6.234  13.175  0.2552  0.9712  0.0757
 8873TIP3    H148034   6.307   6.185  13.105 -0.1110  1.8452 -0.3332
 8873TIP3    H248035   6.362   6.322  13.138  0.3153  1.3591  1.0024
 8874TIP3   OH248036   2.169   1.587   0.913 -0.3710 -0.0568 -0.1481
 8874TIP3    H148037   2.152   1.621   0.825 -0.0596  0.0534 -0.1683
 8874TIP3    H248038   2.237   1.521   0.900  0.8538  1.1089  0.2090
 8875TIP3   OH248039   1.087   2.279  14.532 -0.5585  0.8706 -0.3357
 8875TIP3    H148040   1.131   2.308  14.612 -0.3481  1.2074 -0.5733
 8875TIP3    H248041   1.024   2.214  14.562  2.4168 -2.1745 -0.3231
 8876TIP3   OH248042   0.443   0.080   1.128  0.5415 -0.1580  0.7718
 8876TIP3    H148043   0.444   0.010   1.062  2.3144 -0.7841  1.4258
 8876TIP3    H248044   0.445   0.033   1.211  0.0257  0.6652  1.2513
 8877TIP3   OH248045   3.051   4.943  15.063  0.2868 -0.3760 -0.1590
 8877TIP3    H148046   2.961   4.958  15.035  0.1339 -0.6157  0.1912
 8877TIP3    H248047   3.105   4.976  14.991 -0.0810 -0.2236 -0.3653
 8878TIP3   OH248048   1.202   0.093   2.361  0.1033 -0.0888  0.6027
 8878TIP3    H148049   1.276   0.045   2.398 -0.1484 -0.9926 -0.0480
 8878TIP3    H248050   1.127   0.066   2.414 -0.1818 -1.0558 -0.2867
 8879TIP3   OH248051   3.103   0.088   5.783  0.2231  0.3460  0.4936
 8879TIP3    H148052   3.126   0.160   5.843 -2.8283  1.5901  0.2782
 8879TIP3    H248053   3.019   0.057   5.815 -0.1563 -0.8132 -1.5506
 8880TIP3   OH248054   5.067   5.688   5.567  0.2826 -0.2311 -0.0705
 8880TIP3    H148055   5.093   5.655   5.481  0.5510 -0.6432  0.1631
 8880TIP3    H248056   5.066   5.610   5.622 -0.8672 -0.1292  0.0686
 8881TIP3   OH248057   5.004   5.030   4.813  0.0772  0.0339  0.1883
 8881TIP3    H148058   4.908   5.033   4.813  0.1002  0.9155  0.5995
 8881TIP3    H248059   5.028   5.040   4.905  0.5284 -1.9043  0.3116
 8882TIP3   OH248060   2.324   0.733   3.024  0.5369 -0.4542 -0.4534
 8882TIP3    H148061   2.266   0.679   2.971  2.7484 -1.0003 -2.4177
 8882TIP3    H248062   2.405   0.682   3.029  0.6052 -0.1207  2.9625
 8883TIP3   OH248063   0.870   2.860   1.652  0.5884  0.3031 -0.6487
 8883TIP3    H148064   0.783   2.870   1.690  1.3497  2.7421  0.5224
 8883TIP3    H248065   0.868   2.910   1.571  0.2582 -1.4535 -1.7563
 8884TIP3   OH248066   1.205   1.190   4.685 -0.0610  0.4536 -0.7100
 8884TIP3    H148067   1.161   1.189   4.600  0.0540 -1.1480 -0.7711
 8884TIP3    H248068   1.292   1.153   4.667 -0.3334 -0.6901  0.2401
 8885TIP3   OH248069   0.225   2.518  12.931  0.2841  0.5625 -0.5010
 8885TIP3    H148070   0.289   2.585  12.905 -0.3633  1.2471 -0.3334
 8885TIP3    H248071   0.272   2.465  12.996  0.2305  1.9273  0.6855
 8886TIP3   OH248072   5.550   3.882   6.010  0.1946  0.3399  0.0761
 8886TIP3    H148073   5.583   3.839   6.089  1.2494  1.4375  0.2460
 8886TIP3    H248074   5.455   3.879   6.018  0.2685 -0.9544  0.6207
 8887TIP3   OH248075   4.855   6.174  15.194 -0.5335  0.4907  0.3571
 8887TIP3    H148076   4.762   6.161  15.213 -0.8005  1.6826 -0.0766
 8887TIP3    H248077   4.872   6.265  15.219  0.5302  0.2671  0.4796
 8888TIP3   OH248078   0.969   3.211  11.209 -0.0064 -0.1417 -0.3583
 8888TIP3    H148079   0.987   3.152  11.136  0.9485  1.0336 -1.0938
 8888TIP3    H248080   0.896   3.265  11.179 -0.2924 -0.3425 -0.0343
 8889TIP3   OH248081   3.958   2.994   5.788  0.2684  0.0899 -0.1874
 8889TIP3    H148082   3.920   2.956   5.709 -1.0487 -0.4988  0.7078
 8889TIP3    H248083   3.901   3.068   5.809 -0.6699 -1.0543  1.4066
 8890TIP3   OH248084   0.736   0.087  11.911  0.0105  0.6516 -0.1357
 8890TIP3    H148085   0.674   0.020  11.938 -1.7609  1.7561 -1.2848
 8890TIP3    H248086   0.723   0.158  11.974 -0.4378  1.1695 -0.7970
 8891TIP3   OH248087   5.357   5.630  14.134 -0.5701  0.4456  0.2288
 8891TIP3    H148088   5.322   5.711  14.097 -2.6678 -1.6500 -2.6784
 8891TIP3    H248089   5.280   5.584  14.167 -0.1707 -2.4459 -2.5518
 8892TIP3   OH248090   6.755   5.808  16.201  0.3345  0.4250  0.4892
 8892TIP3    H148091   6.769   5.882  16.260  1.0657  0.5851  0.1273
 8892TIP3    H248092   6.831   5.809  16.143 -0.7103  0.7023 -0.9098
 8893TIP3   OH248093   0.320   1.584  14.975  0.0604 -0.2847 -0.0005
 8893TIP3    H148094   0.309   1.679  14.979 -0.0511 -0.3126  0.4842
 8893TIP3    H248095   0.398   1.568  15.028  1.7585 -0.2012 -2.4294
 8894TIP3   OH248096   0.105   3.990   2.356 -0.3142 -0.1436  0.0336
 8894TIP3    H148097   0.133   3.908   2.398  1.5626 -0.1461 -1.1609
 8894TIP3    H248098   0.147   4.059   2.408 -0.9543  0.0054  0.3490
 8895TIP3   OH248099   4.919   1.413   2.552 -0.2400  0.5483 -0.4440
 8895TIP3    H148100   4.898   1.446   2.465 -0.6781  1.1633 -0.1181
 8895TIP3    H248101   4.988   1.472   2.584  0.4329 -0.1145 -0.6495
 8896TIP3   OH248102   0.105   5.156  13.206 -0.1293  0.1845 -0.1576
 8896TIP3    H148103   0.029   5.208  13.232  0.6891  1.0949  0.4550
 8896TIP3    H248104   0.069   5.083  13.157 -1.2078  2.1541 -2.4009
 8897TIP3   OH248105   6.549   5.679  16.308  0.2791  0.0761  0.0047
 8897TIP3    H148106   6.484   5.742  16.339  0.7934  1.8229 -2.3180
 8897TIP3    H248107   6.625   5.732  16.286  0.6544 -1.3070 -2.1818
 8898TIP3   OH248108   5.641   0.962   2.892 -0.0439 -0.8890 -0.1518
 8898TIP3    H148109   5.618   1.007   2.810 -3.8432 -0.3656  1.1021
 8898TIP3    H248110   5.589   0.882   2.890 -0.6819 -0.5504  2.0273
 8899TIP3   OH248111   0.487   5.654   1.821 -0.2415  0.3932 -0.0158
 8899TIP3    H148112   0.522   5.567   1.802  0.0616  0.2447  1.1773
 8899TIP3    H248113   0.410   5.638   1.875 -0.2355  0.8554  0.1330
 8900TIP3   OH248114   2.886   0.455  13.971  0.6020  0.2903 -0.0607
 8900TIP3    H148115   2.879   0.367  13.934  1.1699  0.4296 -0.5082
 8900TIP3    H248116   2.798   0.474  14.004  0.3802 -0.2940 -0.3009
 8901TIP3   OH248117   5.328   5.689   3.980  0.3361  0.1047 -0.4030
 8901TIP3    H148118   5.377   5.629   4.037  1.2691  2.3462  1.2354
 8901TIP3    H248119   5.301   5.635   3.906 -1.3272 -3.0537  2.3351
 8902TIP3   OH248120   4.984   5.900   4.953  0.1628 -0.2804 -0.0395
 8902TIP3    H148121   4.939   5.816   4.962 -0.3496  0.0355  0.4376
 8902TIP3    H248122   5.075   5.878   4.938  0.1927 -0.9187  1.0098
 8903TIP3   OH248123   0.402   1.338  11.332  0.0792  0.2819  0.5683
 8903TIP3    H148124   0.331   1.375  11.279  0.3389 -2.1774 -1.5713
 8903TIP3    H248125   0.475   1.397  11.318 -0.1362  0.1889 -1.1057
 8904TIP3   OH248126   2.780   3.828   5.435 -0.7015 -0.2624  0.1731
 8904TIP3    H148127   2.729   3.754   5.401  0.2657 -1.5794  1.5464
 8904TIP3    H248128   2.831   3.858   5.360 -0.8375 -1.2280 -0.3200
 8905TIP3   OH248129   3.151   1.970  15.236 -0.2192  0.0810  0.0417
 8905TIP3    H148130   3.153   1.942  15.145 -0.0813 -0.5611  0.2368
 8905TIP3    H248131   3.209   1.909  15.282  1.0662  1.4562  0.2814
 8906TIP3   OH248132   5.149   2.848  12.085 -0.4564 -0.3173  0.4228
 8906TIP3    H148133   5.088   2.902  12.136 -2.3938 -0.9819 -1.1337
 8906TIP3    H248134   5.103   2.764  12.076  0.4279 -0.6131 -1.3204
 8907TIP3   OH248135   2.032   2.533  14.752  0.5072 -0.1725  0.0758
 8907TIP3    H148136   2.035   2.492  14.838  0.6844 -0.5548 -0.1129
 8907TIP3    H248137   2.101   2.490  14.702  0.0023 -0.3931 -0.4486
 8908TIP3   OH248138   2.334   3.026   2.372  0.0227  0.3715 -0.1653
 8908TIP3    H148139   2.294   3.083   2.307 -0.3296  0.3232  0.0111
 8908TIP3    H248140   2.414   2.995   2.330  1.0467  2.2493  0.3452
 8909TIP3   OH248141   5.418   0.011   2.299 -0.0125  0.5353  0.2769
 8909TIP3    H148142   5.334  -0.022   2.332  0.5141 -0.2238  0.8722
 8909TIP3    H248143   5.483  -0.025   2.359  0.4902  3.5530  1.6397
 8910TIP3   OH248144   3.187   3.166  11.648 -0.1043  0.1760 -0.0072
 8910TIP3    H148145   3.176   3.208  11.563 -0.3079 -0.1917 -0.1621
 8910TIP3    H248146   3.243   3.090  11.631  0.2912  0.4015  0.2796
 8911TIP3   OH248147   5.159   2.391  12.178 -0.1501  0.2666  0.0740
 8911TIP3    H148148   5.175   2.434  12.262  1.8612  0.1512 -0.2027
 8911TIP3    H248149   5.082   2.337  12.192  0.5533 -0.2667  2.0614
 8912TIP3   OH248150   3.330   6.774  12.029  0.3532  0.0890 -0.4901
 8912TIP3    H148151   3.275   6.842  11.990 -0.4162 -0.6342 -0.6633
 8912TIP3    H248152   3.419   6.808  12.020 -0.0547  1.2933 -0.1514
 8913TIP3   OH248153   6.322   5.834  13.177  0.2926  0.1137 -0.1877
 8913TIP3    H148154   6.229   5.858  13.169  0.3401  0.3728  0.0166
 8913TIP3    H248155   6.355   5.834  13.087  0.8317  2.9795 -0.0522
 8914TIP3   OH248156   4.336   1.191  13.615 -0.4057  0.1224 -0.0995
 8914TIP3    H148157   4.290   1.274  13.622  0.2953  0.4433  0.7531
 8914TIP3    H248158   4.283   1.130  13.667 -0.0273  0.4228  0.6404
 8915TIP3   OH248159   3.152   0.492  14.819 -0.1266  0.0360 -0.1812
 8915TIP3    H148160   3.244   0.504  14.794  0.0040  0.9206  0.6498
 8915TIP3    H248161   3.151   0.511  14.913 -0.9017 -1.4601  0.1183
 8916TIP3   OH248162   0.227   3.624  13.473 -0.1808 -0.0478  0.7096
 8916TIP3    H148163   0.180   3.557  13.423 -0.3087  0.0244  0.7304
 8916TIP3    H248164   0.215   3.597  13.565  2.8960 -2.0613  0.6016
 8917TIP3   OH248165   4.446   5.396  13.031 -0.1135 -0.2731  0.4982
 8917TIP3    H148166   4.404   5.413  13.115 -3.2689 -0.9945 -0.8560
 8917TIP3    H248167   4.414   5.465  12.973  0.9862 -0.5469 -0.4743
 8918TIP3   OH248168   3.601   5.217   1.033  0.5129  0.3356  0.0290
 8918TIP3    H148169   3.686   5.224   0.990  0.3025 -1.1365 -0.6556
 8918TIP3    H248170   3.538   5.222   0.961  0.1304 -1.5401  0.2259
 8919TIP3   OH248171   1.393   4.536   2.834  0.1758  0.0858  0.1594
 8919TIP3    H148172   1.362   4.537   2.744 -0.4074 -1.9464  0.3023
 8919TIP3    H248173   1.480   4.577   2.830 -0.1391  0.6455 -1.1944
 8920TIP3   OH248174   2.551   1.771   0.243  0.0077  0.1898  0.1563
 8920TIP3    H148175   2.480   1.789   0.305 -0.3575 -0.5462 -0.0374
 8920TIP3    H248176   2.549   1.845   0.183  0.4541  0.9845  1.0978
 8921TIP3   OH248177   3.934   3.723   0.893  0.2927 -0.1681  0.0540
 8921TIP3    H148178   4.008   3.719   0.833 -1.2533  0.3005 -1.9107
 8921TIP3    H248179   3.863   3.677   0.848 -0.8555  0.0956  1.5495
 8922TIP3   OH248180   2.166   0.781  14.701 -0.2405 -0.0472 -0.5748
 8922TIP3    H148181   2.147   0.848  14.635  0.7781 -1.6972 -2.6090
 8922TIP3    H248182   2.092   0.721  14.697 -0.1161 -0.2207 -0.2974
 8923TIP3   OH248183   2.470   3.361   1.098  0.6097  0.7549 -0.0259
 8923TIP3    H148184   2.405   3.317   1.152  1.9224 -1.0345  0.1356
 8923TIP3    H248185   2.448   3.334   1.008 -0.7424  2.6485 -0.3031
 8924TIP3   OH248186   0.430   4.595   5.924 -0.1640  0.3086  0.0519
 8924TIP3    H148187   0.438   4.516   5.979 -0.1233  0.5353  0.3724
 8924TIP3    H248188   0.487   4.577   5.849  1.8543  1.0948  1.3606
 8925TIP3   OH248189   5.493   3.406  15.810  0.1748  0.5069  0.1126
 8925TIP3    H148190   5.443   3.443  15.737 -1.1719  1.0749  1.2801
 8925TIP3    H248191   5.495   3.312  15.793  0.0452  0.6608 -0.7647
 8926TIP3   OH248192   2.298   1.804  13.313 -0.5332 -0.1633  0.6165
 8926TIP3    H148193   2.348   1.722  13.313 -0.6765 -0.2490  1.0083
 8926TIP3    H248194   2.206   1.777  13.318 -0.5951  0.0122  0.4509
 8927TIP3   OH248195   0.381   6.274   0.445  0.0326  0.4214 -0.7060
 8927TIP3    H148196   0.347   6.225   0.370  0.3047  1.8157 -1.7665
 8927TIP3    H248197   0.451   6.218   0.480 -0.3038 -0.3825 -1.2971
 8928TIP3   OH248198   0.809   3.003   2.550 -0.2975 -0.3531  0.3725
 8928TIP3    H148199   0.769   2.930   2.502  2.6493 -1.5616 -0.3794
 8928TIP3    H248200   0.810   3.075   2.487  1.8728 -1.3775 -0.8083
 8929TIP3   OH248201   1.337   0.563  12.302 -0.3633 -0.1093  0.0135
 8929TIP3    H148202   1.325   0.640  12.245  1.1293  0.2536  0.1920
 8929TIP3    H248203   1.344   0.599  12.390 -1.0710 -0.5618  0.2570
 8930TIP3   OH248204   0.926   4.879   5.592  0.1087  0.2038  0.2903
 8930TIP3    H148205   0.877   4.815   5.643 -0.7661  1.0482  0.5313
 8930TIP3    H248206   0.986   4.919   5.655 -2.3797  2.6881  1.2030
 8931TIP3   OH248207   6.542   5.005   0.480 -0.8826 -0.5833  0.2746
 8931TIP3    H148208   6.631   5.038   0.464 -1.9864  2.0520 -0.5971
 8931TIP3    H248209   6.529   4.937   0.414  1.1183 -2.2935  1.5657
 8932TIP3   OH248210   2.070   1.596  12.252  0.0918 -0.7675  0.6093
 8932TIP3    H148211   2.117   1.529  12.202  0.7813  0.2594 -0.1395
 8932TIP3    H248212   2.001   1.627  12.193 -1.2556 -1.9342  1.5344
 8933TIP3   OH248213   5.934   0.430  11.847  0.6077  0.3193 -0.3937
 8933TIP3    H148214   5.895   0.449  11.933 -0.9122 -0.5512 -0.8774
 8933TIP3    H248215   6.007   0.371  11.866  0.8668  0.8830  0.3892
 8934TIP3   OH248216   5.883   0.092  16.009 -0.3297 -0.3020  0.0744
 8934TIP3    H148217   5.853   0.094  16.100  1.4218 -0.4765  0.6575
 8934TIP3    H248218   5.968   0.136  16.010 -1.4598  2.0824 -1.9324
 8935TIP3   OH248219   0.291   6.708  16.702 -0.3270 -0.2157 -0.3904
 8935TIP3    H148220   0.362   6.671  16.650  0.4418  0.2287  0.3291
 8935TIP3    H248221   0.312   6.685  16.792 -1.1174 -0.1100 -0.1753
 8936TIP3   OH248222   1.092   6.386  12.202  0.6541  0.1573 -0.4948
 8936TIP3    H148223   1.184   6.411  12.208  1.3387 -2.4213  0.3683
 8936TIP3    H248224   1.086   6.303  12.251 -2.0947  0.2325 -0.6172
 8937TIP3   OH248225   6.725   5.562  16.064 -0.0600  0.6646  0.0694
 8937TIP3    H148226   6.704   5.633  16.125 -1.1633 -0.2050  0.7303
 8937TIP3    H248227   6.649   5.504  16.068  0.6262 -0.3164 -0.8162
 8938TIP3   OH248228   4.748   4.943   4.742 -0.0769 -0.1172 -0.0205
 8938TIP3    H148229   4.699   4.915   4.819  1.4477  0.0998  1.0648
 8938TIP3    H248230   4.785   4.862   4.706  0.6238 -0.0281  0.4883
 8939TIP3   OH248231   5.873   1.453  15.617 -0.2811  0.2894  0.0148
 8939TIP3    H148232   5.781   1.445  15.590 -0.2354 -0.6117  0.1039
 8939TIP3    H248233   5.923   1.418  15.543 -0.0538 -0.1156  0.3570
 8940TIP3   OH248234   1.882   3.818  14.075 -0.7363  0.3400  0.5385
 8940TIP3    H148235   1.869   3.888  14.010 -0.3485  0.7012  0.8473
 8940TIP3    H248236   1.960   3.845  14.124 -2.3706  1.2519  2.7089
 8941TIP3   OH248237   1.327   3.640  17.101  0.0065 -0.4631 -0.1388
 8941TIP3    H148238   1.336   3.696  17.178  0.5961 -0.4434 -0.2265
 8941TIP3    H248239   1.237   3.606  17.107  0.9894 -2.7967  2.1021
 8942TIP3   OH248240   2.673   4.246  13.339  0.7728  0.1745 -0.7585
 8942TIP3    H148241   2.710   4.247  13.427  1.1938 -0.7074 -0.9176
 8942TIP3    H248242   2.617   4.323  13.335  0.6164  0.1219  0.3383
 8943TIP3   OH248243   6.334   5.838  15.494 -0.5987  0.1717 -0.2418
 8943TIP3    H148244   6.376   5.826  15.409 -0.4368  0.0609 -0.1482
 8943TIP3    H248245   6.404   5.819  15.558 -0.5165  1.0049 -0.0877
 8944TIP3   OH248246   1.041   2.075   4.419  0.0292 -0.2241  0.0055
 8944TIP3    H148247   1.017   2.040   4.504  2.5697 -1.6123  0.1896
 8944TIP3    H248248   1.069   2.165   4.436  0.7698 -0.5821  0.6815
 8945TIP3   OH248249   3.754   5.961  13.525 -0.8642 -0.5871 -0.3771
 8945TIP3    H148250   3.777   5.926  13.611  0.4596 -2.3525 -1.3946
 8945TIP3    H248251   3.767   6.055  13.533  2.5665 -1.0442  0.4459
 8946TIP3   OH248252   3.970   1.236  15.034  0.6020  0.8715  0.2410
 8946TIP3    H148253   4.028   1.166  15.065 -0.2668  0.3000  0.6181
 8946TIP3    H248254   3.889   1.223  15.084  0.1629  1.6755 -0.2563
 8947TIP3   OH248255   2.148   6.074  12.485  0.2637  0.0680  0.3980
 8947TIP3    H148256   2.091   6.059  12.561 -1.0298 -0.5004 -0.6551
 8947TIP3    H248257   2.120   6.009  12.421  0.3882  1.4321 -1.0746
 8948TIP3   OH248258   5.350   4.620  12.539  0.3519 -0.3713  0.0712
 8948TIP3    H148259   5.270   4.635  12.489  0.7805 -0.3483 -0.6061
 8948TIP3    H248260   5.319   4.595  12.626 -0.4000 -1.3154 -0.4550
 8949TIP3   OH248261   4.821   4.384   4.392  0.6463  0.0307 -0.0807
 8949TIP3    H148262   4.782   4.332   4.462  0.5040  0.7750  0.3914
 8949TIP3    H248263   4.790   4.342   4.311 -0.3155 -0.0023  0.2967
 8950TIP3   OH248264   4.062   1.502  10.643  0.6262  0.3588  0.2260
 8950TIP3    H148265   4.097   1.453  10.718  0.6215 -1.1588 -0.7375
 8950TIP3    H248266   4.124   1.484  10.572  1.6746  3.3152  0.3287
 8951TIP3   OH248267   0.825   3.133  14.110 -0.4149 -0.0362 -0.5224
 8951TIP3    H148268   0.836   3.086  14.192  0.6455  0.2742 -0.4897
 8951TIP3    H248269   0.730   3.131  14.094 -0.3943 -2.1034 -0.4884
 8952TIP3   OH248270   2.245   3.014   6.674 -0.4793  0.3124 -0.4436
 8952TIP3    H148271   2.205   3.042   6.756  1.3499 -1.4684  1.1104
 8952TIP3    H248272   2.270   3.095   6.631 -1.7359  1.2845  0.6117
 8953TIP3   OH248273   2.053   2.728   0.037  1.1789 -0.0551  0.1088
 8953TIP3    H148274   2.134   2.773   0.061  0.4392  1.3056  0.1173
 8953TIP3    H248275   2.051   2.730  -0.058  0.9091  0.3857  0.1190
 8954TIP3   OH248276   1.789   5.195   4.055  0.5316  0.6902  0.3616
 8954TIP3    H148277   1.772   5.150   3.972 -1.0719  0.8665  0.5933
 8954TIP3    H248278   1.814   5.124   4.115 -0.1964  0.3305  0.2439
 8955TIP3   OH248279   0.989   3.154   0.726 -0.0592  0.1245  0.2773
 8955TIP3    H148280   0.930   3.084   0.698 -0.4468  0.8326 -0.7266
 8955TIP3    H248281   0.932   3.223   0.757  0.3163  0.0652  1.1020
 8956TIP3   OH248282   0.517   4.984  13.500 -0.4030 -0.4972 -0.0307
 8956TIP3    H148283   0.588   4.965  13.561 -1.3922  0.6926  1.5557
 8956TIP3    H248284   0.537   5.072  13.467  0.0964 -1.1142 -1.3914
 8957TIP3   OH248285   1.623   1.684  12.925  0.2733  0.3283 -0.1500
 8957TIP3    H148286   1.692   1.656  12.866 -0.3767  0.7140 -1.0983
 8957TIP3    H248287   1.579   1.755  12.879 -0.6748  0.1733  0.4961
 8958TIP3   OH248288   0.045   6.532  14.735  0.1751 -0.5190  0.3516
 8958TIP3    H148289   0.101   6.532  14.657  0.9039 -2.7599  0.8323
 8958TIP3    H248290  -0.005   6.451  14.729 -1.5351  0.4653  1.0074
 8959TIP3   OH248291   3.986   4.713  16.734  0.3068 -0.0653  0.0184
 8959TIP3    H148292   3.968   4.794  16.781  1.3567  0.3408 -0.2445
 8959TIP3    H248293   3.948   4.726  16.647 -0.0686 -0.1023  0.1785
 8960TIP3   OH248294   3.322   0.022  14.264  0.3545  0.2842  0.1940
 8960TIP3    H148295   3.260  -0.024  14.320 -0.5735  1.8618  0.4689
 8960TIP3    H248296   3.268   0.072  14.203  1.3409 -0.9360 -1.7656
 8961TIP3   OH248297   3.641   5.547  14.208 -0.7575 -0.1003 -0.4329
 8961TIP3    H148298   3.597   5.489  14.146 -1.6137 -0.5929  0.6224
 8961TIP3    H248299   3.578   5.559  14.279 -1.0705  3.0185 -1.1530
 8962TIP3   OH248300   4.453   3.957   5.641 -0.0149  0.3794  0.3624
 8962TIP3    H148301   4.504   3.879   5.662 -0.2538  0.2035  0.2909
 8962TIP3    H248302   4.420   3.987   5.726  0.1551  0.4574  0.4005
 8963TIP3   OH248303   0.582   0.077   0.071 -0.3069  0.2171  0.5723
 8963TIP3    H148304   0.577   0.167   0.036 -0.2177 -0.7008 -1.9454
 8963TIP3    H248305   0.503   0.068   0.125 -1.1888  1.3048 -0.4948
 8964TIP3   OH248306   4.781   5.671  14.206 -0.3797  0.4538  0.2007
 8964TIP3    H148307   4.812   5.584  14.230  1.2256  1.1757  0.8232
 8964TIP3    H248308   4.753   5.662  14.115 -1.4587 -1.0154  0.6608
 8965TIP3   OH248309   2.959   4.809   2.807 -0.1916  0.1630  0.0152
 8965TIP3    H148310   2.985   4.737   2.864  1.1790  1.3606  0.9490
 8965TIP3    H248311   2.980   4.779   2.719  2.4115  0.2425  0.5605
 8966TIP3   OH248312   2.686   0.738  10.482 -0.3320  0.2779  0.0713
 8966TIP3    H148313   2.705   0.644  10.488 -0.9152  0.1327 -0.3266
 8966TIP3    H248314   2.595   0.742  10.451 -0.6906  0.9615  1.1499
 8967TIP3   OH248315   4.875   6.156  16.522 -0.2331  0.1924 -0.2350
 8967TIP3    H148316   4.824   6.157  16.441  0.7026 -0.0145 -0.8356
 8967TIP3    H248317   4.929   6.077  16.515  1.4173  1.2927 -0.4029
 8968TIP3   OH248318   6.378   1.638  14.807 -0.5561  0.3345  0.4489
 8968TIP3    H148319   6.331   1.709  14.763  1.1628  0.4569 -1.2887
 8968TIP3    H248320   6.373   1.565  14.745  1.0624  0.2017  0.4558
 8969TIP3   OH248321   2.083   0.735  15.669 -0.3229 -0.5784  0.0107
 8969TIP3    H148322   2.045   0.696  15.591 -2.2953 -1.7502  1.5321
 8969TIP3    H248323   2.013   0.786  15.708  0.8179  0.4943  0.7132
 8970TIP3   OH248324   2.829   6.772   4.325 -0.0547 -0.6056 -1.1309
 8970TIP3    H148325   2.779   6.710   4.272 -1.5121 -0.9277  0.5910
 8970TIP3    H248326   2.797   6.858   4.298 -1.6835 -0.8128  0.0550
 8971TIP3   OH248327   5.266   0.607  13.378 -0.1231  0.1375  0.9657
 8971TIP3    H148328   5.177   0.626  13.346 -0.8321  0.0682  2.8235
 8971TIP3    H248329   5.301   0.693  13.402  0.2957  0.1582  0.2826
 8972TIP3   OH248330   3.578   4.783  16.893 -0.6280 -0.2368  0.0653
 8972TIP3    H148331   3.486   4.794  16.868 -0.7855 -0.1241  0.6832
 8972TIP3    H248332   3.622   4.758  16.812 -1.3117 -0.8962 -0.1140
 8973TIP3   OH248333   4.566   5.954  10.748 -0.1455 -0.2361  0.2503
 8973TIP3    H148334   4.501   5.997  10.804 -0.2830  0.7479 -0.6308
 8973TIP3    H248335   4.518   5.882  10.707 -0.4583 -0.0115  0.2155
 8974TIP3   OH248336   5.478   0.601   0.660 -0.1858 -0.0241 -0.5294
 8974TIP3    H148337   5.548   0.563   0.607 -0.6944 -1.1872 -0.3798
 8974TIP3    H248338   5.522   0.637   0.737  0.5382  1.5171 -1.6415
 8975TIP3   OH248339   1.860   5.689   3.314 -0.0366  0.3200 -0.0472
 8975TIP3    H148340   1.899   5.614   3.269 -0.7378  0.0717 -0.2398
 8975TIP3    H248341   1.909   5.765   3.281 -0.4231  0.1231 -1.0899
 8976TIP3   OH248342   4.085   0.197  12.865 -0.1897  0.3059 -0.0508
 8976TIP3    H148343   4.168   0.162  12.833 -0.8297 -0.7381 -0.5962
 8976TIP3    H248344   4.109   0.251  12.940  0.7433 -2.0577  1.4000
 8977TIP3   OH248345   0.034   1.315  16.907 -0.1084 -0.4809  0.0250
 8977TIP3    H148346  -0.023   1.333  16.981 -2.8125 -1.5056 -1.7199
 8977TIP3    H248347   0.035   1.220  16.899  1.2065 -0.4456 -0.4775
 8978TIP3   OH248348   2.154   2.340  11.905 -0.0895 -0.0139 -0.5654
 8978TIP3    H148349   2.222   2.314  11.843  0.2500  1.4249 -0.8140
 8978TIP3    H248350   2.197   2.401  11.965 -0.9548  0.2833 -0.2308
 8979TIP3   OH248351   1.351   6.143  11.232 -0.3485  0.3455  0.3926
 8979TIP3    H148352   1.342   6.049  11.217 -0.3614  0.0198  2.3378
 8979TIP3    H248353   1.418   6.150  11.300  0.7852  1.8304 -0.8464
 8980TIP3   OH248354   6.283   1.133   1.997 -0.0487 -0.0339 -0.2687
 8980TIP3    H148355   6.281   1.113   2.091  0.4139  4.3909  0.7953
 8980TIP3    H248356   6.197   1.172   1.979  1.6091  3.7564 -0.4430
 8981TIP3   OH248357   5.041   2.459  16.006 -0.4042  0.1494 -0.4040
 8981TIP3    H148358   4.998   2.543  15.989  0.7930  0.5937 -1.2887
 8981TIP3    H248359   4.975   2.408  16.053 -0.6117  2.1317  1.5478
 8982TIP3   OH248360   1.857   2.267  14.413  0.4190  0.0802  0.2530
 8982TIP3    H148361   1.777   2.232  14.374  0.2166 -0.6126  1.2581
 8982TIP3    H248362   1.846   2.362  14.413 -0.7280 -0.0539  1.0803
 8983TIP3   OH248363   6.526   0.054  11.806  0.3401 -0.2742  0.3728
 8983TIP3    H148364   6.614   0.044  11.770 -0.7389 -1.1464 -2.1930
 8983TIP3    H248365   6.499   0.142  11.777  0.5366  0.2034  1.6030
 8984TIP3   OH248366   6.006   4.113  15.074  0.0471 -0.8646 -0.4716
 8984TIP3    H148367   5.925   4.123  15.123 -0.0584 -0.7588 -0.6671
 8984TIP3    H248368   6.036   4.025  15.095  0.4678 -0.4996  0.4903
 8985TIP3   OH248369   0.027   6.344   5.648 -0.1991  0.2787  0.1443
 8985TIP3    H148370   0.054   6.319   5.736 -1.5593 -0.6154  0.3319
 8985TIP3    H248371   0.059   6.273   5.591  1.0203  1.0512 -0.1408
 8986TIP3   OH248372   6.732   6.312   1.355 -0.2371  1.5205  0.2905
 8986TIP3    H148373   6.641   6.313   1.385 -0.0280  0.5570  0.9579
 8986TIP3    H248374   6.725   6.293   1.261 -0.6421 -0.5456  0.7099
 8987TIP3   OH248375   2.644   6.745  16.527 -0.0676  0.2971  0.0390
 8987TIP3    H148376   2.648   6.824  16.580  2.0473 -0.6575  1.3274
 8987TIP3    H248377   2.655   6.673  16.589  0.7970 -0.9014 -1.4568
 8988TIP3   OH248378   1.183   6.116  13.863  0.5514 -0.2314  0.5876
 8988TIP3    H148379   1.169   6.167  13.784  0.1773  1.5434  1.7711
 8988TIP3    H248380   1.278   6.104  13.868  0.8567  2.2307  1.4192
 8989TIP3   OH248381   5.826   1.842   1.031  0.5140 -0.2819  0.1166
 8989TIP3    H148382   5.911   1.850   0.987  1.0451 -0.8810  1.0013
 8989TIP3    H248383   5.812   1.747   1.038 -0.0054 -0.1842  0.4004
 8990TIP3   OH248384   0.950   4.926   4.413  0.3288  0.6103 -0.1881
 8990TIP3    H148385   0.988   4.936   4.501  0.3875 -0.6927 -0.0691
 8990TIP3    H248386   0.862   4.964   4.422  0.1321  0.0061  0.5862
 8991TIP3   OH248387   1.781   0.028   1.623  0.7112  0.0899 -0.2386
 8991TIP3    H148388   1.728   0.010   1.546 -0.6707  1.5679  0.3424
 8991TIP3    H248389   1.754  -0.040   1.686  1.1544 -0.5339 -0.7117
 8992TIP3   OH248390   3.464   1.731   0.031 -0.2025  0.5025  0.6387
 8992TIP3    H148391   3.467   1.643  -0.007 -0.1617  0.5734  0.4783
 8992TIP3    H248392   3.449   1.789  -0.044  1.4174  0.7868  0.5112
 8993TIP3   OH248393   5.909   0.527  16.664  0.7949 -0.1171 -0.1226
 8993TIP3    H148394   5.829   0.562  16.625  1.6820  1.3520 -0.6807
 8993TIP3    H248395   5.905   0.433  16.646 -0.6458 -0.0140 -0.4098
 8994TIP3   OH248396   5.871   6.285  13.847 -0.1482  0.0443 -0.4766
 8994TIP3    H148397   5.847   6.335  13.769  0.1237  2.0048  0.6682
 8994TIP3    H248398   5.958   6.319  13.871 -0.0703 -0.7982  0.4587
 8995TIP3   OH248399   5.512   6.388   2.581  0.3692  0.7130  0.2606
 8995TIP3    H148400   5.555   6.303   2.588 -1.7164 -0.4617 -0.7208
 8995TIP3    H248401   5.543   6.424   2.497  0.2824  0.3597  0.0777
 8996TIP3   OH248402   4.304   5.407  13.274 -0.1243  0.3787 -0.0067
 8996TIP3    H148403   4.264   5.492  13.257 -0.0520  0.2691 -0.7457
 8996TIP3    H248404   4.250   5.369  13.344  0.6305  1.5711  1.2545
 8997TIP3   OH248405   5.568   5.049   2.601 -0.1644 -0.2528 -0.2630
 8997TIP3    H148406   5.608   4.963   2.613  0.8110 -0.1046 -2.2628
 8997TIP3    H248407   5.514   5.040   2.523 -1.5924  0.4171  0.6343
 8998TIP3   OH248408   0.400   4.673   3.920 -0.1266 -0.2712  0.5494
 8998TIP3    H148409   0.382   4.744   3.982  1.2436  1.1648 -0.6589
 8998TIP3    H248410   0.486   4.640   3.946 -0.5388 -1.1821  0.7915
 8999TIP3   OH248411   5.579   4.443  11.081  0.2006 -0.1891 -0.2346
 8999TIP3    H148412   5.594   4.444  11.175 -2.6783  2.5790  0.2901
 8999TIP3    H248413   5.647   4.501  11.045  0.7161 -0.4937  0.2503
 9000TIP3   OH248414   0.051   1.392  11.456  0.0206 -0.2264  0.3289
 9000TIP3    H148415   0.140   1.423  11.441 -0.1447 -0.2406 -0.7812
 9000TIP3    H248416   0.034   1.409  11.548  0.6256  1.1661  0.1862
 9001TIP3   OH248417   0.381   3.875  11.382  0.3841 -0.5522 -0.1851
 9001TIP3    H148418   0.465   3.830  11.379 -1.1140 -3.4656 -0.2029
 9001TIP3    H248419   0.364   3.902  11.292  0.4912 -1.5262 -0.4980
 9002TIP3   OH248420   0.464   2.602  13.915  0.4402  0.3629  0.3521
 9002TIP3    H148421   0.505   2.639  13.993  1.6314  0.5092 -0.3274
 9002TIP3    H248422   0.437   2.515  13.941  0.3841  0.5973  1.0793
 9003TIP3   OH248423   2.431   4.901   5.945 -0.3914  0.1340 -0.2588
 9003TIP3    H148424   2.472   4.815   5.950 -0.6267  0.1531  3.4280
 9003TIP3    H248425   2.337   4.883   5.940 -0.2879  0.1797 -3.3975
 9004TIP3   OH248426   3.159   5.095  13.874 -0.5265 -0.2814  0.4310
 9004TIP3    H148427   3.234   5.035  13.877  0.8928  1.3783 -0.8422
 9004TIP3    H248428   3.126   5.097  13.964  1.3074 -0.5912  1.1344
 9005TIP3   OH248429   6.491   2.954  16.063 -0.1203  0.1761  0.0510
 9005TIP3    H148430   6.510   3.027  16.004  0.1565 -2.0652 -2.7801
 9005TIP3    H248431   6.545   2.882  16.029  1.0729 -0.8375  3.9085
 9006TIP3   OH248432   3.186   0.731  13.532 -0.2962  0.4055  0.2313
 9006TIP3    H148433   3.114   0.676  13.501  1.9480 -1.2116 -2.3693
 9006TIP3    H248434   3.222   0.684  13.607  0.9990 -1.2966 -1.3948
 9007TIP3   OH248435   2.925   4.396  14.460  0.6570 -0.4913 -0.0460
 9007TIP3    H148436   2.913   4.305  14.433 -0.4268 -1.2753  2.9579
 9007TIP3    H248437   2.890   4.447  14.386 -0.0930 -2.5082 -1.1286
 9008TIP3   OH248438   6.425   2.917   1.650 -0.0783  0.1532 -0.2303
 9008TIP3    H148439   6.475   2.854   1.701 -0.4835 -0.7686 -0.9765
 9008TIP3    H248440   6.483   2.941   1.578 -0.0928  0.3104 -0.1898
 9009TIP3   OH248441   2.457   3.206  14.136  0.0917  0.0831 -0.3333
 9009TIP3    H148442   2.378   3.152  14.130 -0.1680  0.5264 -0.8873
 9009TIP3    H248443   2.496   3.202  14.049  1.6868 -1.6321  0.4135
 9010TIP3   OH248444   4.589   1.954  15.623 -0.2937  0.6003 -0.0154
 9010TIP3    H148445   4.640   1.993  15.693  0.0795 -0.2079  0.1646
 9010TIP3    H248446   4.627   1.990  15.543 -0.7380  1.5472  0.1861
 9011TIP3   OH248447   4.439   6.570  14.439  0.0020  0.3495 -0.1020
 9011TIP3    H148448   4.373   6.635  14.414 -1.1212 -0.3749  0.9407
 9011TIP3    H248449   4.426   6.497  14.378  0.2470  0.4476 -0.2758
 9012TIP3   OH248450   2.425   2.136   5.244  0.2413 -0.2295 -0.0254
 9012TIP3    H148451   2.409   2.184   5.325  1.0188  0.3319 -0.2012
 9012TIP3    H248452   2.451   2.203   5.181 -1.0603 -0.5569 -0.9488
 9013TIP3   OH248453   5.759   0.335  14.814 -0.3563  0.1241  0.3651
 9013TIP3    H148454   5.806   0.321  14.896 -0.5802 -1.6696  0.2056
 9013TIP3    H248455   5.826   0.366  14.753  0.0220  0.4340  0.9370
 9014TIP3   OH248456   1.279   6.622  14.620 -0.1478 -0.4490 -0.4367
 9014TIP3    H148457   1.276   6.621  14.525  1.4217  0.5871 -0.5122
 9014TIP3    H248458   1.305   6.533  14.644  2.6774  0.1491 -1.1306
 9015TIP3   OH248459   4.908   4.315  13.164 -0.3949  0.0936 -0.2866
 9015TIP3    H148460   4.852   4.247  13.126 -1.4789  0.7019  0.2039
 9015TIP3    H248461   4.865   4.397  13.142 -0.4523  0.5127  1.2932
 9016TIP3   OH248462   2.634   2.308   5.619  0.8514 -0.3875  0.7353
 9016TIP3    H148463   2.584   2.383   5.653  1.5010  0.7352 -0.7265
 9016TIP3    H248464   2.569   2.241   5.604 -0.1936  0.9382 -0.8046
 9017TIP3   OH248465   3.477   4.765   5.607 -0.5693  0.3129 -0.0465
 9017TIP3    H148466   3.484   4.676   5.573  2.8225  0.3873  0.2741
 9017TIP3    H248467   3.495   4.821   5.532  2.1133  0.5882  0.7798
 9018TIP3   OH248468   5.470   5.396   4.033 -0.2415  0.0144 -0.4494
 9018TIP3    H148469   5.450   5.443   4.114 -0.6423  1.0174 -1.1305
 9018TIP3    H248470   5.504   5.311   4.063 -1.9231 -0.2554  0.7542
 9019TIP3   OH248471   3.023   4.615  13.886  0.9695  0.0651  0.2260
 9019TIP3    H148472   3.009   4.672  13.811  0.0815 -0.6234 -0.1402
 9019TIP3    H248473   2.955   4.548  13.879  0.3897  0.4154  2.0390
 9020TIP3   OH248474   3.148   5.863  15.939 -0.1370  0.5472 -0.2283
 9020TIP3    H148475   3.143   5.865  15.844 -1.9872  0.6184 -0.1432
 9020TIP3    H248476   3.170   5.772  15.960 -2.4022 -0.1064 -0.6232
 9021TIP3   OH248477   5.043   3.938  14.892 -0.3682  0.6352 -0.1345
 9021TIP3    H148478   4.998   3.939  14.807 -1.7879  2.5977  0.5933
 9021TIP3    H248479   4.974   3.958  14.955  0.9015  0.3213  1.3672
 9022TIP3   OH248480   0.329   4.114   0.117 -0.0797 -0.1759 -0.1658
 9022TIP3    H148481   0.321   4.134   0.023 -1.0967 -0.3152 -0.1191
 9022TIP3    H248482   0.365   4.026   0.120  1.0607  0.2687 -0.4079
 9023TIP3   OH248483   1.106   5.596  13.083 -0.6945  0.4962  0.2700
 9023TIP3    H148484   1.129   5.689  13.077 -0.8942  0.5127 -0.2951
 9023TIP3    H248485   1.026   5.595  13.135  0.3449  0.4728  1.8929
 9024TIP3   OH248486   4.733   5.133  16.623  0.6796 -0.7359  0.2847
 9024TIP3    H148487   4.659   5.113  16.566  0.7695  1.4060 -0.6346
 9024TIP3    H248488   4.754   5.050  16.665  0.5572 -2.3823 -2.7408
 9025TIP3   OH248489   0.416   5.377   1.162 -0.3495 -0.0713 -0.4094
 9025TIP3    H148490   0.418   5.422   1.247 -1.8257 -0.8728  0.0695
 9025TIP3    H248491   0.481   5.307   1.171  1.2973  1.3580 -0.8378
 9026TIP3   OH248492   3.108   1.155   1.715  0.5380 -0.1779  0.6493
 9026TIP3    H148493   3.200   1.163   1.739  0.4701  2.1163  0.3045
 9026TIP3    H248494   3.107   1.167   1.620 -0.1937  0.7161  0.7596
 9027TIP3   OH248495   6.050   4.212  12.272 -0.5134  0.0420 -0.9752
 9027TIP3    H148496   5.973   4.232  12.326  0.1317  0.1401 -0.0805
 9027TIP3    H248497   6.115   4.180  12.335 -0.0322 -0.6397 -1.8140
 9028TIP3   OH248498   3.987   1.526  12.655  0.1960  0.1399 -0.0721
 9028TIP3    H148499   4.022   1.568  12.577  2.0275 -0.6085  0.3140
 9028TIP3    H248500   4.007   1.587  12.726 -0.3631  0.2560 -0.0129
 9029TIP3   OH248501   2.629   0.223  16.656 -0.4212  0.5601  0.1080
 9029TIP3    H148502   2.689   0.291  16.626  0.5948  0.0861  1.0444
 9029TIP3    H248503   2.554   0.230  16.597  0.0313  1.9407 -0.3263
 9030TIP3   OH248504   6.545   2.964  11.941  0.3320  0.1744 -0.0833
 9030TIP3    H148505   6.503   2.878  11.948 -0.7289  0.6330 -0.6403
 9030TIP3    H248506   6.585   2.965  11.855  3.6664 -1.1912  1.3700
 9031TIP3   OH248507   4.047   5.341  11.686 -0.4242  0.1044  0.0911
 9031TIP3    H148508   4.039   5.246  11.695 -3.2803  0.3550  0.7735
 9031TIP3    H248509   4.101   5.353  11.608  0.6621 -2.0633  0.4636
 9032TIP3   OH248510   6.242   6.204   3.158  0.1126 -0.1283  0.4307
 9032TIP3    H148511   6.274   6.190   3.247  0.5663 -1.7167  0.0480
 9032TIP3    H248512   6.191   6.125   3.139  1.3254 -0.5272 -1.2680
 9033TIP3   OH248513   0.894   2.722  12.081 -0.0415 -0.7567  0.4597
 9033TIP3    H148514   0.827   2.661  12.051 -0.2160  0.5488 -1.9529
 9033TIP3    H248515   0.970   2.703  12.027  0.6174 -0.3198  1.2192
 9034TIP3   OH248516   0.840   3.249  16.913 -0.4469 -0.0518  0.2016
 9034TIP3    H148517   0.775   3.301  16.962  0.8196  2.2171 -0.4297
 9034TIP3    H248518   0.798   3.164  16.900 -2.9050  1.0431  0.6369
 9035TIP3   OH248519   5.922   1.226   0.954 -0.0061 -0.0472 -0.3873
 9035TIP3    H148520   5.853   1.212   1.019  1.4851 -0.0839  1.2431
 9035TIP3    H248521   5.958   1.139   0.938  1.9869  0.4116  1.4521
 9036TIP3   OH248522   4.512   2.609   0.795 -0.1381 -0.1733 -0.0005
 9036TIP3    H148523   4.576   2.643   0.858 -0.8483  2.5196 -0.6620
 9036TIP3    H248524   4.562   2.546   0.743  1.6434  0.8643  0.3787
 9037TIP3   OH248525   3.013   2.436  15.809  0.2677 -0.3732 -0.3116
 9037TIP3    H148526   2.918   2.428  15.808  0.2379 -0.1346  0.2400
 9037TIP3    H248527   3.034   2.469  15.897  0.9902 -2.1412  0.2077
 9038TIP3   OH248528   0.417   2.043   0.505 -0.2210 -0.1449  0.0536
 9038TIP3    H148529   0.325   2.034   0.480 -0.3016  1.5523 -0.2987
 9038TIP3    H248530   0.416   2.048   0.601 -0.6121  0.9783 -0.0008
 9039TIP3   OH248531   1.471   0.636   5.641  0.5306 -0.9311 -0.2118
 9039TIP3    H148532   1.485   0.696   5.714 -0.3092  0.7895 -1.4191
 9039TIP3    H248533   1.393   0.670   5.596  0.1402 -2.8344 -1.0306
 9040TIP3   OH248534   5.873   0.514   0.176 -1.2122  0.1392 -0.5593
 9040TIP3    H148535   5.797   0.560   0.140 -0.8649  1.3269  0.1665
 9040TIP3    H248536   5.940   0.582   0.183 -1.1132 -0.1567  1.8048
 9041TIP3   OH248537   6.751   1.250   5.579 -0.0751  0.0112 -0.4918
 9041TIP3    H148538   6.689   1.178   5.567 -0.1846  0.0992 -0.4588
 9041TIP3    H248539   6.756   1.263   5.673  1.9055 -1.6489 -0.3403
 9042TIP3   OH248540   3.953   3.623  15.056 -0.0994  0.0571 -0.2554
 9042TIP3    H148541   3.879   3.668  15.095  2.0867  1.1705  2.7786
 9042TIP3    H248542   3.935   3.530  15.070 -0.4543  0.3588  1.3654
 9043TIP3   OH248543   1.399   0.486  15.835 -0.2745  0.3679 -0.1325
 9043TIP3    H148544   1.379   0.408  15.886  0.0084  0.3037 -0.1190
 9043TIP3    H248545   1.432   0.550  15.899 -0.2932  0.4228 -0.1769
 9044TIP3   OH248546   1.101   0.447  11.454 -0.3682 -0.0785 -0.7122
 9044TIP3    H148547   1.014   0.441  11.494 -0.2065 -0.6377 -0.4482
 9044TIP3    H248548   1.090   0.511  11.383 -0.3696  1.9062  1.0113
 9045TIP3   OH248549   2.982   4.788   1.598  0.0841 -0.0154  0.1878
 9045TIP3    H148550   2.985   4.752   1.509  0.1404  1.2506 -0.3350
 9045TIP3    H248551   2.889   4.798   1.617  0.0990  1.2146 -0.3564
 9046TIP3   OH248552   5.776   1.258   5.088 -0.1553 -0.4702  0.7187
 9046TIP3    H148553   5.705   1.212   5.132  0.3100  0.4070  2.4332
 9046TIP3    H248554   5.856   1.214   5.117  0.1003 -0.4484  0.0597
 9047TIP3   OH248555   1.116   2.261   3.326 -0.0496  0.0852 -0.4827
 9047TIP3    H148556   1.200   2.265   3.281  0.3384  0.2435  0.2400
 9047TIP3    H248557   1.052   2.244   3.257  0.5768 -0.0465 -1.0347
 9048TIP3   OH248558   5.887   5.537   0.606  0.3170 -0.2007 -0.1798
 9048TIP3    H148559   5.968   5.586   0.593  1.1615 -1.3873  0.5666
 9048TIP3    H248560   5.844   5.580   0.680 -0.1185  0.8870 -1.0349
 9049TIP3   OH248561   3.393   0.943   1.436 -0.2701 -0.0738 -0.0077
 9049TIP3    H148562   3.416   0.861   1.393  0.3034 -0.2291  0.5780
 9049TIP3    H248563   3.454   1.007   1.398  1.9573 -0.6997  2.3357
 9050TIP3   OH248564   0.569   6.537   5.808 -0.2549 -0.0637  0.1680
 9050TIP3    H148565   0.540   6.476   5.877 -0.0437 -0.4070 -0.0439
 9050TIP3    H248566   0.538   6.497   5.727 -1.2549  0.7769  0.1253
 9051TIP3   OH248567   0.185   3.660  13.122 -0.0954 -0.0938 -0.2611
 9051TIP3    H148568   0.121   3.725  13.151  1.6713  1.1949  0.8501
 9051TIP3    H248569   0.264   3.710  13.105  1.7719 -2.1193  2.0683
 9052TIP3   OH248570   6.410   3.056  12.891  0.5192  0.0760 -0.5056
 9052TIP3    H148571   6.468   2.980  12.883  1.3973  0.8031 -1.2151
 9052TIP3    H248572   6.400   3.088  12.801 -0.2999  0.4696 -0.2809
 9053TIP3   OH248573   0.405   6.469   2.248 -0.2844  0.4919  0.6943
 9053TIP3    H148574   0.443   6.542   2.297  0.0115  0.9287 -0.1701
 9053TIP3    H248575   0.480   6.425   2.209 -0.6699  1.7676 -1.5925
 9054TIP3   OH248576   1.714   0.618  13.395  0.2594  0.2969  0.2887
 9054TIP3    H148577   1.778   0.672  13.440 -0.6126  2.1820 -0.6629
 9054TIP3    H248578   1.740   0.621  13.303 -0.2734 -0.2227  0.1180
 9055TIP3   OH248579   3.444   4.960  12.371 -0.4366 -0.0846 -0.1991
 9055TIP3    H148580   3.392   4.908  12.309  0.0109  0.2154 -0.8265
 9055TIP3    H248581   3.519   4.904  12.391  0.8609  0.9598 -2.1033
 9056TIP3   OH248582   0.863   5.815   4.761  0.0459 -0.1503  0.3841
 9056TIP3    H148583   0.931   5.808   4.695  0.4503  1.2567  0.6380
 9056TIP3    H248584   0.880   5.742   4.821  1.1309 -0.0005  0.2691
 9057TIP3   OH248585   6.750   4.434  13.041  0.3644  0.0454  0.8238
 9057TIP3    H148586   6.817   4.395  13.096  0.3051  1.2093  1.7307
 9057TIP3    H248587   6.676   4.372  13.045  0.4945 -0.0497  1.7541
 9058TIP3   OH248588   1.347   2.612  17.112  0.0604 -0.7180 -0.1485
 9058TIP3    H148589   1.355   2.672  17.187 -0.4832  0.1335 -0.7646
 9058TIP3    H248590   1.259   2.575  17.120  0.4791 -1.5966  0.3540
 9059TIP3   OH248591   5.782   0.362   1.491  0.7597 -0.2035 -0.0888
 9059TIP3    H148592   5.790   0.436   1.431 -0.4891  0.8044  0.9741
 9059TIP3    H248593   5.813   0.395   1.575  0.4695 -0.9757  0.3252
 9060TIP3   OH248594   6.247   1.848  11.426 -0.0599  0.6675 -0.1102
 9060TIP3    H148595   6.299   1.805  11.358  0.9900  2.6805 -0.6211
 9060TIP3    H248596   6.164   1.867  11.384 -0.8500 -1.5736  0.3746
 9061TIP3   OH248597   6.314   4.150  14.723  0.0542 -0.4672  0.4481
 9061TIP3    H148598   6.229   4.183  14.751 -0.2497 -1.6115  0.8697
 9061TIP3    H248599   6.328   4.192  14.638 -0.3606  0.6879  0.9259
 9062TIP3   OH248600   4.582   0.016  13.997 -0.4399 -0.2312  0.5826
 9062TIP3    H148601   4.646   0.073  14.040 -1.1348 -0.7832  2.3938
 9062TIP3    H248602   4.564  -0.053  14.062 -1.7640 -0.8987 -0.4707
 9063TIP3   OH248603   3.867   4.774   5.090 -0.0225  0.0480  0.1747
 9063TIP3    H148604   3.850   4.693   5.043  0.3668  0.8753 -1.4287
 9063TIP3    H248605   3.830   4.760   5.177 -2.5633 -0.7855 -1.0043
 9064TIP3   OH248606   4.719   4.005  17.064  0.4968  0.0152 -0.3611
 9064TIP3    H148607   4.671   4.085  17.042  2.7870  2.2208  2.2900
 9064TIP3    H248608   4.752   3.973  16.980  0.2059  2.3202 -1.3818
 9065TIP3   OH248609   2.572   2.983  11.531 -0.5375 -0.0776  0.4289
 9065TIP3    H148610   2.526   2.968  11.448  0.7176  0.5532 -0.4094
 9065TIP3    H248611   2.613   2.900  11.551 -0.9838 -0.2808  0.4981
 9066TIP3   OH248612   0.088   2.843   1.362 -0.1676  0.3151  0.4094
 9066TIP3    H148613   0.179   2.863   1.341  0.0393 -1.0059 -0.0380
 9066TIP3    H248614   0.066   2.902   1.434  0.9553  0.8386  0.3282
 9067TIP3   OH248615   2.966   1.208   5.581  0.2257 -0.1729  0.1401
 9067TIP3    H148616   2.978   1.126   5.532  0.8613 -0.1190  0.2067
 9067TIP3    H248617   2.909   1.261   5.525 -2.7064 -1.8400  1.4740
 9068TIP3   OH248618   4.215   1.541  15.516 -0.3027  0.3897  0.4790
 9068TIP3    H148619   4.183   1.547  15.426  1.1068 -0.5779 -0.0990
 9068TIP3    H248620   4.149   1.488  15.562  0.0228 -0.8871 -0.5009
 9069TIP3   OH248621   1.269   6.222  15.542  0.2803  0.0400  0.0980
 9069TIP3    H148622   1.226   6.195  15.461  0.1393 -3.1392  1.1697
 9069TIP3    H248623   1.199   6.261  15.595 -0.4251 -1.2510  0.1409
 9070TIP3   OH248624   2.073   4.490   4.279 -0.0039 -0.5798  0.0104
 9070TIP3    H148625   2.066   4.584   4.265 -0.7458 -0.7104 -0.5525
 9070TIP3    H248626   2.077   4.480   4.374 -0.6811 -0.0251  0.0994
 9071TIP3   OH248627   2.378   3.112   4.081  0.5124  0.5402 -0.4153
 9071TIP3    H148628   2.314   3.091   4.150  0.3526 -2.7457 -1.5047
 9071TIP3    H248629   2.462   3.081   4.115  0.8852  1.2850 -0.6358
 9072TIP3   OH248630   0.269   2.926  11.993 -0.0821  0.1734 -0.2533
 9072TIP3    H148631   0.283   2.923  12.088 -0.1727  2.2705 -0.1630
 9072TIP3    H248632   0.176   2.948  11.983 -0.3343 -1.0737 -0.8573
 9073TIP3   OH248633   4.286   4.370  16.253  0.0685 -0.1096 -0.0980
 9073TIP3    H148634   4.242   4.406  16.330 -0.4150  3.2906 -1.8905
 9073TIP3    H248635   4.215   4.348  16.192  0.6216  1.0475 -1.1707
 9074TIP3   OH248636   2.308   0.073   2.860 -0.0476  0.3885  0.3662
 9074TIP3    H148637   2.241   0.141   2.852 -0.8366 -0.3155  0.9708
 9074TIP3    H248638   2.382   0.117   2.901  0.3901  1.5174 -1.5491
 9075TIP3   OH248639   3.099   4.565  16.713 -0.1768  0.3511 -1.0491
 9075TIP3    H148640   3.060   4.533  16.794  0.0350 -0.5382 -1.2927
 9075TIP3    H248641   3.138   4.649  16.736  1.6316 -0.8044  0.2813
 9076TIP3   OH248642   6.229   3.843   6.063  0.3759 -0.4870 -0.7040
 9076TIP3    H148643   6.272   3.905   6.122 -2.4144 -0.8322  1.8493
 9076TIP3    H248644   6.246   3.757   6.100  0.1679 -0.8549 -1.4492
 9077TIP3   OH248645   5.902   2.806  13.866 -0.2320  0.0376  0.0756
 9077TIP3    H148646   5.899   2.891  13.910 -1.3108  0.0223  0.0273
 9077TIP3    H248647   5.938   2.826  13.779 -1.8642  0.6869 -0.4775
 9078TIP3   OH248648   1.188   3.711   5.241 -0.3328  0.0710 -0.1235
 9078TIP3    H148649   1.094   3.731   5.238 -0.9507 -2.8178 -2.8151
 9078TIP3    H248650   1.194   3.631   5.292  0.5139 -0.3971 -0.9429
 9079TIP3   OH248651   3.458   5.514   4.527  0.0551  0.0453 -0.4775
 9079TIP3    H148652   3.419   5.547   4.608 -0.7502  1.4484 -1.4151
 9079TIP3    H248653   3.544   5.554   4.523 -0.5586  1.3203 -1.1448
 9080TIP3   OH248654   0.651   4.155  16.705 -0.5389 -0.1257 -0.7419
 9080TIP3    H148655   0.592   4.211  16.655  1.0008  0.2264 -2.1896
 9080TIP3    H248656   0.605   4.072  16.712 -1.5202  0.3707 -1.2146
 9081TIP3   OH248657   5.869   0.925  11.874 -0.0538  0.3729 -0.1103
 9081TIP3    H148658   5.948   0.873  11.885  2.0340  2.7809 -2.8873
 9081TIP3    H248659   5.798   0.868  11.903  2.5804 -2.2001  1.5143
 9082TIP3   OH248660   0.762   4.803  16.490  0.2548 -0.1914 -0.4680
 9082TIP3    H148661   0.833   4.857  16.457  0.8969  0.8503  2.5027
 9082TIP3    H248662   0.685   4.860  16.487 -0.8191 -1.7043 -4.8543
 9083TIP3   OH248663   2.665   5.897  12.082 -0.0740  0.0138 -0.3837
 9083TIP3    H148664   2.695   5.819  12.036 -0.8538 -0.0211 -0.8302
 9083TIP3    H248665   2.710   5.893  12.167  0.5827 -0.4450 -0.7437
 9084TIP3   OH248666   1.217   6.432  16.608  0.0823  0.0992 -0.2676
 9084TIP3    H148667   1.261   6.347  16.617  0.6628  0.1629 -2.3068
 9084TIP3    H248668   1.125   6.414  16.624  0.0836 -1.0879 -1.5738
 9085TIP3   OH248669   4.432   4.478   5.745  0.0058  0.2596  0.1046
 9085TIP3    H148670   4.416   4.384   5.734  2.3642 -0.1241 -0.4321
 9085TIP3    H248671   4.420   4.493   5.838  1.6767 -1.0465  0.5712
 9086TIP3   OH248672   0.315   4.198   3.123  0.5562  0.0445  0.2410
 9086TIP3    H148673   0.381   4.266   3.131  0.7785  0.0326 -1.4687
 9086TIP3    H248674   0.355   4.131   3.069 -0.9029  0.1136 -0.9637
 9087TIP3   OH248675   2.969   3.526   1.656 -0.3501  0.1623  0.4775
 9087TIP3    H148676   3.031   3.518   1.583  0.8095  2.5657  1.1533
 9087TIP3    H248677   2.886   3.550   1.614 -0.0993 -0.0849 -0.1778
 9088TIP3   OH248678   1.997   2.475   0.191  0.3311 -0.2740 -0.1339
 9088TIP3    H148679   2.036   2.396   0.153 -0.9417 -0.8736 -0.2118
 9088TIP3    H248680   2.027   2.546   0.134  1.7399 -0.6496  0.1207
 9089TIP3   OH248681   1.918   1.016   6.369 -0.4077  0.5417 -0.3140
 9089TIP3    H148682   1.985   1.074   6.333 -0.8991  0.5941 -1.1818
 9089TIP3    H248683   1.854   1.007   6.297 -1.2782  0.4281  0.4676
 9090TIP3   OH248684   0.743   1.958  16.431 -0.4787  0.2795  0.2600
 9090TIP3    H148685   0.784   2.037  16.395 -1.9282  0.1632 -1.7431
 9090TIP3    H248686   0.768   1.957  16.523  0.8413  2.2414 -0.0643
 9091TIP3   OH248687   0.384   6.722   4.055  0.8014  0.0371 -0.5087
 9091TIP3    H148688   0.440   6.762   4.121  0.4091  1.0956 -0.8063
 9091TIP3    H248689   0.367   6.634   4.088  1.1311  0.3405  0.4825
 9092TIP3   OH248690   4.848   1.860   4.242  1.1997 -0.1315 -0.3199
 9092TIP3    H148691   4.822   1.944   4.279  2.5842 -0.6326  1.9246
 9092TIP3    H248692   4.920   1.881   4.184  0.0594  0.4845 -1.5328
 9093TIP3   OH248693   6.612   6.535   0.611  0.2289  0.9131  0.3453
 9093TIP3    H148694   6.520   6.556   0.620 -0.1974 -0.7618  0.1483
 9093TIP3    H248695   6.640   6.579   0.531 -0.8640 -0.0581 -0.5745
 9094TIP3   OH248696   5.481   5.675   6.123 -0.2338  0.0847 -0.4117
 9094TIP3    H148697   5.491   5.768   6.142 -1.7040  0.2954 -0.5918
 9094TIP3    H248698   5.393   5.654   6.153 -1.0598 -0.5273 -3.0624
 9095TIP3   OH248699   4.670   3.290   0.366 -0.4575  0.4039  0.1348
 9095TIP3    H148700   4.722   3.355   0.319 -1.3516  1.0718  0.0648
 9095TIP3    H248701   4.703   3.295   0.456  0.9946 -0.6174 -0.3274
 9096TIP3   OH248702   2.901   2.673  17.021 -0.2184  0.4014 -0.0358
 9096TIP3    H148703   2.870   2.748  17.073  2.7653  2.5174 -1.1300
 9096TIP3    H248704   2.994   2.666  17.043  0.8783  0.6731 -4.2122
 9097TIP3   OH248705   0.085   6.021  15.083  0.1264 -0.1455 -0.2413
 9097TIP3    H148706   0.124   5.958  15.023  0.3049  0.3094 -0.6079
 9097TIP3    H248707   0.123   6.000  15.168  0.4431 -0.3134 -0.4239
 9098TIP3   OH248708   3.307   4.601  14.249  0.1088 -0.6190 -0.4680
 9098TIP3    H148709   3.363   4.639  14.181 -0.9737  1.5590 -0.1867
 9098TIP3    H248710   3.224   4.585  14.205  0.2621 -1.8454 -0.3406
 9099TIP3   OH248711   3.918   4.566  12.049 -0.1154  0.3094  0.2043
 9099TIP3    H148712   3.922   4.495  11.984  2.9950 -0.1601  0.8065
 9099TIP3    H248713   3.994   4.550  12.106 -0.7872  2.7218  1.8452
 9100TIP3   OH248714   4.061   1.276  16.344  0.0321  0.1083 -0.7359
 9100TIP3    H148715   4.048   1.276  16.249 -0.3085 -0.1003 -0.6919
 9100TIP3    H248716   4.110   1.357  16.362 -0.3888  0.4341 -1.0263
 9101TIP3   OH248717   5.576   5.574  14.324 -0.4821 -0.2912  0.2777
 9101TIP3    H148718   5.486   5.587  14.293 -1.2553 -0.8132  2.1832
 9101TIP3    H248719   5.631   5.621  14.261 -2.0678 -0.2025 -1.0674
 9102TIP3   OH248720   5.065   3.814  13.333  0.6242 -0.0028 -0.3239
 9102TIP3    H148721   5.140   3.849  13.382 -0.8868  1.1028  1.2465
 9102TIP3    H248722   5.067   3.861  13.250  0.9059  0.9740  0.2260
 9103TIP3   OH248723   2.948   3.292  13.067 -1.0734 -0.4458  0.6364
 9103TIP3    H148724   3.044   3.297  13.058 -1.0130  1.3020  1.8848
 9103TIP3    H248725   2.917   3.271  12.979  0.4286 -0.5432  0.1068
 9104TIP3   OH248726   1.650   3.097   0.606 -0.2542  0.6104  0.4389
 9104TIP3    H148727   1.719   3.033   0.589 -0.0341  1.2690 -1.2529
 9104TIP3    H248728   1.648   3.105   0.702 -0.3666 -1.9819  0.6784
 9105TIP3   OH248729   1.532   5.694   5.707  0.2024 -0.6233 -0.4937
 9105TIP3    H148730   1.611   5.739   5.675  0.6014 -1.0170 -0.0780
 9105TIP3    H248731   1.541   5.605   5.675 -0.4462 -0.4800 -1.0708
 9106TIP3   OH248732   5.226   2.393   3.134 -0.0391 -0.0065  0.4687
 9106TIP3    H148733   5.181   2.475   3.151 -0.1537  0.2207 -0.8524
 9106TIP3    H248734   5.317   2.409   3.161  0.4613  1.3213 -1.8910
 9107TIP3   OH248735   3.083   5.024   5.313 -0.6174 -0.4003 -0.2275
 9107TIP3    H148736   3.108   5.102   5.264  0.6667 -0.1318  0.8313
 9107TIP3    H248737   2.987   5.031   5.321 -0.7805 -0.1776 -2.1886
 9108TIP3   OH248738   0.936   1.849   4.056 -0.3506  0.1352  0.2307
 9108TIP3    H148739   0.902   1.808   3.977 -1.2329 -1.7751  1.5585
 9108TIP3    H248740   0.889   1.932   4.062 -0.1207  0.3909 -1.3533
 9109TIP3   OH248741   4.864   5.208  11.140 -0.1319 -0.3763 -0.2376
 9109TIP3    H148742   4.851   5.171  11.052 -1.6375 -0.5985  0.0727
 9109TIP3    H248743   4.939   5.267  11.130 -0.6060 -0.0136 -1.7945
 9110TIP3   OH248744   2.288   4.129   5.478  0.1351  0.3124 -0.8653
 9110TIP3    H148745   2.321   4.084   5.555  0.4562 -0.1031 -1.2444
 9110TIP3    H248746   2.346   4.204   5.466  0.0908  0.3713 -0.7133
 9111TIP3   OH248747   5.117   4.752   3.233  1.0361 -0.0590  0.3861
 9111TIP3    H148748   5.188   4.788   3.180  0.8572  0.1011  0.2519
 9111TIP3    H248749   5.050   4.820   3.231  0.4353 -0.6653 -0.4028
 9112TIP3   OH248750   5.684   0.068   2.466 -0.3458 -0.5832  0.5888
 9112TIP3    H148751   5.723   0.142   2.420 -1.3770 -2.2910 -3.2174
 9112TIP3    H248752   5.748  -0.003   2.457 -1.6655 -1.6641 -0.4937
 9113TIP3   OH248753   1.661   0.532   4.867 -0.3983 -0.2731 -0.4519
 9113TIP3    H148754   1.619   0.604   4.820  0.4075  0.7093  0.3159
 9113TIP3    H248755   1.589   0.487   4.911 -0.7929  0.5854 -0.2274
 9114TIP3   OH248756   4.455   0.459   0.338 -0.1411  0.1700 -0.1397
 9114TIP3    H148757   4.543   0.444   0.373 -0.2536 -0.9543 -0.3173
 9114TIP3    H248758   4.396   0.444   0.412 -0.2126  0.6172 -0.1000
 9115TIP3   OH248759   4.266   2.291  16.447  0.4404  0.2514  0.7164
 9115TIP3    H148760   4.275   2.319  16.356 -1.4065  0.2666  0.5379
 9115TIP3    H248761   4.204   2.352  16.485 -1.1990 -1.6485  1.1600
 9116TIP3   OH248762   4.533   0.644   2.278  0.1429  0.7185 -0.5610
 9116TIP3    H148763   4.455   0.633   2.332  0.7409  2.0013  0.5954
 9116TIP3    H248764   4.597   0.583   2.315 -0.4696 -0.7877 -1.8949
 9117TIP3   OH248765   4.105   0.386   3.145  0.2505 -0.3323 -0.1008
 9117TIP3    H148766   4.199   0.404   3.151 -0.0849  1.3103  0.7219
 9117TIP3    H248767   4.079   0.368   3.236 -0.3288 -0.1917 -0.2384
 9118TIP3   OH248768   5.235   1.053  15.015 -0.4211 -0.2232 -0.0447
 9118TIP3    H148769   5.317   1.086  15.052 -1.3585  0.8048  1.1696
 9118TIP3    H248770   5.204   0.990  15.080 -0.9892 -0.0191 -0.1166
 9119TIP3   OH248771   0.803   3.530  12.777 -0.2005  0.8441  0.4701
 9119TIP3    H148772   0.720   3.577  12.789  0.1781  1.6029  0.1451
 9119TIP3    H248773   0.812   3.520  12.682  0.0509  0.7052  0.5076
 9120TIP3   OH248774   0.447   1.970   0.792  0.3772 -0.5514 -0.7192
 9120TIP3    H148775   0.455   1.897   0.731  1.1322 -1.6667  0.6910
 9120TIP3    H248776   0.521   1.960   0.851 -1.2948 -0.4819  1.4468
 9121TIP3   OH248777   3.506   4.135   6.522  0.5366  0.3907 -0.4393
 9121TIP3    H148778   3.510   4.228   6.496  1.4941  1.1513  2.2753
 9121TIP3    H248779   3.597   4.111   6.539  0.1152 -0.5785  0.4588
 9122TIP3   OH248780   2.761   0.049   3.185 -0.0068  0.5280 -0.3831
 9122TIP3    H148781   2.839   0.100   3.206 -0.2044 -0.1272  2.1380
 9122TIP3    H248782   2.792  -0.021   3.128  1.1421  0.6368  0.0970
 9123TIP3   OH248783   2.539   4.402  15.424 -0.3853  0.3014 -0.6430
 9123TIP3    H148784   2.628   4.367  15.422 -0.4561  0.1532 -1.7518
 9123TIP3    H248785   2.504   4.383  15.337 -1.3922  0.6414 -0.3217
 9124TIP3   OH248786   2.526   3.264  13.613 -0.1907  0.1495  0.8012
 9124TIP3    H148787   2.554   3.173  13.621 -1.0146  0.0069  2.2882
 9124TIP3    H248788   2.607   3.315  13.620  0.6971 -0.5369 -3.1555
 9125TIP3   OH248789   5.438   0.146   0.077  0.3974 -0.2212  0.3132
 9125TIP3    H148790   5.427   0.082   0.007 -0.0342 -2.7860  2.6423
 9125TIP3    H248791   5.503   0.208   0.043 -0.4996 -0.8453 -2.6752
 9126TIP3   OH248792   3.828   3.749   1.156 -0.4919 -0.1133 -0.6848
 9126TIP3    H148793   3.833   3.661   1.193  0.9147  0.4085  0.4469
 9126TIP3    H248794   3.895   3.750   1.088 -0.1664  0.2180 -0.3663
 9127TIP3   OH248795   5.490   5.498   2.244 -0.9598 -0.0627  0.1012
 9127TIP3    H148796   5.571   5.446   2.244 -0.6714  0.3115 -2.1297
 9127TIP3    H248797   5.434   5.455   2.180 -1.3535  1.4094 -0.5576
 9128TIP3   OH248798   1.648   1.893  16.535 -0.0528 -0.0870 -0.0606
 9128TIP3    H148799   1.560   1.926  16.516  0.2965  0.9254  0.0173
 9128TIP3    H248800   1.683   1.866  16.450  0.1086  0.9075 -0.3142
 9129TIP3   OH248801   0.730   3.036  15.791 -0.0857 -0.1098 -0.0924
 9129TIP3    H148802   0.799   2.975  15.817  0.7318  1.0606  0.5143
 9129TIP3    H248803   0.776   3.105  15.743 -0.7212  1.1143  1.0561
 9130TIP3   OH248804   2.814   5.400   3.428  0.0630 -0.0344  0.5187
 9130TIP3    H148805   2.903   5.365   3.421  0.5082  0.8246  1.6784
 9130TIP3    H248806   2.807   5.462   3.356  0.6092  0.3428  0.7867
 9131TIP3   OH248807   6.541   2.398  14.859  0.9869  0.2231  0.3493
 9131TIP3    H148808   6.550   2.387  14.954  1.8902  0.3946  0.2821
 9131TIP3    H248809   6.591   2.327  14.821  0.7414  0.2373 -0.0045
 9132TIP3   OH248810   3.765   0.791  15.901 -0.5478  0.2228  0.0513
 9132TIP3    H148811   3.810   0.777  15.818  0.3913  0.6763  0.4730
 9132TIP3    H248812   3.794   0.877  15.931 -2.1912  0.8049  0.0424
 9133TIP3   OH248813   5.340   0.182  10.855 -0.0067  0.0057 -0.2325
 9133TIP3    H148814   5.353   0.125  10.931  1.7075  0.8223  0.1081
 9133TIP3    H248815   5.325   0.122  10.783  0.5492 -0.8611  0.3547
 9134TIP3   OH248816   1.580   2.484  12.127  0.5145  0.0415  0.0454
 9134TIP3    H148817   1.573   2.521  12.215 -1.4171 -0.9086  0.3196
 9134TIP3    H248818   1.652   2.421  12.133 -0.0256 -0.4854  1.1246
 9135TIP3   OH248819   1.878   3.984   2.579  0.1137 -0.5041  0.5005
 9135TIP3    H148820   1.893   4.079   2.572 -0.5814 -0.1292  3.4214
 9135TIP3    H248821   1.961   3.945   2.551  0.5939  0.9814 -0.2049
 9136TIP3   OH248822   5.043   4.361  12.068 -0.2158 -0.1073  0.1611
 9136TIP3    H148823   5.034   4.446  12.025 -0.3700  0.2004  0.7981
 9136TIP3    H248824   4.970   4.309  12.034 -0.2704  0.0948 -0.0333
 9137TIP3   OH248825   5.940   3.888  12.701  0.4212 -0.9902  0.4121
 9137TIP3    H148826   5.947   3.818  12.766 -1.3356 -0.2545  1.4364
 9137TIP3    H248827   5.880   3.951  12.741 -0.7234 -0.5444 -1.9521
 9138TIP3   OH248828   4.529   5.809  11.886  0.2147 -0.6101 -0.6170
 9138TIP3    H148829   4.461   5.877  11.886  0.1416 -0.6501 -2.3340
 9138TIP3    H248830   4.494   5.740  11.942  0.2256  0.6916  1.0370
 9139TIP3   OH248831   5.848   0.367  15.574  0.2731  0.1468  0.1679
 9139TIP3    H148832   5.783   0.430  15.540 -2.2017 -1.9936  0.7730
 9139TIP3    H248833   5.893   0.335  15.496 -1.1780 -0.2149 -0.5443
 9140TIP3   OH248834   5.432   5.507   5.563  0.1752  0.0803  0.1875
 9140TIP3    H148835   5.429   5.526   5.657  0.0566  0.3378  0.1305
 9140TIP3    H248836   5.520   5.536   5.536 -0.0575  0.6822  0.0723
 9141TIP3   OH248837   3.683   2.365   3.168  0.1083 -0.4039 -0.1017
 9141TIP3    H148838   3.619   2.422   3.210  2.3567  2.1821 -0.0378
 9141TIP3    H248839   3.743   2.340   3.239  2.7466  2.3302 -1.2639
 9142TIP3   OH248840   4.248   3.127  13.166 -0.0997  0.2529 -0.5036
 9142TIP3    H148841   4.331   3.154  13.204  0.2005  0.6601 -1.4236
 9142TIP3    H248842   4.262   3.133  13.071 -1.0745  0.0236 -0.6688
 9143TIP3   OH248843   5.041   5.309  10.383  0.6646 -0.1713  0.0699
 9143TIP3    H148844   5.044   5.251  10.460  0.3623 -1.6276 -0.9906
 9143TIP3    H248845   5.086   5.389  10.412 -0.5595 -0.1868  2.1694
 9144TIP3   OH248846   3.214   5.582   0.237  0.5471  0.0664 -0.1071
 9144TIP3    H148847   3.224   5.650   0.303 -0.2430  1.5080 -1.4197
 9144TIP3    H248848   3.140   5.613   0.183 -0.6375 -2.4421  0.0164
 9145TIP3   OH248849   4.223   0.136  16.779 -0.4355 -0.2317 -0.5432
 9145TIP3    H148850   4.132   0.158  16.801 -0.4650 -0.2842 -0.6131
 9145TIP3    H248851   4.235   0.173  16.691 -0.9379 -1.7480 -1.2781
 9146TIP3   OH248852   1.968   1.515  17.069  0.4537  0.2060  0.2749
 9146TIP3    H148853   2.018   1.477  16.997  0.6252 -0.7084  0.8714
 9146TIP3    H248854   1.981   1.609  17.060  1.9064  0.0083  0.1575
 9147TIP3   OH248855   3.921   4.523   1.234 -0.2278  0.0059  0.1831
 9147TIP3    H148856   3.890   4.443   1.193  2.8613 -0.5285 -1.2257
 9147TIP3    H248857   3.852   4.588   1.216 -1.8925 -1.8467 -0.2326
 9148TIP3   OH248858   2.854   2.727   3.290  0.7427 -0.3205 -0.2758
 9148TIP3    H148859   2.832   2.755   3.201  0.8141 -0.1306 -0.2345
 9148TIP3    H248860   2.935   2.676   3.280  0.7288 -0.3333 -0.3248
 9149TIP3   OH248861   4.493   1.341   5.140 -0.0533  0.3848 -0.5014
 9149TIP3    H148862   4.505   1.254   5.101 -0.3411  0.8206 -1.5622
 9149TIP3    H248863   4.541   1.336   5.223 -1.2172 -1.2217  0.0960
 9150TIP3   OH248864   4.610   0.868   2.792  0.5665  0.2883  0.3753
 9150TIP3    H148865   4.617   0.956   2.754  0.1326  0.5330  0.8566
 9150TIP3    H248866   4.573   0.882   2.879  0.2553 -0.3943  0.3561
 9151TIP3   OH248867   3.621   5.738   5.210  0.2780 -0.1088 -0.1543
 9151TIP3    H148868   3.709   5.729   5.174  0.2648 -0.8634 -0.0104
 9151TIP3    H248869   3.634   5.782   5.294  0.6569 -1.3844  0.4638
 9152TIP3   OH248870   2.306   1.401   4.736 -0.2402 -0.5348 -0.0678
 9152TIP3    H148871   2.306   1.432   4.827  0.0578  0.1754 -0.3085
 9152TIP3    H248872   2.394   1.366   4.723  0.0523  0.2988 -0.3933
 9153TIP3   OH248873   5.197   4.140  12.009  0.6620 -0.6111  0.4078
 9153TIP3    H148874   5.135   4.211  12.023  1.0031 -0.0168 -1.0093
 9153TIP3    H248875   5.205   4.098  12.095 -0.6817  0.1210  0.9024
 9154TIP3   OH248876   6.371   4.339   4.468 -0.2914 -0.2442  0.4960
 9154TIP3    H148877   6.324   4.403   4.415 -0.0680 -1.0445 -0.6872
 9154TIP3    H248878   6.427   4.392   4.525 -0.7030  0.6292  0.1016
 9155TIP3   OH248879   3.167   4.078   2.898  0.6151 -0.4244  0.2258
 9155TIP3    H148880   3.151   4.139   2.825  2.0263 -1.0255 -0.6072
 9155TIP3    H248881   3.103   4.103   2.964 -0.6658  0.1685 -1.2075
 9156TIP3   OH248882   6.107   5.575  16.104 -0.5139 -0.0234  0.1285
 9156TIP3    H148883   6.013   5.591  16.101 -0.3362  1.2061  0.6470
 9156TIP3    H248884   6.146   5.661  16.116  0.6089 -0.6455  1.1571
 9157TIP3   OH248885   3.896   4.183   1.230  0.0296 -0.1339  0.0633
 9157TIP3    H148886   3.964   4.210   1.169  0.5289  2.3238  1.6453
 9157TIP3    H248887   3.941   4.128   1.294 -0.0983 -1.0547 -0.6322
 9158TIP3   OH248888   0.145   2.676  12.341 -0.0109  0.0170  0.0711
 9158TIP3    H148889   0.099   2.662  12.424  0.7344 -1.4801  0.2577
 9158TIP3    H248890   0.230   2.633  12.353 -0.7223 -2.1612 -2.2027
 9159TIP3   OH248891   0.650   2.583  12.557  0.1236  0.6896  0.4514
 9159TIP3    H148892   0.589   2.626  12.497 -0.4961  0.7649  1.1285
 9159TIP3    H248893   0.709   2.534  12.500  0.8139  2.3936 -0.3390
 9160TIP3   OH248894   5.363   4.837   4.896 -0.0291  0.3607 -0.0939
 9160TIP3    H148895   5.322   4.895   4.831 -0.2915 -0.8950 -1.0678
 9160TIP3    H248896   5.414   4.775   4.844  1.3888  0.5767  1.0167
 9161TIP3   OH248897   6.767   4.873   1.392 -0.0310 -0.4426 -0.2693
 9161TIP3    H148898   6.798   4.803   1.335 -0.4341  0.5203 -1.7040
 9161TIP3    H248899   6.693   4.911   1.345 -0.4074  0.3463  0.9246
 9162TIP3   OH248900   2.782   0.440   0.706 -0.1082 -0.2328  0.1744
 9162TIP3    H148901   2.745   0.452   0.793  2.1576 -0.6474  1.2381
 9162TIP3    H248902   2.783   0.345   0.693 -0.0961 -0.1888 -0.1546
 9163TIP3   OH248903   1.274   6.011   1.076  0.3383  0.4160 -0.5641
 9163TIP3    H148904   1.369   6.002   1.075  0.2651 -0.3459 -1.7158
 9163TIP3    H248905   1.245   5.952   1.144  0.7085  0.8861  0.0098
 9164TIP3   OH248906   2.089   2.723   4.753 -0.0157  0.2478  0.7318
 9164TIP3    H148907   2.157   2.667   4.717  0.1889  0.4565  0.7947
 9164TIP3    H248908   2.132   2.807   4.767 -0.3861  0.4953  0.3960
 9165TIP3   OH248909   5.900   1.291   4.627  0.5061 -0.2057 -0.3751
 9165TIP3    H148910   5.816   1.253   4.652  0.0558  1.5169  0.7831
 9165TIP3    H248911   5.921   1.250   4.543 -2.0453  0.2195 -1.2556
 9166TIP3   OH248912   0.667   4.426  15.478 -0.0774 -0.1563 -0.5739
 9166TIP3    H148913   0.670   4.461  15.567  1.3747  0.0391 -0.6796
 9166TIP3    H248914   0.585   4.458  15.442 -2.6254 -3.4540  1.9815
 9167TIP3   OH248915   1.319   1.708  15.982 -0.0838 -0.4326  0.5635
 9167TIP3    H148916   1.413   1.724  15.986 -0.4378  1.7921  0.4763
 9167TIP3    H248917   1.310   1.613  15.993  2.1942 -0.7351 -0.0261
 9168TIP3   OH248918   6.240   2.098  16.014 -0.0073 -0.4195 -0.1634
 9168TIP3    H148919   6.254   2.022  15.958  0.8287 -1.2422  1.1147
 9168TIP3    H248920   6.289   2.169  15.972 -0.7057 -0.6182 -1.3102
 9169TIP3   OH248921   6.048   3.741  11.754  0.1768  0.1836 -0.0979
 9169TIP3    H148922   6.123   3.696  11.714 -0.4924 -0.9600 -0.0754
 9169TIP3    H248923   5.977   3.729  11.692 -0.4470 -0.2204  0.6876
 9170TIP3   OH248924   4.099   4.968  12.145  0.0512  0.5493  0.0132
 9170TIP3    H148925   4.113   5.060  12.121 -0.4382  0.8692  0.9182
 9170TIP3    H248926   4.148   4.957  12.226 -0.9156  0.3652  0.5870
 9171TIP3   OH248927   3.815   3.092  16.753 -0.4509  0.1467  0.2915
 9171TIP3    H148928   3.746   3.150  16.787  0.1306 -0.1059  1.8995
 9171TIP3    H248929   3.890   3.107  16.810  1.1527  1.0501 -1.9517
 9172TIP3   OH248930   6.064   5.275  16.503 -0.1234  0.1694 -1.0651
 9172TIP3    H148931   6.064   5.277  16.407  1.5425  0.5590 -1.0691
 9172TIP3    H248932   5.972   5.287  16.527 -0.5437  0.1543 -2.6060
 9173TIP3   OH248933   0.368   4.966   6.320 -0.5760 -0.1304 -0.6467
 9173TIP3    H148934   0.395   5.032   6.256 -0.1355  0.8306  0.5132
 9173TIP3    H248935   0.273   4.961   6.310 -0.4939 -0.1697 -1.5317
 9174TIP3   OH248936   4.057   0.909  11.791 -0.2227 -0.5654 -0.0255
 9174TIP3    H148937   4.130   0.868  11.745 -0.7297 -0.4093 -0.9765
 9174TIP3    H248938   4.026   0.977  11.732 -1.1209 -0.6132  0.3824
 9175TIP3   OH248939   1.424   4.091   1.419  0.0851 -0.1489  0.2036
 9175TIP3    H148940   1.366   4.100   1.344  0.6407 -0.4744 -0.2783
 9175TIP3    H248941   1.400   4.161   1.478  0.3531  0.7673 -0.7656
 9176TIP3   OH248942   1.404   3.083  17.157  0.1074 -0.0127 -0.0333
 9176TIP3    H148943   1.331   3.044  17.109  0.5129 -0.3452 -0.3913
 9176TIP3    H248944   1.464   3.113  17.088  0.8135 -0.7210  0.2580
 9177TIP3   OH248945   5.281   3.118  11.723  0.4820  0.1351 -0.3713
 9177TIP3    H148946   5.355   3.114  11.662  1.0929 -1.0769  0.4440
 9177TIP3    H248947   5.319   3.147  11.806  0.1401 -1.0781  0.2117
 9178TIP3   OH248948   3.872   2.692  14.476  0.2244  0.7485  0.0510
 9178TIP3    H148949   3.861   2.651  14.561 -1.3926 -1.9785 -1.4268
 9178TIP3    H248950   3.783   2.717  14.449  0.7366  1.7331 -0.7886
 9179TIP3   OH248951   6.236   4.346  13.411  0.4895  0.1313  0.1193
 9179TIP3    H148952   6.332   4.346  13.402  0.3826  0.9285 -1.2714
 9179TIP3    H248953   6.212   4.438  13.401 -0.4702 -0.1363 -0.0626
 9180TIP3   OH248954   0.350   0.743   2.231 -0.0317  1.0023 -0.3792
 9180TIP3    H148955   0.276   0.698   2.272  0.3961  0.3322 -0.3352
 9180TIP3    H248956   0.327   0.836   2.236 -0.2194  0.9009  0.9177
 9181TIP3   OH248957   1.127   3.967   5.990 -0.0580 -0.6108 -0.3480
 9181TIP3    H148958   1.107   4.046   6.039 -0.9323 -0.3896 -1.0605
 9181TIP3    H248959   1.209   3.935   6.029 -0.3723 -0.0576  0.7746
 9182TIP3   OH248960   5.713   4.069  10.881  0.8360 -0.4751 -0.3505
 9182TIP3    H148961   5.659   4.135  10.924  0.4257 -0.3906 -0.9717
 9182TIP3    H248962   5.767   4.032  10.950  1.0620  0.5152 -0.0017
 9183TIP3   OH248963   2.836   4.556  14.244  0.2286 -0.4703 -0.3240
 9183TIP3    H148964   2.755   4.505  14.240  0.9545 -1.8170  1.3483
 9183TIP3    H248965   2.810   4.639  14.283 -0.0220 -1.6873  2.2119
 9184TIP3   OH248966   5.440   3.031  11.946 -0.3061 -0.0161 -0.1202
 9184TIP3    H148967   5.523   3.079  11.948 -0.3992  0.1816 -1.0178
 9184TIP3    H248968   5.406   3.039  12.036  1.1583 -1.0255  0.5383
 9185TIP3   OH248969   5.069   1.707  13.363  0.4093  0.4805 -0.0008
 9185TIP3    H148970   5.037   1.618  13.374  0.8846  0.1580 -1.1725
 9185TIP3    H248971   5.087   1.715  13.269  2.0533  1.2181  0.3477
 9186TIP3   OH248972   0.757   6.685   4.712 -0.4436  0.1501  0.0958
 9186TIP3    H148973   0.729   6.769   4.747 -0.3717  0.8292 -1.4281
 9186TIP3    H248974   0.788   6.636   4.788 -1.1175  1.2460  1.0857
 9187TIP3   OH248975   5.731   2.813   4.602  0.1213 -0.1019  0.2056
 9187TIP3    H148976   5.719   2.737   4.545 -0.9867  1.1129 -1.2616
 9187TIP3    H248977   5.653   2.813   4.658 -0.4949  0.5826 -0.6144
 9188TIP3   OH248978   1.141   2.369   6.529  0.1078 -0.2200 -0.1954
 9188TIP3    H148979   1.128   2.282   6.492  0.4942 -0.5981  0.5455
 9188TIP3    H248980   1.223   2.400   6.490 -1.9277  1.3702 -3.3653
 9189TIP3   OH248981   0.675   1.546  12.444  0.3908  0.0854  0.3264
 9189TIP3    H148982   0.641   1.576  12.359 -2.9253 -1.1683  1.1464
 9189TIP3    H248983   0.681   1.626  12.496 -3.2465  0.1470  0.7668
 9190TIP3   OH248984   2.199   2.163   2.183 -0.1164 -0.2736  0.3716
 9190TIP3    H148985   2.179   2.083   2.135  1.2833 -0.7943  0.6141
 9190TIP3    H248986   2.254   2.214   2.123  0.4027 -0.2652  0.8467
 9191TIP3   OH248987   6.052   5.092  17.162  0.2866  0.7662 -0.4820
 9191TIP3    H148988   6.141   5.059  17.152  0.3042  0.8845 -0.7173
 9191TIP3    H248989   6.056   5.152  17.236 -0.0113 -0.7211  0.7708
 9192TIP3   OH248990   6.071   1.299  15.767 -0.0452  0.1910  0.3768
 9192TIP3    H148991   5.977   1.304  15.752 -0.1624 -0.0157  0.9953
 9192TIP3    H248992   6.079   1.255  15.852  0.6870 -2.8364 -1.1603
 9193TIP3   OH248993   5.786   6.355  16.233  0.3231 -0.5241  0.1658
 9193TIP3    H148994   5.814   6.441  16.264  0.3558 -0.0066 -1.2609
 9193TIP3    H248995   5.701   6.342  16.274  0.2467  0.2639  0.2745
 9194TIP3   OH248996   2.393   4.585   1.404 -0.2559  0.0161 -0.5058
 9194TIP3    H148997   2.439   4.669   1.414  1.0910 -0.4604 -2.3459
 9194TIP3    H248998   2.399   4.544   1.489  1.2079  0.7507 -0.2348
 9195TIP3   OH248999   0.096   5.745  14.953 -0.1121 -0.5187  0.4295
 9195TIP3    H149000   0.011   5.763  14.913  0.7439 -0.0322 -1.2492
 9195TIP3    H249001   0.122   5.660  14.918  1.0416  0.3080 -0.7758
 9196TIP3   OH249002   2.854   6.219  15.462  0.2400  0.0692  0.3887
 9196TIP3    H149003   2.776   6.187  15.508  0.5649 -0.9685  0.2186
 9196TIP3    H249004   2.820   6.261  15.384 -0.1829 -0.0100  0.5285
 9197TIP3   OH249005   5.135   3.999  16.184 -0.0924 -0.7183 -0.3081
 9197TIP3    H149006   5.062   4.061  16.191  0.9221  0.4559  0.1041
 9197TIP3    H249007   5.196   4.041  16.124  2.1058  0.2526  2.4990
 9198TIP3   OH249008   2.950   0.341   4.445 -0.2359 -0.6771 -0.1032
 9198TIP3    H149009   2.987   0.427   4.426 -0.9558 -0.4927 -0.7030
 9198TIP3    H249010   2.999   0.281   4.390  1.7731 -0.9704  1.9384
 9199TIP3   OH249011   3.546   6.172  17.175  0.3908 -0.3226  0.1217
 9199TIP3    H149012   3.631   6.150  17.136  0.5673  0.3933  0.0937
 9199TIP3    H249013   3.487   6.182  17.101  0.2904 -0.7822  0.1391
 9200TIP3   OH249014   6.209   1.572   3.871  0.4671  0.1383 -0.6287
 9200TIP3    H149015   6.127   1.523   3.868  0.0904  0.8030 -1.2761
 9200TIP3    H249016   6.277   1.507   3.851  0.4167 -1.0748  2.7874
 9201TIP3   OH249017   4.519   5.071  16.422 -0.8679 -0.2918 -0.6382
 9201TIP3    H149018   4.440   5.041  16.468 -0.8254 -1.1924 -1.1280
 9201TIP3    H249019   4.570   4.991  16.408 -0.7825  0.0045 -2.0682
 9202TIP3   OH249020   6.350   3.857  11.823  0.1695 -0.4846 -0.4482
 9202TIP3    H149021   6.337   3.783  11.763 -1.3251 -1.0695  0.5903
 9202TIP3    H249022   6.374   3.817  11.906 -1.0479  0.1712  0.2315
 9203TIP3   OH249023   1.345   6.156   0.523  0.0810  0.1442  0.1509
 9203TIP3    H149024   1.254   6.128   0.531 -0.0326  1.0681  2.4831
 9203TIP3    H249025   1.339   6.247   0.492  0.2306  0.1254  0.0661
 9204TIP3   OH249026   2.129   1.863  13.952  0.1834  0.3621  0.3946
 9204TIP3    H149027   2.143   1.783  14.004  2.1651  0.5199  0.1664
 9204TIP3    H249028   2.218   1.897  13.938 -0.6634  2.7933  0.7798
 9205TIP3   OH249029   4.009   1.193   4.622 -0.2223 -0.6737  0.5834
 9205TIP3    H149030   3.928   1.158   4.661 -1.0827  0.5573 -0.0860
 9205TIP3    H249031   4.031   1.269   4.676 -1.7000  1.3521 -1.5706
 9206TIP3   OH249032   4.585   1.054  13.710  0.3544 -0.3003 -0.0173
 9206TIP3    H149033   4.549   0.998  13.642  0.8982  1.1475 -1.5243
 9206TIP3    H249034   4.508   1.099  13.747  0.0158 -1.3779  0.6257
 9207TIP3   OH249035   2.536   3.604   6.263 -0.0659  0.1150  0.6466
 9207TIP3    H149036   2.475   3.649   6.321 -1.1014 -1.1832  0.6122
 9207TIP3    H249037   2.517   3.511   6.276 -0.0146 -0.2184 -1.4260
 9208TIP3   OH249038   1.754   5.335  14.819  0.0275  0.1571  0.5428
 9208TIP3    H149039   1.801   5.416  14.836 -0.5593  0.6072  0.0288
 9208TIP3    H249040   1.819   5.277  14.779  0.8363 -0.1454  2.2483
 9209TIP3   OH249041   1.019   2.866  12.963  0.4996 -0.2458 -0.2196
 9209TIP3    H149042   1.098   2.919  12.968  0.9352 -0.9943  1.1159
 9209TIP3    H249043   0.997   2.848  13.055 -0.0327 -1.7905 -0.6473
 9210TIP3   OH249044   3.031   6.165  14.838 -0.2770  0.4190 -0.3891
 9210TIP3    H149045   3.065   6.230  14.776 -0.5770  1.1704  0.2357
 9210TIP3    H249046   2.996   6.095  14.782  2.2020 -0.3510 -1.0653
 9211TIP3   OH249047   1.286   4.039  15.009 -0.3076 -0.2551 -0.4308
 9211TIP3    H149048   1.255   4.032  15.099 -1.9019  2.1631 -0.7703
 9211TIP3    H249049   1.211   4.013  14.955 -0.0504  0.4103 -1.1162
 9212TIP3   OH249050   2.507   0.226   6.200 -0.1557  0.1642 -0.0124
 9212TIP3    H149051   2.561   0.164   6.249 -0.1936  0.1620  0.0277
 9212TIP3    H249052   2.516   0.308   6.248  1.1889  0.5933 -0.9974
 9213TIP3   OH249053   5.594   0.276   0.443  0.7012  0.4827 -0.2715
 9213TIP3    H149054   5.686   0.297   0.461  0.8977  0.0078 -0.7059
 9213TIP3    H249055   5.569   0.334   0.372  1.0279 -0.2267 -0.9758
 9214TIP3   OH249056   3.923   4.862  13.157  0.5185  0.1694  0.2497
 9214TIP3    H149057   3.828   4.856  13.145  0.9961 -0.3958 -4.3020
 9214TIP3    H249058   3.944   4.951  13.130  1.4775 -0.2801 -0.4969
 9215TIP3   OH249059   1.903   6.226   0.672 -0.2912 -0.7239 -0.2404
 9215TIP3    H149060   1.811   6.251   0.663 -0.5413 -1.7776 -0.6630
 9215TIP3    H249061   1.950   6.310   0.676 -1.0120 -0.1577 -2.5331
 9216TIP3   OH249062   0.076   4.506   4.476 -0.4964  0.1422  0.2150
 9216TIP3    H149063   0.152   4.526   4.421  0.0044  0.9460  1.1804
 9216TIP3    H249064   0.088   4.413   4.499  0.4659  0.3876  0.7624
 9217TIP3   OH249065   4.350   1.205   4.875  0.5987 -0.3273 -0.3279
 9217TIP3    H149066   4.306   1.129   4.836  0.1933  0.2538 -1.0294
 9217TIP3    H249067   4.415   1.168   4.934  1.0657 -1.2287 -1.3952
 9218TIP3   OH249068   2.975   1.732  15.385  0.7695 -0.1157  0.3097
 9218TIP3    H149069   3.049   1.793  15.377 -0.2827  0.9361 -1.6898
 9218TIP3    H249070   2.929   1.762  15.463  1.3151  0.4852  0.4105
 9219TIP3   OH249071   0.695   1.045  15.741  0.0485 -0.2712  0.1609
 9219TIP3    H149072   0.624   0.993  15.700  0.7199  0.0321 -1.4383
 9219TIP3    H249073   0.683   1.032  15.835 -1.4412 -1.1564 -0.1279
 9220TIP3   OH249074   5.374   5.369  13.714  0.7149  0.2153 -0.1236
 9220TIP3    H149075   5.363   5.464  13.711  0.6856  0.1918 -0.9557
 9220TIP3    H249076   5.285   5.335  13.718  0.7739  0.2726  2.3256
 9221TIP3   OH249077   6.357   0.161   1.777  0.3910  0.3987  0.4381
 9221TIP3    H149078   6.309   0.097   1.725  0.7362  0.9585 -0.5740
 9221TIP3    H249079   6.409   0.109   1.838  1.9102 -0.3625 -1.4572
 9222TIP3   OH249080   5.716   1.115  14.904 -0.8082  0.5894  0.2123
 9222TIP3    H149081   5.642   1.168  14.934 -0.9209  2.1010 -2.5994
 9222TIP3    H249082   5.682   1.067  14.828  0.1804 -1.2062  0.8775
 9223TIP3   OH249083   4.665   2.658   0.311 -0.0615  0.0608 -0.2232
 9223TIP3    H149084   4.730   2.597   0.276 -0.5192  0.4178 -1.7360
 9223TIP3    H249085   4.624   2.696   0.233 -1.2864  0.6846  0.7126
 9224TIP3   OH249086   2.770   6.527   2.027  0.3486  0.2424  0.4748
 9224TIP3    H149087   2.788   6.459   1.962 -1.0331  0.3557 -0.0627
 9224TIP3    H249088   2.773   6.609   1.977 -0.6750  0.3354  0.5481
 9225TIP3   OH249089   3.903   0.541  16.078 -0.0982 -0.4735 -0.1055
 9225TIP3    H149090   3.934   0.548  15.987 -0.2673 -1.3976 -0.2306
 9225TIP3    H249091   3.935   0.457  16.108 -0.3294 -0.3105  0.5922
 9226TIP3   OH249092   2.678   1.842   3.947  0.4065  0.7678  0.1032
 9226TIP3    H149093   2.746   1.777   3.929 -2.1177 -1.9511  0.0127
 9226TIP3    H249094   2.622   1.800   4.012 -2.5650  1.8924 -1.6223
 9227TIP3   OH249095   2.604   6.615   4.815 -0.4012 -0.2848  0.4341
 9227TIP3    H149096   2.662   6.542   4.791 -1.1828 -0.8819  0.3661
 9227TIP3    H249097   2.516   6.583   4.797 -0.8258  0.2537  1.5206
 9228TIP3   OH249098   1.301   0.999  16.009  0.4407 -0.5234  0.1390
 9228TIP3    H149099   1.358   1.034  16.078  1.3074 -3.0312  0.7339
 9228TIP3    H249100   1.219   0.981  16.053 -0.1101  0.9683 -0.2359
 9229TIP3   OH249101   6.453   0.697  16.658 -0.2322  0.4161 -0.5073
 9229TIP3    H149102   6.506   0.775  16.645  2.0355 -1.2571 -1.5748
 9229TIP3    H249103   6.504   0.626  16.619 -2.0607 -1.6751  0.7687
 9230TIP3   OH249104   1.286   2.671  12.856  0.4212  0.3038 -0.0031
 9230TIP3    H149105   1.364   2.689  12.908 -0.9691  0.4601  2.0708
 9230TIP3    H249106   1.230   2.620  12.913 -0.5877 -0.6902 -1.8352
 9231TIP3   OH249107   5.449   0.087  15.885  0.7437 -0.0727 -0.0312
 9231TIP3    H149108   5.535   0.050  15.865  0.6427  0.1888 -0.9608
 9231TIP3    H249109   5.431   0.149  15.814 -0.0243  0.1967  0.3799
 9232TIP3   OH249110   4.461   6.546  14.960 -0.2163  0.5567 -0.1399
 9232TIP3    H149111   4.419   6.531  14.876  0.2146 -1.8168  0.0270
 9232TIP3    H249112   4.392   6.528  15.025  0.5711 -1.8298  0.0905
 9233TIP3   OH249113   1.550   3.207   2.102 -0.5407 -0.0825  0.0784
 9233TIP3    H149114   1.639   3.235   2.080 -0.5795 -1.0016 -1.2636
 9233TIP3    H249115   1.499   3.226   2.023 -1.6819  1.0041  1.0428
 9234TIP3   OH249116   0.913   2.468  11.304  0.2581  0.1064  0.0750
 9234TIP3    H149117   0.850   2.512  11.361 -1.8188  1.8196 -3.3812
 9234TIP3    H249118   0.897   2.375  11.318 -0.6554  0.4953  1.7521
 9235TIP3   OH249119   0.981   5.821  11.249  0.5908 -0.1857 -0.4357
 9235TIP3    H149120   0.903   5.874  11.266  0.5946 -0.8329  1.7482
 9235TIP3    H249121   1.030   5.871  11.183 -0.4318  1.4681  0.0272
 9236TIP3   OH249122   4.546   3.623   4.498  0.3940 -0.3668 -0.1881
 9236TIP3    H149123   4.539   3.718   4.492 -1.0831 -0.5299 -1.4466
 9236TIP3    H249124   4.619   3.600   4.440 -0.5945 -0.1567 -1.5403
 9237TIP3   OH249125   4.744   3.844   2.200 -0.8172 -0.2360  0.2077
 9237TIP3    H149126   4.831   3.836   2.160 -1.0895 -1.6657 -0.0990
 9237TIP3    H249127   4.753   3.918   2.260  0.0745  0.8702 -1.2329
 9238TIP3   OH249128   4.967   0.215   0.051  0.3104  0.1990 -0.5452
 9238TIP3    H149129   4.936   0.160   0.123 -0.8817  0.8489 -0.5478
 9238TIP3    H249130   4.951   0.162  -0.028  2.6381 -0.9630 -0.2691
 9239TIP3   OH249131   6.158   3.823   0.425 -0.1178  0.2351 -0.1848
 9239TIP3    H149132   6.130   3.888   0.490 -0.8890  1.6411 -1.8898
 9239TIP3    H249133   6.236   3.863   0.385  1.3383 -1.3585  0.9777
 9240TIP3   OH249134   6.511   6.276  11.617  0.4874  0.0447  0.1204
 9240TIP3    H149135   6.606   6.270  11.606  0.5574  0.8026  0.2634
 9240TIP3    H249136   6.480   6.317  11.536  0.0595 -1.8715 -0.7290
 9241TIP3   OH249137   5.005   4.333  11.281 -0.0855  0.1292  0.4937
 9241TIP3    H149138   5.038   4.423  11.283 -1.3791  0.6845 -1.4649
 9241TIP3    H249139   5.060   4.285  11.343  2.0932  1.7751 -0.1179
 9242TIP3   OH249140   3.989   6.196  12.372 -0.2668  0.1875 -0.1140
 9242TIP3    H149141   4.015   6.130  12.308  0.8417  0.3043  0.2021
 9242TIP3    H249142   3.894   6.190  12.376 -0.3278  0.0408 -1.6162
 9243TIP3   OH249143   4.519   3.863   7.149 -0.3854  0.1748 -0.0417
 9243TIP3    H149144   4.452   3.849   7.081 -0.4349  3.1947 -0.6663
 9243TIP3    H249145   4.600   3.833   7.108 -0.4386  1.8462 -1.4376
 9244TIP3   OH249146   3.931   5.810  11.634 -0.0017 -0.2660 -0.3876
 9244TIP3    H149147   3.888   5.756  11.701 -0.0778 -0.8368 -0.8977
 9244TIP3    H249148   3.915   5.763  11.552  2.2701 -0.9157 -0.4875
 9245TIP3   OH249149   1.832   1.963   3.411 -0.2395 -0.6118  0.0572
 9245TIP3    H149150   1.866   1.913   3.337  0.0518  0.6600 -0.6866
 9245TIP3    H249151   1.853   1.910   3.488  1.2318 -1.0001 -0.5975
 9246TIP3   OH249152   3.431   2.801   6.772 -0.3075  0.0732 -0.4566
 9246TIP3    H149153   3.509   2.777   6.822  1.4845  2.2749 -2.0910
 9246TIP3    H249154   3.362   2.809   6.838  1.5882  1.2093  1.4459
 9247TIP3   OH249155   2.078   0.690   4.052 -0.0713  0.3778  0.0235
 9247TIP3    H149156   2.126   0.737   4.120 -0.8122  1.6635 -0.3124
 9247TIP3    H249157   1.988   0.724   4.060 -0.3993 -0.2955 -0.8517
 9248TIP3   OH249158   0.862   0.194  14.967 -0.2882  0.3787  0.8306
 9248TIP3    H149159   0.766   0.189  14.964 -0.2006  0.0215 -3.7971
 9248TIP3    H249160   0.889   0.109  15.001 -1.5055 -1.0999 -1.8023
 9249TIP3   OH249161   2.387   6.040  15.070  0.4002  0.5519 -0.5464
 9249TIP3    H149162   2.410   6.132  15.059  1.7252 -0.0053 -2.8345
 9249TIP3    H249163   2.458   5.992  15.027 -0.1674 -1.5494  0.7757
 9250TIP3   OH249164   4.734   1.723  16.839 -0.3996 -0.2619 -0.2525
 9250TIP3    H149165   4.805   1.724  16.904 -0.4299  1.4708 -0.2164
 9250TIP3    H249166   4.655   1.709  16.891 -0.1360 -1.7549 -0.2431
 9251TIP3   OH249167   4.508   4.466   4.092 -0.0402 -0.2459  0.2714
 9251TIP3    H149168   4.538   4.557   4.089 -1.6919  0.3325  0.7243
 9251TIP3    H249169   4.585   4.416   4.119  1.0443  0.9356 -0.5609
 9252TIP3   OH249170   2.931   0.801  12.437 -0.2279  0.4406 -0.6439
 9252TIP3    H149171   3.017   0.778  12.472 -0.2619 -0.5637 -1.1959
 9252TIP3    H249172   2.897   0.867  12.496  0.7320  0.4934 -0.1555
 9253TIP3   OH249173   0.811   1.553  13.268 -0.2873  0.0257 -0.0896
 9253TIP3    H149174   0.900   1.557  13.233 -0.4325 -1.3204 -0.6426
 9253TIP3    H249175   0.756   1.585  13.197 -0.2972  0.3664  0.0686
 9254TIP3   OH249176   1.889   1.142   5.870  0.6270 -0.1002 -0.2228
 9254TIP3    H149177   1.929   1.219   5.830 -0.8761  1.1561  0.6612
 9254TIP3    H249178   1.818   1.119   5.811  0.9937 -0.7557 -0.4187
 9255TIP3   OH249179   6.070   3.411   0.166  0.0754  0.5273  0.4520
 9255TIP3    H149180   6.130   3.346   0.128 -0.0782 -0.8486  2.4778
 9255TIP3    H249181   5.988   3.364   0.177  0.5760  0.3346  3.9827
 9256TIP3   OH249182   2.444   2.743   1.181 -0.1699 -0.0287 -0.4665
 9256TIP3    H149183   2.353   2.766   1.197  0.5790  1.7981  1.3341
 9256TIP3    H249184   2.450   2.650   1.204 -1.5798 -0.1755 -0.6724
 9257TIP3   OH249185   2.556   4.373  12.520 -0.5832 -0.2785 -0.4099
 9257TIP3    H149186   2.590   4.459  12.495  0.9054 -1.0452 -1.1093
 9257TIP3    H249187   2.472   4.391  12.562  0.7115  1.6742  1.4036
 9258TIP3   OH249188   2.239   2.899  13.406 -0.1088  0.3007 -0.3965
 9258TIP3    H149189   2.151   2.867  13.425  0.8916 -1.4494  1.4656
 9258TIP3    H249190   2.246   2.980  13.457  0.0313 -0.5848  1.0017
 9259TIP3   OH249191   0.630   0.366   0.031  0.4895 -0.5206 -0.1715
 9259TIP3    H149192   0.701   0.375   0.095  1.8665  1.3146 -1.8784
 9259TIP3    H249193   0.565   0.432   0.059  0.3117 -0.8857  0.2900
 9260TIP3   OH249194   5.085   1.985  12.131 -0.3912 -0.2887 -0.0647
 9260TIP3    H149195   5.179   1.978  12.148  0.4502 -1.4393 -4.5125
 9260TIP3    H249196   5.050   1.899  12.155 -0.1888 -0.1180  0.8599
 9261TIP3   OH249197   1.246   1.061  10.493 -0.0688 -0.0578  0.5016
 9261TIP3    H149198   1.178   1.057  10.559  0.7327 -1.8531  1.2514
 9261TIP3    H249199   1.305   0.989  10.514  1.1229  0.3816 -1.1642
 9262TIP3   OH249200   6.046   4.777  15.435 -0.0181  0.4426  0.1988
 9262TIP3    H149201   6.130   4.784  15.390  0.2577 -1.2395  0.4033
 9262TIP3    H249202   6.061   4.818  15.520 -0.0867  2.2350 -0.6495
 9263TIP3   OH249203   6.616   1.747   0.855 -0.3131  0.2131  0.3187
 9263TIP3    H149204   6.599   1.746   0.761  1.7210  1.0722 -0.0938
 9263TIP3    H249205   6.546   1.800   0.892 -1.2069 -0.2549 -0.6886
 9264TIP3   OH249206   3.623   2.023  11.336 -0.5590  0.1683 -0.3051
 9264TIP3    H149207   3.590   2.093  11.392 -0.8158 -0.7143  0.6575
 9264TIP3    H249208   3.544   1.984  11.298 -0.5670 -1.1695  1.0598
 9265TIP3   OH249209   3.782   4.257  12.667 -0.2125  0.1274 -0.1384
 9265TIP3    H149210   3.843   4.326  12.691  0.4007 -0.6420  0.5193
 9265TIP3    H249211   3.824   4.211  12.595 -0.3747  0.0883 -0.2100
 9266TIP3   OH249212   3.183   3.657  13.477  0.0719  0.0328  0.0567
 9266TIP3    H149213   3.177   3.569  13.441  1.3751 -0.4661  1.0594
 9266TIP3    H249214   3.099   3.698  13.454 -0.3978 -1.3402 -0.7080
 9267TIP3   OH249215   1.164   5.907  13.040 -0.5399 -0.2719 -0.8366
 9267TIP3    H149216   1.182   5.918  13.134 -0.7260  0.5323 -0.8893
 9267TIP3    H249217   1.227   5.965  12.997  0.7455 -1.9442 -1.3097
 9268TIP3   OH249218   5.377   4.003   3.911  0.1314  0.3313 -0.3883
 9268TIP3    H149219   5.309   3.952   3.867  0.6755  0.7514 -1.7427
 9268TIP3    H249220   5.331   4.045   3.984 -0.2546 -2.2759  0.9173
 9269TIP3   OH249221   6.100   5.295   3.626  0.0132 -0.0778  0.3106
 9269TIP3    H149222   6.027   5.234   3.637 -2.0790  2.5034  1.2717
 9269TIP3    H249223   6.138   5.303   3.714  0.5026 -0.2481  0.1166
 9270TIP3   OH249224   6.271   4.204  11.365 -1.0182 -0.3777 -0.5186
 9270TIP3    H149225   6.265   4.226  11.458  1.4467  0.6810 -0.5831
 9270TIP3    H249226   6.254   4.287  11.320  1.3464 -0.0934 -0.9233
 9271TIP3   OH249227   0.261   0.910   1.230  0.2086 -0.3419  0.4758
 9271TIP3    H149228   0.169   0.890   1.245  0.2498 -1.2206 -0.3752
 9271TIP3    H249229   0.307   0.863   1.299  0.1612 -1.6353 -0.3535
 9272TIP3   OH249230   2.216   4.211  16.835 -0.0243  0.4555 -0.1524
 9272TIP3    H149231   2.142   4.271  16.840 -0.1577  0.2253  0.6823
 9272TIP3    H249232   2.212   4.161  16.916 -1.2771 -2.3053 -1.8376
 9273TIP3   OH249233   3.069   5.249   3.219 -0.1894  0.2666  0.6002
 9273TIP3    H149234   3.071   5.186   3.291  2.0479 -0.7419 -0.2862
 9273TIP3    H249235   3.128   5.319   3.247 -0.0876  0.3536  0.1710
 9274TIP3   OH249236   4.711   3.011   5.365 -0.6425  0.3339  0.7066
 9274TIP3    H149237   4.637   2.966   5.325 -1.6187  0.8945  1.8475
 9274TIP3    H249238   4.745   2.947   5.429  0.0166 -0.0101  0.0248
 9275TIP3   OH249239   5.908   2.115   5.041 -0.1314  0.2564 -0.5411
 9275TIP3    H149240   5.993   2.146   5.010  1.0687 -1.2582  1.0614
 9275TIP3    H249241   5.846   2.143   4.975  1.7375  0.7376 -2.1377
 9276TIP3   OH249242   5.738   2.313  12.200  0.2632 -0.7481 -0.1045
 9276TIP3    H149243   5.766   2.378  12.135  0.4327 -1.0762 -0.3622
 9276TIP3    H249244   5.670   2.263  12.154 -2.6355  1.7011  1.3654
 9277TIP3   OH249245   2.678   1.181   2.218  0.8229  0.5340  1.0311
 9277TIP3    H149246   2.635   1.229   2.289 -0.1206  0.0075  0.8093
 9277TIP3    H249247   2.618   1.189   2.144  1.4581  0.4405  0.5022
 9278TIP3   OH249248   0.708   3.885  15.983 -0.3877 -0.0203 -0.7029
 9278TIP3    H149249   0.694   3.913  16.073  0.1970  0.0259 -0.6260
 9278TIP3    H249250   0.653   3.944  15.931 -1.3321 -0.5513 -0.3236
 9279TIP3   OH249251   0.668   2.202  13.747  0.1241  0.6706  0.2940
 9279TIP3    H149252   0.738   2.153  13.791 -0.3095  0.2099  0.4719
 9279TIP3    H249253   0.683   2.293  13.773  0.2946  0.4961  0.8207
 9280TIP3   OH249254   2.740   3.255   5.939  0.3638  0.5655 -0.0015
 9280TIP3    H149255   2.678   3.183   5.935  0.9383  0.0738 -0.2086
 9280TIP3    H249256   2.752   3.272   6.033  1.2466 -0.5122  0.0950
 9281TIP3   OH249257   2.395   3.605  13.984 -0.2293 -0.1250  0.0367
 9281TIP3    H149258   2.443   3.534  13.941 -1.1927 -1.4338  1.0968
 9281TIP3    H249259   2.315   3.615  13.933 -0.4680 -0.3535  0.3645
 9282TIP3   OH249260   3.415   4.670  16.402  0.0711  0.7175 -0.7589
 9282TIP3    H149261   3.375   4.609  16.339  0.3607 -0.1067 -0.1529
 9282TIP3    H249262   3.344   4.731  16.423 -1.5853 -1.9651  1.8998
 9283TIP3   OH249263   0.546   1.290  16.113 -0.7597  0.3851 -0.8085
 9283TIP3    H149264   0.504   1.366  16.153  0.0291  0.1537  0.5198
 9283TIP3    H249265   0.581   1.240  16.188 -1.6686 -1.5287 -1.6122
 9284TIP3   OH249266   3.601   1.453  13.549  0.3407  0.3495 -0.0808
 9284TIP3    H149267   3.671   1.471  13.487 -0.6477  1.1761 -0.9809
 9284TIP3    H249268   3.539   1.525  13.538 -0.3189  0.0018  1.1898
 9285TIP3   OH249269   0.740   4.338  15.241 -0.3130 -0.0228  0.1943
 9285TIP3    H149270   0.698   4.356  15.325 -0.7410  0.5560 -0.1405
 9285TIP3    H249271   0.683   4.379  15.176  0.3363  0.0675 -0.3293
 9286TIP3   OH249272   3.644   6.377  14.446  0.3944  0.9128 -0.2282
 9286TIP3    H149273   3.693   6.333  14.376 -0.3658 -0.2056 -0.0585
 9286TIP3    H249274   3.674   6.468  14.442  1.4111  0.5522 -1.0786
 9287TIP3   OH249275   0.638   2.330   3.867  0.2221 -0.1871 -0.2801
 9287TIP3    H149276   0.724   2.364   3.843  0.7798 -1.2759  0.1268
 9287TIP3    H249277   0.650   2.235   3.867 -0.4655 -0.2961  1.6736
 9288TIP3   OH249278   2.357   4.015   3.101 -0.2201 -0.7596 -0.1261
 9288TIP3    H149279   2.268   3.987   3.120  0.7124 -3.2737  0.7484
 9288TIP3    H249280   2.354   4.047   3.010 -3.1251  4.3971  1.6029
 9289TIP3   OH249281   2.667   3.519   1.217 -0.0613 -0.0865  0.1388
 9289TIP3    H149282   2.671   3.611   1.190 -1.7159  0.1885  0.7727
 9289TIP3    H249283   2.583   3.488   1.182 -0.8707 -0.5339  2.4393
 9290TIP3   OH249284   6.537   3.861   5.943  0.1410  0.2276 -0.6447
 9290TIP3    H149285   6.511   3.947   5.975  1.4317  0.4877 -0.2788
 9290TIP3    H249286   6.520   3.802   6.017 -1.2388  0.0625 -1.0711
 9291TIP3   OH249287   6.335   1.432  17.218  0.0757  0.5471  0.1935
 9291TIP3    H149288   6.342   1.479  17.301 -2.0062  1.0235  0.1345
 9291TIP3    H249289   6.300   1.497  17.156  0.9010 -0.0059 -0.8731
 9292TIP3   OH249290   5.489   4.714   0.154 -0.1956 -0.2500 -0.5560
 9292TIP3    H149291   5.550   4.640   0.148  0.8475  0.5988 -0.6570
 9292TIP3    H249292   5.402   4.675   0.144  0.2666 -1.6136  0.5025
 9293TIP3   OH249293   1.403   2.826   5.894  0.4594  0.0814 -0.0466
 9293TIP3    H149294   1.345   2.753   5.872  2.0539 -1.3279  0.2819
 9293TIP3    H249295   1.345   2.896   5.922 -1.0324 -1.5571  1.0004
 9294TIP3   OH249296   4.876   3.458  11.853 -0.2067 -0.6669  0.0504
 9294TIP3    H149297   4.852   3.460  11.946  1.1635  1.3183  0.3918
 9294TIP3    H249298   4.956   3.405  11.850 -2.0954 -3.6166 -0.5037
 9295TIP3   OH249299   1.502   3.075   5.664  0.3697 -0.2705  0.2625
 9295TIP3    H149300   1.527   2.995   5.711  1.5983 -0.2304 -0.3126
 9295TIP3    H249301   1.585   3.117   5.642 -0.2350  0.3665 -0.8290
 9296TIP3   OH249302   5.494   6.116  13.243  0.3321 -0.6206 -0.4513
 9296TIP3    H149303   5.447   6.040  13.276 -0.0345 -1.2555 -2.3981
 9296TIP3    H249304   5.566   6.080  13.191  0.6044  0.3629 -0.7774
 9297TIP3   OH249305   5.923   0.486  13.423 -0.5057 -0.1598  0.3874
 9297TIP3    H149306   5.978   0.533  13.360 -2.1387 -0.8236 -1.5768
 9297TIP3    H249307   5.977   0.414  13.454 -0.0584 -0.5010 -1.1406
 9298TIP3   OH249308   0.178   4.276  13.140 -0.5581  0.3515 -0.3446
 9298TIP3    H149309   0.236   4.334  13.092  0.0764 -0.5204 -0.6382
 9298TIP3    H249310   0.235   4.207  13.174 -1.1019  0.6002  1.1039
 9299TIP3   OH249311   0.736   5.985  12.109  0.4619 -0.9420 -0.0246
 9299TIP3    H149312   0.774   6.072  12.096 -0.6864 -0.4800 -0.3255
 9299TIP3    H249313   0.759   5.936  12.030 -0.4615 -0.3382 -0.6715
 9300TIP3   OH249314   2.185   0.331  15.017  0.0664 -0.0996 -0.4285
 9300TIP3    H149315   2.246   0.391  15.061 -0.5698 -0.1405  0.5144
 9300TIP3    H249316   2.217   0.244  15.040 -1.5691 -0.1483  1.8460
 9301TIP3   OH249317   4.033   0.020   0.274  0.0401 -0.0885 -0.1951
 9301TIP3    H149318   4.064   0.062   0.193 -0.4409 -0.2255 -0.4491
 9301TIP3    H249319   4.113  -0.007   0.318  0.2943 -0.3781 -0.8202
 9302TIP3   OH249320   2.496   1.339   5.332 -0.3235  0.0081  0.2243
 9302TIP3    H149321   2.407   1.311   5.313 -0.6183 -0.0444  1.6596
 9302TIP3    H249322   2.542   1.260   5.358  0.3562 -0.0959 -1.2162
 9303TIP3   OH249323   1.455   2.324  14.928 -0.8457  0.6871 -0.2648
 9303TIP3    H149324   1.473   2.358  14.841 -0.5581  3.8215  0.9606
 9303TIP3    H249325   1.416   2.397  14.975  1.5622 -0.0254  3.0601
 9304TIP3   OH249326   0.022   6.386   1.679  0.2355  0.4199  0.1795
 9304TIP3    H149327   0.075   6.431   1.745  1.5878 -0.7691 -0.0731
 9304TIP3    H249328   0.068   6.400   1.596  0.3566 -0.8827  0.0020
 9305TIP3   OH249329   0.096   3.946   0.007 -0.1022  0.3597 -0.0937
 9305TIP3    H149330   0.101   4.039  -0.016  0.6641  0.2830 -0.2561
 9305TIP3    H249331   0.082   3.946   0.102 -0.3207  0.6429 -0.1238
 9306TIP3   OH249332   2.522   6.141  16.379  0.3824  0.1989 -0.7814
 9306TIP3    H149333   2.606   6.168  16.417  0.2088  1.4625 -1.2693
 9306TIP3    H249334   2.540   6.058  16.336  1.4989  0.7186 -1.3212
 9307TIP3   OH249335   1.142   4.233  13.669 -0.3474 -0.6853  0.6117
 9307TIP3    H149336   1.145   4.207  13.761  0.1297  0.7061  0.9975
 9307TIP3    H249337   1.063   4.287  13.662  0.4470  0.4972  0.5695
 9308TIP3   OH249338   0.749   0.174   2.337  0.1967  0.1581  0.7331
 9308TIP3    H149339   0.675   0.230   2.314  0.3342  0.2762  0.5786
 9308TIP3    H249340   0.725   0.088   2.303 -0.1805  0.0381  1.2978
 9309TIP3   OH249341   5.061   2.514  13.698 -0.0005  0.3584 -0.0188
 9309TIP3    H149342   5.010   2.437  13.721  0.5607  0.0815  0.3064
 9309TIP3    H249343   5.003   2.588  13.715  0.5613  0.1892  2.8169
 9310TIP3   OH249344   1.706   5.888   3.850  0.5295 -0.3498 -0.7929
 9310TIP3    H149345   1.639   5.825   3.826  1.9862 -1.5773 -1.7518
 9310TIP3    H249346   1.680   5.969   3.806 -0.9174 -0.4938 -0.2169
 9311TIP3   OH249347   5.647   3.500  13.253  0.2214  0.2528 -0.3177
 9311TIP3    H149348   5.646   3.595  13.246  0.8263  0.5376  2.6253
 9311TIP3    H249349   5.715   3.482  13.318 -0.5402 -2.1082 -0.1246
 9312TIP3   OH249350   3.285   4.796  15.763  0.3354 -0.0458 -0.2469
 9312TIP3    H149351   3.370   4.770  15.728  1.2041  0.2526  1.6028
 9312TIP3    H249352   3.286   4.765  15.853 -1.4211  0.1920 -0.1397
 9313TIP3   OH249353   2.398   0.338   4.452  0.0242  0.2743 -0.1638
 9313TIP3    H149354   2.475   0.366   4.501  0.3377  0.4158 -0.7235
 9313TIP3    H249355   2.411   0.375   4.364 -0.6904  0.3134 -0.2574
 9314TIP3   OH249356   1.835   1.374   2.729  0.3450 -0.2385 -0.8442
 9314TIP3    H149357   1.750   1.402   2.763  0.8115  1.2794 -0.9246
 9314TIP3    H249358   1.899   1.407   2.792  0.8251 -2.3170 -0.1988
 9315TIP3   OH249359   3.351   4.636  11.271  0.6083  0.1238  0.3390
 9315TIP3    H149360   3.308   4.660  11.188  1.3070 -0.5528 -0.2236
 9315TIP3    H249361   3.417   4.704  11.284  1.4841 -0.5728 -0.4161
 9316TIP3   OH249362   2.050   3.931  11.767  0.1865 -0.0934  0.1287
 9316TIP3    H149363   2.073   3.842  11.742  0.0509 -0.1967  0.3758
 9316TIP3    H249364   1.955   3.928  11.780 -0.1848  0.6152 -2.1185
 9317TIP3   OH249365   4.528   3.450   3.770 -0.5216 -0.2849  0.2563
 9317TIP3    H149366   4.484   3.480   3.850  0.9896  1.6046  0.4104
 9317TIP3    H249367   4.620   3.473   3.783 -0.2982  0.3335 -2.1668
 9318TIP3   OH249368   3.016   4.766  13.641 -0.2466  0.1092  0.5281
 9318TIP3    H149369   2.984   4.744  13.553  1.2542  0.9240 -0.2474
 9318TIP3    H249370   3.076   4.840  13.627 -0.8298  0.9825  2.3748
 9319TIP3   OH249371   5.008   2.033   5.345  0.0424 -0.5378  0.2824
 9319TIP3    H149372   4.990   1.965   5.279 -0.8685 -0.6091  0.5945
 9319TIP3    H249373   5.090   2.073   5.316  0.2447 -1.3297 -0.2721
 9320TIP3   OH249374   5.671   4.920   5.805  0.3755  0.1934 -0.1048
 9320TIP3    H149375   5.596   4.913   5.865  0.5129  0.3677  0.0897
 9320TIP3    H249376   5.649   4.994   5.748 -0.0526 -0.3862 -0.6954
 9321TIP3   OH249377   4.373   4.208   6.806 -0.7682  0.2356 -0.0323
 9321TIP3    H149378   4.352   4.211   6.899  0.2709 -0.8645  0.2428
 9321TIP3    H249379   4.331   4.129   6.774  0.0140 -0.1058 -0.2148
 9322TIP3   OH249380   6.417   4.417  15.354  0.2749 -0.0177 -0.0576
 9322TIP3    H149381   6.367   4.451  15.280 -1.5319 -0.5998  0.8667
 9322TIP3    H249382   6.477   4.354  15.315  0.8683  1.2815 -1.2859
 9323TIP3   OH249383   2.577   4.318  11.217  0.3714 -1.1413 -0.1191
 9323TIP3    H149384   2.539   4.236  11.187 -1.5066 -1.3155  2.5363
 9323TIP3    H249385   2.549   4.383  11.152 -2.1607 -1.7925  0.2610
 9324TIP3   OH249386   3.437   4.280  16.365  0.1473 -0.1768  0.4595
 9324TIP3    H149387   3.358   4.318  16.326  1.2666  3.0007  1.1153
 9324TIP3    H249388   3.496   4.266  16.291 -0.3771 -0.9730  0.1809
 9325TIP3   OH249389   0.343   4.034  13.518 -0.6045  0.5179 -0.1508
 9325TIP3    H149390   0.282   3.994  13.580  0.3276 -0.1442  0.3594
 9325TIP3    H249391   0.359   3.966  13.453  0.6511  0.1887  0.4784
 9326TIP3   OH249392   2.412   0.295  10.262 -0.5370  0.0795 -0.0014
 9326TIP3    H149393   2.421   0.318  10.170 -0.4296  0.5759  0.1301
 9326TIP3    H249394   2.502   0.293  10.295 -0.5422 -0.6367 -0.0402
 9327TIP3   OH249395   6.214   2.043  14.882  0.6247  0.5785 -0.1939
 9327TIP3    H149396   6.288   2.011  14.829 -1.5040 -2.1108 -1.6547
 9327TIP3    H249397   6.153   2.080  14.819  0.4825  2.4055  0.9698
 9328TIP3   OH249398   0.908   6.469  15.859 -0.2651  0.0017 -0.0792
 9328TIP3    H149399   0.814   6.477  15.848 -0.0412  1.5292 -0.9405
 9328TIP3    H249400   0.943   6.555  15.838  1.4354 -0.8483 -0.8598
 9329TIP3   OH249401   1.246   5.546  11.252 -0.4612 -0.4359  0.1132
 9329TIP3    H149402   1.272   5.572  11.163  0.0704 -2.6405 -0.4081
 9329TIP3    H249403   1.303   5.472  11.273 -3.1590 -2.3921  0.7785
 9330TIP3   OH249404   3.995   0.539   2.938 -0.2721  0.2347  0.5494
 9330TIP3    H149405   4.053   0.473   2.974 -1.5782 -0.0984  2.1009
 9330TIP3    H249406   4.042   0.574   2.862  0.1851 -2.8559 -0.6550
 9331TIP3   OH249407   5.267   3.924   3.432 -0.0485 -0.0294  0.6420
 9331TIP3    H149408   5.267   3.900   3.525 -2.0164  2.5443  1.3459
 9331TIP3    H249409   5.215   3.855   3.390 -0.3891 -0.4119  1.6683
 9332TIP3   OH249410   2.341   5.221   5.578 -0.4062 -0.1908  0.1301
 9332TIP3    H149411   2.366   5.165   5.505 -1.1555 -0.4888  0.0995
 9332TIP3    H249412   2.270   5.275   5.544 -1.4159 -1.0040  0.9246
 9333TIP3   OH249413   5.144   1.065  13.222 -0.3558 -0.1743  0.2667
 9333TIP3    H149414   5.116   1.133  13.160 -1.9607 -0.4422  0.6635
 9333TIP3    H249415   5.187   1.113  13.293  0.2295  0.2546 -0.3765
 9334TIP3   OH249416   1.765   2.567  14.713 -1.1648 -0.4219 -0.6804
 9334TIP3    H149417   1.859   2.575  14.726 -1.7233  2.9850  1.9845
 9334TIP3    H249418   1.752   2.586  14.620  0.5941  1.0442 -0.6463
 9335TIP3   OH249419   6.756   0.196   3.157  0.2302  0.4259 -0.1457
 9335TIP3    H149420   6.808   0.179   3.078 -1.9431 -0.0364 -1.5295
 9335TIP3    H249421   6.739   0.110   3.194 -0.7357  0.4548 -0.5046
 9336TIP3   OH249422   3.164   2.994  12.197 -0.1688  0.1761 -0.3530
 9336TIP3    H149423   3.107   3.062  12.233  0.3616  0.3025  0.2436
 9336TIP3    H249424   3.235   3.041  12.156 -0.5401  0.0189 -1.1991
 9337TIP3   OH249425   6.542   5.185   3.854  0.0906  0.4667  0.1312
 9337TIP3    H149426   6.447   5.186   3.851  0.0899 -1.7244 -1.0956
 9337TIP3    H249427   6.569   5.240   3.780 -0.2143  0.9144  0.3522
 9338TIP3   OH249428   3.541   6.286  12.401  0.0092  0.2928 -0.2202
 9338TIP3    H149429   3.601   6.221  12.365  0.4583  0.9472 -0.6528
 9338TIP3    H249430   3.459   6.238  12.413 -0.1969  0.1170 -2.2921
 9339TIP3   OH249431   1.553   3.485   0.039 -0.1062 -0.2084  0.8504
 9339TIP3    H149432   1.510   3.503  -0.045 -0.7722  0.4593  1.3298
 9339TIP3    H249433   1.518   3.400   0.066  0.2510 -0.5162  0.3690
 9340TIP3   OH249434   0.135   6.537  11.772 -0.0439  0.0612 -0.0102
 9340TIP3    H149435   0.187   6.501  11.844  2.4300 -1.0048 -2.2529
 9340TIP3    H249436   0.188   6.608  11.737 -1.0104  0.2605 -1.1000
 9341TIP3   OH249437   4.317   4.561  11.545 -0.8201 -0.5690  0.2225
 9341TIP3    H149438   4.324   4.481  11.493 -0.6894 -0.5738  0.2471
 9341TIP3    H249439   4.270   4.534  11.624 -0.1705 -0.7820  0.5460
 9342TIP3   OH249440   6.068   1.277  12.492  0.1344  0.3121 -0.4628
 9342TIP3    H149441   6.087   1.349  12.552 -1.0385 -0.0428  0.3498
 9342TIP3    H249442   5.987   1.239  12.526  0.4210 -1.0034 -1.2545
 9343TIP3   OH249443   5.770   3.543   6.637 -0.1306 -0.1284  0.0299
 9343TIP3    H149444   5.691   3.561   6.586  0.5363  0.6250 -0.7490
 9343TIP3    H249445   5.744   3.474   6.698 -1.1358 -0.5594 -0.8669
 9344TIP3   OH249446   1.352   4.719  14.509  0.1144  0.1599 -0.1044
 9344TIP3    H149447   1.373   4.634  14.470 -0.1510  0.5088 -1.0077
 9344TIP3    H249448   1.376   4.709  14.601 -0.0597 -0.9470 -0.1696
 9345TIP3   OH249449   2.088   1.220   1.563 -0.6233 -0.0488  0.2619
 9345TIP3    H149450   2.077   1.311   1.535 -0.0118 -0.2399 -0.6194
 9345TIP3    H249451   2.180   1.213   1.586 -0.5467 -0.5956 -0.2076
 9346TIP3   OH249452   1.238   4.021   0.393 -0.2464 -0.4617  0.2493
 9346TIP3    H149453   1.311   4.056   0.343 -1.1900  0.2086 -0.6837
 9346TIP3    H249454   1.163   4.074   0.366 -1.8388 -3.4964 -1.5728
 9347TIP3   OH249455   2.289   5.663  17.171  0.0148 -0.3316 -0.0973
 9347TIP3    H149456   2.232   5.735  17.144  0.2266  0.0743  0.5077
 9347TIP3    H249457   2.230   5.588  17.179 -0.0170 -0.5087 -1.8161
 9348TIP3   OH249458   0.367   1.363  15.642  0.9090 -0.3445 -0.2765
 9348TIP3    H149459   0.362   1.343  15.735 -1.1828  1.2211 -0.0321
 9348TIP3    H249460   0.399   1.453  15.638 -2.5156  0.9331 -0.8758
 9349TIP3   OH249461   0.370   5.507  15.459  0.0350  0.3935  0.2294
 9349TIP3    H149462   0.441   5.496  15.395  0.1495 -0.4613  0.4975
 9349TIP3    H249463   0.373   5.600  15.482  1.0008  0.3861  0.1608
 9350TIP3   OH249464   4.357   3.880   1.328  0.4377 -0.0412 -0.2854
 9350TIP3    H149465   4.402   3.860   1.410  1.4505 -0.9839 -1.0467
 9350TIP3    H249466   4.419   3.854   1.260 -1.5005 -2.0360 -1.3768
 9351TIP3   OH249467   6.408   2.784   2.605  0.3607  0.0383  0.1057
 9351TIP3    H149468   6.415   2.693   2.574 -3.6429 -0.9126  1.7223
 9351TIP3    H249469   6.436   2.781   2.696 -1.9738 -0.1206  0.8685
 9352TIP3   OH249470   3.248   1.969  10.945  0.2177 -0.1814  0.4243
 9352TIP3    H149471   3.337   2.004  10.948 -0.1030  0.5558  1.2866
 9352TIP3    H249472   3.221   1.962  11.036 -0.9044  0.3692  0.1472
 9353TIP3   OH249473   4.259   6.139  13.031 -0.2023  0.5181  0.2167
 9353TIP3    H149474   4.199   6.213  13.027  0.5021  1.1107  0.4106
 9353TIP3    H249475   4.327   6.167  13.092  0.8125  0.2628 -0.7769
 9354TIP3   OH249476   4.569   4.507   5.002  0.2145 -0.3056 -0.0516
 9354TIP3    H149477   4.484   4.551   5.010  0.2723 -0.1669 -0.2127
 9354TIP3    H249478   4.618   4.537   5.079 -0.2976 -1.2962  0.6751
 9355TIP3   OH249479   6.080   6.240   2.308  0.7042 -0.3031  0.0670
 9355TIP3    H149480   6.127   6.250   2.391 -0.7976  0.5648  0.8380
 9355TIP3    H249481   6.015   6.172   2.325  1.5262 -1.3472 -0.9245
 9356TIP3   OH249482   6.104   6.452  13.536 -0.5800 -0.1398 -0.1650
 9356TIP3    H149483   6.181   6.506  13.556 -0.7353  0.3624 -0.8967
 9356TIP3    H249484   6.134   6.362  13.546  0.1429  0.0511 -0.5856
 9357TIP3   OH249485   3.140   5.097  12.234 -0.5174  0.6504 -0.1068
 9357TIP3    H149486   3.232   5.104  12.259 -0.1942  2.5007 -1.6711
 9357TIP3    H249487   3.114   5.187  12.210 -2.5252  0.0462 -0.3372
 9358TIP3   OH249488   1.298   4.012  15.703  0.4658 -0.0644 -0.3288
 9358TIP3    H149489   1.210   4.025  15.738  0.5535  1.3828 -0.6305
 9358TIP3    H249490   1.291   4.037  15.611  1.0324 -0.6320 -0.5296
 9359TIP3   OH249491   4.748   3.603   3.230 -0.0683 -0.2718 -0.1738
 9359TIP3    H149492   4.707   3.534   3.282 -0.3195 -0.2446 -0.3309
 9359TIP3    H249493   4.837   3.572   3.214 -0.5011 -1.0581 -1.1497
 9360TIP3   OH249494   2.766   0.733   4.263  0.0674 -0.5530 -0.3206
 9360TIP3    H149495   2.753   0.788   4.185  0.2916 -1.7669 -1.2239
 9360TIP3    H249496   2.677   0.717   4.296  0.0245  0.7421  0.2437
 9361TIP3   OH249497   4.032   6.329  13.409 -0.6083 -0.0170  0.1307
 9361TIP3    H149498   3.981   6.365  13.337  0.2765 -0.3257 -0.6644
 9361TIP3    H249499   4.041   6.236  13.388 -0.7796 -0.2081  0.9028
 9362TIP3   OH249500   3.909   1.897  14.854 -0.2977 -0.1892  0.6784
 9362TIP3    H149501   3.848   1.887  14.927  0.1174 -0.6294  0.9593
 9362TIP3    H249502   3.966   1.821  14.859  0.8511  0.6726  0.9495
 9363TIP3   OH249503   5.695   6.747  15.828 -0.1618  0.2370 -0.1214
 9363TIP3    H149504   5.697   6.796  15.746  2.0044 -0.1096 -0.3167
 9363TIP3    H249505   5.772   6.778  15.876 -2.5119  1.9514  2.7286
 9364TIP3   OH249506   2.521   2.783  14.958 -0.3102 -0.0230  0.0227
 9364TIP3    H149507   2.509   2.838  14.880 -1.4597 -1.3022 -0.7321
 9364TIP3    H249508   2.535   2.695  14.923 -2.2978 -0.8597  1.2803
 9365TIP3   OH249509   2.597   0.216   1.800  0.0088 -0.1361  0.2189
 9365TIP3    H149510   2.605   0.304   1.835  1.0389  0.1661 -0.7150
 9365TIP3    H249511   2.505   0.206   1.777 -0.3372  0.2588  1.4295
 9366TIP3   OH249512   0.827   6.733  16.918 -0.8213  0.3199  0.1383
 9366TIP3    H149513   0.778   6.721  16.999 -0.1581 -3.5659  0.0827
 9366TIP3    H249514   0.914   6.699  16.938 -0.0661  1.1545 -1.6366
 9367TIP3   OH249515   3.800   5.324  12.830 -0.2226  0.2116  0.1907
 9367TIP3    H149516   3.831   5.290  12.746 -2.2105  1.7417 -1.1915
 9367TIP3    H249517   3.770   5.246  12.877  1.3682 -0.7171 -0.2929
 9368TIP3   OH249518   4.206   1.181   6.197  0.5156  0.0319 -0.1108
 9368TIP3    H149519   4.147   1.128   6.251  1.4270 -1.5874 -0.7009
 9368TIP3    H249520   4.156   1.261   6.179 -1.5206 -1.3287 -0.6407
 9369TIP3   OH249521   2.402   4.346   5.745 -0.3837  0.2124 -0.0591
 9369TIP3    H149522   2.459   4.274   5.719 -0.0299  0.4591  0.0403
 9369TIP3    H249523   2.455   4.425   5.736 -0.3557  0.3342  1.0840
 9370TIP3   OH249524   1.089   1.525   1.935  0.7399  0.4493 -0.6326
 9370TIP3    H149525   1.144   1.560   2.005 -1.1126  0.4349  0.8812
 9370TIP3    H249526   1.093   1.591   1.866 -0.7848  2.5613  1.2228
 9371TIP3   OH249527   6.358   3.860   1.666 -0.3579  0.1312 -0.0721
 9371TIP3    H149528   6.425   3.909   1.713 -1.1205  0.8115  0.3264
 9371TIP3    H249529   6.360   3.897   1.577 -0.4223  0.3701  0.0253
 9372TIP3   OH249530   1.841   3.552   6.043  0.4370 -0.1137  0.5555
 9372TIP3    H149531   1.759   3.505   6.030 -0.8370  1.2139  3.1903
 9372TIP3    H249532   1.898   3.489   6.087 -0.6416  0.1548  2.4366
 9373TIP3   OH249533   6.291   1.136  14.956 -0.0837 -0.4951  0.0137
 9373TIP3    H149534   6.360   1.200  14.974 -0.6126  0.7344 -2.1941
 9373TIP3    H249535   6.310   1.063  15.016  3.0592 -0.1354 -0.4663
 9374TIP3   OH249536   3.598   3.739  14.406  0.3463 -0.3668  0.2937
 9374TIP3    H149537   3.683   3.780  14.394  0.9043 -1.2785  1.0407
 9374TIP3    H249538   3.569   3.767  14.493  0.5060 -1.1221  0.6016
 9375TIP3   OH249539   6.483   4.187   0.762  0.2203  0.1128  0.9187
 9375TIP3    H149540   6.478   4.244   0.839  1.7432  0.3168  0.8959
 9375TIP3    H249541   6.523   4.241   0.694  1.1650 -0.7800  0.7310
 9376TIP3   OH249542   5.302   0.353  14.556  0.0964  0.8218  0.3997
 9376TIP3    H149543   5.393   0.361  14.530  0.2482 -0.4167  0.5256
 9376TIP3    H249544   5.281   0.261  14.543 -0.9333  0.9554  1.0262
 9377TIP3   OH249545   3.478   6.515  13.376 -0.0133 -0.3796  0.0309
 9377TIP3    H149546   3.390   6.552  13.379 -0.2862 -0.9076 -1.1249
 9377TIP3    H249547   3.484   6.474  13.290  0.5105 -2.4585  1.0342
 9378TIP3   OH249548   1.647   2.667   2.490  0.2111 -0.0233  0.5005
 9378TIP3    H149549   1.561   2.628   2.508  0.5846 -1.8985 -1.4173
 9378TIP3    H249550   1.689   2.674   2.575 -0.5182 -2.3904  1.0926
 9379TIP3   OH249551   1.696   2.999  12.815  0.0618 -0.3104 -0.6514
 9379TIP3    H149552   1.720   3.035  12.729  2.2028 -1.4447 -0.5577
 9379TIP3    H249553   1.755   3.042  12.876 -1.1289  0.1198  0.2240
 9380TIP3   OH249554   1.926   3.642  16.358 -0.0474  0.2805 -0.4291
 9380TIP3    H149555   1.894   3.577  16.421  1.7745  0.3201  0.5685
 9380TIP3    H249556   2.021   3.630  16.357  0.0648  1.1597 -2.2174
 9381TIP3   OH249557   1.232   4.296   3.811  0.7950  0.1722 -0.3044
 9381TIP3    H149558   1.175   4.365   3.844  3.9325  2.1231  1.2450
 9381TIP3    H249559   1.240   4.235   3.884  1.0396  0.0978 -0.3952
 9382TIP3   OH249560   5.394   3.345  11.938  0.1075 -0.2690 -0.0226
 9382TIP3    H149561   5.483   3.334  11.905 -0.1177  1.7778 -1.4130
 9382TIP3    H249562   5.400   3.414  12.003 -0.4604 -0.0914 -0.1531
 9383TIP3   OH249563   0.512   1.526  12.651 -0.1480 -0.0189 -0.0779
 9383TIP3    H149564   0.561   1.509  12.571 -0.7244  0.1085 -0.4600
 9383TIP3    H249565   0.474   1.441  12.674  0.7681 -0.2614  0.5730
 9384TIP3   OH249566   6.172   0.340   5.484  0.1392 -0.6253 -0.5258
 9384TIP3    H149567   6.197   0.353   5.575  0.3133  1.3677 -0.8400
 9384TIP3    H249568   6.079   0.361   5.480  0.0937 -0.8647 -0.7877
 9385TIP3   OH249569   2.070   6.408  12.555  0.6781  0.2266  0.1848
 9385TIP3    H149570   2.007   6.465  12.510 -0.6425  0.5903  2.4291
 9385TIP3    H249571   2.078   6.332  12.498 -0.2664  1.0733 -1.1058
 9386TIP3   OH249572   3.039   4.614   2.318 -0.1901 -0.0181 -0.1477
 9386TIP3    H149573   3.128   4.617   2.286 -0.6534  0.0132 -1.4382
 9386TIP3    H249574   3.003   4.533   2.283 -2.1694  2.2466 -3.7138
 9387TIP3   OH249575   6.744   0.127   2.161 -0.4500 -0.2371 -0.5077
 9387TIP3    H149576   6.790   0.211   2.164 -0.0959 -0.4324 -0.4788
 9387TIP3    H249577   6.752   0.098   2.071 -0.9264 -0.0446 -0.6140
 9388TIP3   OH249578   0.016   2.391   6.126  0.0412 -0.2264 -0.5122
 9388TIP3    H149579  -0.021   2.303   6.136 -1.2794  0.3322 -0.4266
 9388TIP3    H249580   0.092   2.391   6.184 -1.1523 -0.6396  1.0741
 9389TIP3   OH249581   3.971   6.285  10.939 -0.0352 -0.1709  0.1690
 9389TIP3    H149582   3.966   6.364  10.993 -1.0185 -0.4344  0.4663
 9389TIP3    H249583   3.947   6.214  10.998  0.4662 -0.6487 -0.2018
 9390TIP3   OH249584   6.557   3.022   4.954  0.1743 -0.5286  0.4060
 9390TIP3    H149585   6.537   2.958   5.023  1.4797 -0.0966  1.2111
 9390TIP3    H249586   6.653   3.022   4.951  0.1314  0.1155 -0.8018
 9391TIP3   OH249587   1.089   4.849  11.559  0.0686  0.1461  0.7620
 9391TIP3    H149588   1.027   4.796  11.510 -1.8064  0.1858  3.0518
 9391TIP3    H249589   1.111   4.921  11.499 -1.1630 -0.5225 -0.5130
 9392TIP3   OH249590   4.856   1.075   1.343  0.4965 -0.0001  0.1920
 9392TIP3    H149591   4.844   1.101   1.434  2.3755 -0.0567  0.4731
 9392TIP3    H249592   4.853   0.980   1.344  3.1183 -0.1105  0.6171
 9393TIP3   OH249593   3.642   1.184  15.841  0.8944 -0.0050 -0.6158
 9393TIP3    H149594   3.658   1.265  15.792  1.3842  0.2500 -0.0248
 9393TIP3    H249595   3.558   1.199  15.885 -1.5970 -1.6900 -4.4484
 9394TIP3   OH249596   2.956   4.023   4.945 -0.6391 -0.3275 -0.0842
 9394TIP3    H149597   2.919   4.108   4.920 -0.6701 -0.2059  0.3645
 9394TIP3    H249598   3.049   4.042   4.961 -0.0738 -0.9061 -2.5521
 9395TIP3   OH249599   5.018   3.782   1.135 -0.2793  0.2051 -0.0345
 9395TIP3    H149600   5.012   3.709   1.074 -0.5787  0.8131 -0.7454
 9395TIP3    H249601   4.957   3.760   1.205 -0.1430 -0.3646 -0.0974
 9396TIP3   OH249602   0.782   2.907   1.383  0.4464 -0.7663  0.2811
 9396TIP3    H149603   0.824   2.891   1.298  0.8789 -0.0579  0.3607
 9396TIP3    H249604   0.709   2.965   1.364  2.3900  1.9438  0.8057
 9397TIP3   OH249605   0.674   2.468   3.551 -0.2442  0.2972 -0.7878
 9397TIP3    H149606   0.590   2.433   3.521 -0.1656 -0.2425 -0.3941
 9397TIP3    H249607   0.717   2.393   3.592  0.7205  0.4108 -1.5943
 9398TIP3   OH249608   1.990   4.347  11.797 -0.6964  0.4499  0.0900
 9398TIP3    H149609   1.954   4.303  11.720  0.1843  1.5009 -0.9494
 9398TIP3    H249610   2.074   4.305  11.811 -2.1268 -1.7871  2.3222
 9399TIP3   OH249611   6.540   3.221   3.545 -0.7678 -0.6729  0.0290
 9399TIP3    H149612   6.486   3.175   3.608 -1.9286  0.8821  0.2068
 9399TIP3    H249613   6.543   3.311   3.577  0.4241 -0.3338 -0.9721
 9400TIP3   OH249614   4.581   3.127   4.609 -0.0537 -0.3249  0.1725
 9400TIP3    H149615   4.646   3.074   4.655  1.0312  1.0416  0.2577
 9400TIP3    H249616   4.599   3.217   4.637 -0.5920  0.3094 -1.4522
 9401TIP3   OH249617   2.694   0.957  10.631 -0.3637  0.2438 -0.0139
 9401TIP3    H149618   2.645   0.936  10.711  2.2829 -0.5376  1.4746
 9401TIP3    H249619   2.691   0.876  10.579 -0.9108  0.3049 -0.0832
 9402TIP3   OH249620   3.559   6.419   0.332  0.3015 -0.1862 -0.0437
 9402TIP3    H149621   3.629   6.390   0.389 -1.0859 -1.1998  1.1925
 9402TIP3    H249622   3.491   6.450   0.391 -0.2248  0.9342 -1.2191
 9403TIP3   OH249623   2.716   0.977   0.038 -0.0258  0.0602  0.2483
 9403TIP3    H149624   2.742   0.923  -0.037 -0.4157 -2.0490  1.5893
 9403TIP3    H249625   2.643   0.929   0.078  0.3334  1.0150  2.1134
 9404TIP3   OH249626   0.117   5.671   2.349 -0.1820  0.2659  0.3263
 9404TIP3    H149627   0.157   5.593   2.388  1.4480  1.1780  0.5332
 9404TIP3    H249628   0.109   5.732   2.422 -1.0320  0.4757  0.0660
 9405TIP3   OH249629   6.308   5.013   1.193 -0.0582 -0.3287 -0.3961
 9405TIP3    H149630   6.296   5.031   1.100 -4.0890 -3.1293 -0.5236
 9405TIP3    H249631   6.270   5.088   1.238 -0.2354 -0.0592 -0.9986
 9406TIP3   OH249632   5.240   1.232   4.789  0.0742  0.0662  0.4720
 9406TIP3    H149633   5.304   1.300   4.814 -0.7259  1.1493 -0.3412
 9406TIP3    H249634   5.288   1.177   4.727  0.4823  0.3716  0.5097
 9407TIP3   OH249635   6.305   2.670  10.851 -0.3669  0.5089 -0.5058
 9407TIP3    H149636   6.225   2.683  10.799 -1.0762  1.3841  0.7818
 9407TIP3    H249637   6.315   2.752  10.900  1.0183  0.1863 -0.2404
 9408TIP3   OH249638   4.705   0.657  14.847  0.2229  0.2479  0.2456
 9408TIP3    H149639   4.736   0.594  14.782  0.3913  0.8907 -0.3030
 9408TIP3    H249640   4.681   0.604  14.923 -2.7288 -0.8169 -1.3391
 9409TIP3   OH249641   4.362   5.737   0.744  0.4608  0.3221 -0.2040
 9409TIP3    H149642   4.370   5.654   0.792 -1.4760  0.5178  0.5052
 9409TIP3    H249643   4.398   5.718   0.658  0.9149 -1.0005  0.2594
 9410TIP3   OH249644   4.628   6.092   1.634  0.1531  0.1778 -0.5179
 9410TIP3    H149645   4.605   6.051   1.718 -3.9791 -0.3756 -1.7768
 9410TIP3    H249646   4.609   6.185   1.647  0.5906  0.2598 -0.4785
 9411TIP3   OH249647   1.246   4.130   4.660 -0.3618 -0.6692  0.3694
 9411TIP3    H149648   1.182   4.180   4.711  2.0755  0.5413  2.3553
 9411TIP3    H249649   1.258   4.048   4.708  0.5807 -0.3119  0.7534
 9412TIP3   OH249650   1.739   3.568  12.012 -0.0333  0.2464  0.6566
 9412TIP3    H149651   1.821   3.521  12.021 -0.2537 -0.1470  0.6145
 9412TIP3    H249652   1.672   3.500  12.008 -0.2367  0.5005 -0.6947
 9413TIP3   OH249653   5.198   3.863   2.988 -0.2713  0.1919  0.0922
 9413TIP3    H149654   5.219   3.949   3.024  0.8152  0.7540 -1.8329
 9413TIP3    H249655   5.280   3.831   2.952 -1.1515 -0.7318 -1.1375
 9414TIP3   OH249656   0.954   6.413  16.497  0.2222  0.1277 -0.2957
 9414TIP3    H149657   0.987   6.325  16.479 -1.2911 -0.4898 -0.0501
 9414TIP3    H249658   0.909   6.406  16.580 -0.1130  1.0965 -0.3841
 9415TIP3   OH249659   4.241   2.208   4.023  0.1366 -0.3416 -0.2722
 9415TIP3    H149660   4.252   2.205   4.118  1.3290  0.1116 -0.3781
 9415TIP3    H249661   4.262   2.299   3.999  0.0322 -0.5004 -0.9848
 9416TIP3   OH249662   0.743   6.203   0.661  0.0659  0.1338 -0.0303
 9416TIP3    H149663   0.752   6.277   0.600  0.6030 -0.4611 -0.6881
 9416TIP3    H249664   0.826   6.202   0.709 -0.6926  1.1168  1.3020
 9417TIP3   OH249665   4.050   3.464  16.324  0.4057 -0.0159 -0.4616
 9417TIP3    H149666   4.038   3.555  16.350  0.1828 -0.2258  0.1695
 9417TIP3    H249667   4.051   3.415  16.406 -0.6874 -0.7267 -0.8658
 9418TIP3   OH249668   4.065   3.754   2.822 -0.2955  0.0938 -0.2530
 9418TIP3    H149669   4.140   3.721   2.772 -1.1160  1.2433 -2.3238
 9418TIP3    H249670   4.101   3.774   2.909  1.8811  0.8635 -1.2830
 9419TIP3   OH249671   4.257   1.012  15.572  0.6454 -0.6674 -0.3702
 9419TIP3    H149672   4.232   1.049  15.656  0.9727  1.3706 -1.1422
 9419TIP3    H249673   4.203   0.934  15.563  0.4935 -0.8122  1.6404
 9420TIP3   OH249674   5.316   2.079  13.244  0.1747 -0.2213 -0.8666
 9420TIP3    H149675   5.355   2.155  13.286 -0.6468 -0.4132  0.2618
 9420TIP3    H249676   5.352   2.079  13.155  1.7916  0.2847 -0.2149
 9421TIP3   OH249677   3.552   3.080   5.917 -0.1833  0.2667  0.5555
 9421TIP3    H149678   3.548   3.015   5.847  0.2043 -0.4504  1.1907
 9421TIP3    H249679   3.461   3.088   5.947  0.0076 -1.2289  1.5917
 9422TIP3   OH249680   6.195   2.753  14.756 -0.3022  0.0794 -0.0666
 9422TIP3    H149681   6.162   2.822  14.699 -2.9186 -1.2423 -0.1862
 9422TIP3    H249682   6.160   2.774  14.843 -0.9883 -1.0130 -0.0763
 9423TIP3   OH249683   2.554   3.959   2.669 -0.9462 -0.8015 -0.4791
 9423TIP3    H149684   2.484   3.928   2.611 -1.2919 -0.9103 -0.0032
 9423TIP3    H249685   2.509   4.010   2.736 -0.5115 -0.4093 -0.4884
 9424TIP3   OH249686   2.161   0.822   4.866  0.2463  0.0175  0.2559
 9424TIP3    H149687   2.227   0.888   4.845 -0.4154  1.1630  1.6577
 9424TIP3    H249688   2.121   0.800   4.782  0.9030  0.9357 -0.3041
 9425TIP3   OH249689   0.809   2.187   4.307  0.0710 -0.2704  0.3828
 9425TIP3    H149690   0.807   2.262   4.366  1.0548  1.6439 -1.9296
 9425TIP3    H249691   0.891   2.142   4.327  0.2911  0.2422  0.6235
 9426TIP3   OH249692   3.751   5.934  13.068  0.2061  0.1488  0.6538
 9426TIP3    H149693   3.697   5.996  13.117  1.2675 -0.4382  2.6252
 9426TIP3    H249694   3.728   5.949  12.976 -2.9094  0.2680  1.3970
 9427TIP3   OH249695   2.714   2.732  15.165 -0.3113 -0.4723  0.1518
 9427TIP3    H149696   2.762   2.809  15.194 -0.6307 -0.6242  1.0868
 9427TIP3    H249697   2.671   2.760  15.084  0.5879 -0.0561 -0.1940
 9428TIP3   OH249698   5.774   2.683   4.883  0.0562 -0.5008  0.1548
 9428TIP3    H149699   5.688   2.720   4.865  1.5909  2.8003 -0.8788
 9428TIP3    H249700   5.789   2.704   4.976 -0.1197 -0.7674  0.2427
 9429TIP3   OH249701   0.050   4.230  12.394 -0.2764  0.3134  0.7932
 9429TIP3    H149702   0.143   4.210  12.383 -0.6412 -0.2398 -1.5686
 9429TIP3    H249703   0.042   4.257  12.485  2.6046  2.5748  0.4705
 9430TIP3   OH249704   6.486   4.904  15.934  0.1763  0.4451  0.2956
 9430TIP3    H149705   6.569   4.861  15.916  0.5315  1.1797  0.1919
 9430TIP3    H249706   6.424   4.862  15.874  0.2667 -0.7288  0.9963
 9431TIP3   OH249707   5.158   6.372  14.031  0.3404 -0.1187  0.3549
 9431TIP3    H149708   5.227   6.315  14.064  0.1978 -0.2457  0.4321
 9431TIP3    H249709   5.185   6.394  13.942  1.3412  1.2159  0.9770
 9432TIP3   OH249710   2.533   1.171   1.839 -0.4695  0.1520 -0.1851
 9432TIP3    H149711   2.615   1.126   1.822 -0.5553 -0.2188  0.4010
 9432TIP3    H249712   2.477   1.106   1.880 -1.9956 -0.4014 -2.9801
 9433TIP3   OH249713   4.636   3.369  16.561 -0.3374 -0.2402 -0.3472
 9433TIP3    H149714   4.655   3.444  16.505  0.6552 -0.5988 -0.4895
 9433TIP3    H249715   4.720   3.324  16.572 -0.2697  0.4276  2.3376
 9434TIP3   OH249716   1.132   4.525  15.327  0.3574 -0.5171  0.3737
 9434TIP3    H149717   1.060   4.500  15.385  0.6788  1.4135  1.6692
 9434TIP3    H249718   1.095   4.593  15.271  0.9742  0.0226  0.6111
 9435TIP3   OH249719   1.607   3.727   1.674  0.2828  0.0016 -1.0057
 9435TIP3    H149720   1.654   3.794   1.723  0.1775  0.0736 -1.0015
 9435TIP3    H249721   1.606   3.759   1.584 -1.2832  0.8639 -0.6954
 9436TIP3   OH249722   0.961   1.070  15.355  0.2260 -0.5286 -0.5161
 9436TIP3    H149723   1.051   1.091  15.327  0.0230 -1.8581 -2.2344
 9436TIP3    H249724   0.958   1.098  15.447  1.2104  3.0887 -1.4725
 9437TIP3   OH249725   4.105   5.410   1.136  0.4461  0.2291 -0.0999
 9437TIP3    H149726   4.091   5.445   1.048  1.6342 -0.9314 -0.7591
 9437TIP3    H249727   4.112   5.488   1.192 -0.0068  0.9717 -1.0739
 9438TIP3   OH249728   4.275   6.249   1.844  0.1644  0.0234  0.3791
 9438TIP3    H149729   4.187   6.252   1.882 -0.5149  1.4946 -1.2770
 9438TIP3    H249730   4.286   6.158   1.817 -0.5278 -0.3523  1.3110
 9439TIP3   OH249731   6.285   1.994  14.177  0.3004  0.2032 -0.0255
 9439TIP3    H149732   6.292   2.074  14.123  0.0148 -1.1156 -2.0612
 9439TIP3    H249733   6.261   1.926  14.115 -1.1799 -1.1545  1.9966
 9440TIP3   OH249734   1.930   4.517  17.150 -0.1369  0.3148 -0.4085
 9440TIP3    H149735   1.988   4.578  17.197  0.5568 -0.2626 -0.5115
 9440TIP3    H249736   1.881   4.472  17.220  1.3294 -0.9787 -0.1927
 9441TIP3   OH249737   3.707   0.047  12.343 -0.2354 -0.8002  0.3359
 9441TIP3    H149738   3.616   0.024  12.364 -0.2941  0.2849  1.3250
 9441TIP3    H249739   3.707   0.059  12.248 -2.3140  4.0961  0.8216
 9442TIP3   OH249740   0.766   1.423   0.147 -0.1200 -0.1520  0.4112
 9442TIP3    H149741   0.815   1.382   0.076 -0.4524  0.3319 -0.1115
 9442TIP3    H249742   0.689   1.460   0.104 -1.1274 -1.2090  1.2675
 9443TIP3   OH249743   2.524   1.390   4.144 -0.0699 -0.0535  0.6921
 9443TIP3    H149744   2.594   1.350   4.195  1.6844  2.3757  0.3083
 9443TIP3    H249745   2.479   1.448   4.205  1.1291  1.7666 -0.0804
 9444TIP3   OH249746   5.908   3.256  14.767  0.4609  0.1022 -0.6732
 9444TIP3    H149747   5.874   3.178  14.811  1.5852  0.6695  1.2664
 9444TIP3    H249748   5.851   3.327  14.797  0.2677  0.2388 -1.3679
 9445TIP3   OH249749   4.975   2.613   6.660  0.1915 -0.1009 -0.0596
 9445TIP3    H149750   4.909   2.551   6.628 -0.2011  0.1770  0.2080
 9445TIP3    H249751   4.982   2.594   6.753  0.0625  0.2693  0.0245
 9446TIP3   OH249752   0.144   6.766  13.584 -0.4491  0.3367  0.0279
 9446TIP3    H149753   0.152   6.861  13.572 -0.5174  0.1510 -1.6003
 9446TIP3    H249754   0.072   6.741  13.526  0.1356 -0.8390 -0.1983
 9447TIP3   OH249755   2.155   2.857  13.869 -0.1147  0.2485 -0.4034
 9447TIP3    H149756   2.174   2.773  13.910  3.7737  0.7004 -1.0538
 9447TIP3    H249757   2.068   2.880  13.900 -0.0264 -2.5741  2.1667
 9448TIP3   OH249758   3.033   2.373   2.113 -0.0396 -0.2030 -0.0742
 9448TIP3    H149759   2.985   2.455   2.108 -1.3732 -0.8773  1.2865
 9448TIP3    H249760   2.969   2.305   2.092  1.3855 -0.8303 -2.5779
 9449TIP3   OH249761   3.111   4.856  16.675  0.1259 -0.1105  0.6934
 9449TIP3    H149762   3.111   4.875  16.582 -0.8642 -0.5491  0.5993
 9449TIP3    H249763   3.084   4.937  16.717 -3.3827 -1.0237  0.3450
 9450TIP3   OH249764   6.608   0.571  12.765 -0.5635 -0.5059  0.0583
 9450TIP3    H149765   6.575   0.511  12.832 -0.1657  1.1652  1.7548
 9450TIP3    H249766   6.540   0.637  12.756 -0.1684 -0.1690 -0.4811
 9451TIP3   OH249767   3.796   1.807  12.509 -0.0034  0.0385  0.0276
 9451TIP3    H149768   3.782   1.899  12.487  1.5109  0.0200 -1.1300
 9451TIP3    H249769   3.730   1.760  12.459 -2.8101  0.6831  2.9971
 9452TIP3   OH249770   2.450   2.342  16.492  0.0920 -0.5434  0.0582
 9452TIP3    H149771   2.522   2.322  16.433  0.7723 -0.1134  0.7337
 9452TIP3    H249772   2.456   2.436  16.507 -1.6347 -0.2017 -1.1936
 9453TIP3   OH249773   4.676   2.061   3.182  0.1140  0.5934  0.2437
 9453TIP3    H149774   4.605   1.997   3.193 -0.1006  0.4734 -1.6904
 9453TIP3    H249775   4.647   2.139   3.229 -1.1515  0.4280 -0.2678
 9454TIP3   OH249776   1.603   5.986  14.824  0.0229 -0.3053 -0.5777
 9454TIP3    H149777   1.603   6.009  14.917  0.1981  0.0864 -0.6760
 9454TIP3    H249778   1.585   6.068  14.779 -1.5444 -0.7617 -0.8306
 9455TIP3   OH249779   0.514   4.407   3.033 -0.4157 -0.1952 -0.0631
 9455TIP3    H149780   0.565   4.465   3.090 -0.8735  0.2520 -0.0973
 9455TIP3    H249781   0.528   4.442   2.945  0.0382 -0.6932 -0.1882
 9456TIP3   OH249782   4.253   2.931  15.552  0.1089  0.1224  0.1450
 9456TIP3    H149783   4.305   3.010  15.568  0.5956 -0.4595  1.4827
 9456TIP3    H249784   4.273   2.874  15.626 -0.4815 -1.1347 -0.6572
 9457TIP3   OH249785   3.069   0.936   5.793  0.7473 -0.1691  0.0058
 9457TIP3    H149786   3.110   0.938   5.880  1.4838 -1.2614 -0.3119
 9457TIP3    H249787   3.102   1.014   5.749 -1.5119  1.7240  1.5460
 9458TIP3   OH249788   1.155   1.360   4.029  0.0169  0.4940  0.5742
 9458TIP3    H149789   1.209   1.284   4.009 -1.4014 -0.3082 -0.2268
 9458TIP3    H249790   1.179   1.425   3.963 -0.7797 -0.2561 -0.4667
 9459TIP3   OH249791   6.597   5.084   1.938 -0.7715  0.0712  0.0331
 9459TIP3    H149792   6.502   5.070   1.931 -0.7269 -0.8628  1.1884
 9459TIP3    H249793   6.635   5.006   1.898 -0.4944  0.0565  0.3266
 9460TIP3   OH249794   3.099   6.587   6.220 -0.1987  0.6159  0.2180
 9460TIP3    H149795   3.113   6.494   6.233 -0.8394  0.4936  0.0482
 9460TIP3    H249796   3.172   6.629   6.265  0.5433  0.0070 -0.4222
 9461TIP3   OH249797   4.752   1.260  12.138 -0.2957  0.0610  0.1349
 9461TIP3    H149798   4.830   1.215  12.105 -0.0455  0.0694  0.7058
 9461TIP3    H249799   4.679   1.220  12.090  0.1711  0.8968 -1.2724
 9462TIP3   OH249800   5.883   0.394  10.659 -0.5805 -1.0538 -0.1501
 9462TIP3    H149801   5.815   0.374  10.595  0.5096 -0.5442 -1.4742
 9462TIP3    H249802   5.889   0.315  10.713 -1.5662 -1.4451 -0.6028
 9463TIP3   OH249803   5.257   6.480  13.247  0.0919 -0.6452 -0.3074
 9463TIP3    H149804   5.344   6.515  13.267  0.5695 -1.1747 -1.4190
 9463TIP3    H249805   5.238   6.420  13.320  0.3675 -0.0388  0.2744
 9464TIP3   OH249806   1.083   3.610  15.563 -0.4683  0.0338  0.1509
 9464TIP3    H149807   1.050   3.695  15.535 -1.0095 -0.4361 -0.6924
 9464TIP3    H249808   1.036   3.547  15.508  0.8897 -0.7335 -0.1625
 9465TIP3   OH249809   3.511   3.209   0.484  0.1078  0.2594  0.0961
 9465TIP3    H149810   3.498   3.169   0.570  1.7745  1.5920  1.0084
 9465TIP3    H249811   3.450   3.283   0.483 -0.1291  0.0634  0.0044
 9466TIP3   OH249812   3.001   0.862  11.026 -0.8306  0.4124  0.1017
 9466TIP3    H149813   2.933   0.879  10.962  0.4236  2.9636 -0.6496
 9466TIP3    H249814   3.083   0.878  10.978  0.2253 -0.8463  1.4542
 9467TIP3   OH249815   6.228   1.585  11.911  0.1461 -0.6380 -0.1721
 9467TIP3    H149816   6.317   1.616  11.928  0.5437 -2.3452  0.9206
 9467TIP3    H249817   6.239   1.494  11.884 -1.2664 -0.8565 -0.0355
 9468TIP3   OH249818   1.881   4.589  13.899  0.3862  0.0820 -0.2751
 9468TIP3    H149819   1.826   4.512  13.912  1.5572 -0.9688 -1.3628
 9468TIP3    H249820   1.955   4.557  13.846  1.2001  1.8118 -0.2217
 9469TIP3   OH249821   5.332   5.836  16.008 -0.3849  0.5639  0.0642
 9469TIP3    H149822   5.370   5.794  15.930  0.2067 -0.4183  0.8769
 9469TIP3    H249823   5.349   5.775  16.079 -2.3300  0.7312  0.7008
 9470TIP3   OH249824   1.137   5.021   0.700  0.1861  0.1726 -0.7735
 9470TIP3    H149825   1.131   5.108   0.661  4.8954  2.1902  2.5605
 9470TIP3    H249826   1.223   4.988   0.672 -0.4399 -2.3292  0.1030
 9471TIP3   OH249827   1.919   0.809   3.053 -0.0965 -0.2185 -0.1519
 9471TIP3    H149828   1.970   0.732   3.028 -0.3303 -0.4241  0.0045
 9471TIP3    H249829   1.936   0.872   2.983  3.3599  1.0956  1.7204
 9472TIP3   OH249830   4.251   0.000   6.501  0.2836  0.0113  0.1350
 9472TIP3    H149831   4.183   0.036   6.445  0.4337 -0.5058 -0.3800
 9472TIP3    H249832   4.204  -0.059   6.561  0.4013 -1.1080 -0.8638
 9473TIP3   OH249833   1.054   0.528   4.551  0.3667 -0.4838  0.3551
 9473TIP3    H149834   1.115   0.524   4.625 -0.0061 -1.5056  0.6132
 9473TIP3    H249835   1.095   0.589   4.489 -0.7224  2.7373  2.6791
 9474TIP3   OH249836   4.984   3.039   6.008 -0.0034  0.1209 -0.1802
 9474TIP3    H149837   5.033   2.992   6.075 -0.8132 -0.5959 -0.0757
 9474TIP3    H249838   4.900   2.993   6.003 -0.8334  1.5994 -0.0439
 9475TIP3   OH249839   1.599   3.730   4.192  0.3068 -0.2971 -0.0824
 9475TIP3    H149840   1.537   3.690   4.131 -1.3138  1.8179  0.1272
 9475TIP3    H249841   1.671   3.759   4.137  0.0728 -0.7369 -0.6350
 9476TIP3   OH249842   1.443   3.380  14.396  0.3167 -0.5367 -1.1563
 9476TIP3    H149843   1.360   3.341  14.371 -0.0197 -0.5370 -0.0688
 9476TIP3    H249844   1.472   3.429  14.319 -0.2276 -1.3060 -1.8516
 9477TIP3   OH249845   1.171   0.996  15.572  0.6349  0.3313 -0.7630
 9477TIP3    H149846   1.237   1.031  15.632  0.5051 -1.4631  0.4376
 9477TIP3    H249847   1.090   1.041  15.596  1.0987  1.4978 -1.3153
 9478TIP3   OH249848   0.953   0.953  15.952 -0.4626  0.2214 -0.3573
 9478TIP3    H149849   0.862   0.981  15.941  0.0828  1.5095 -1.6413
 9478TIP3    H249850   0.985   1.006  16.025 -1.2709 -1.5672  1.3411
 9479TIP3   OH249851   4.181   4.067  13.642  0.3916  0.3915  0.7311
 9479TIP3    H149852   4.101   4.115  13.663  2.0606  2.2316  3.2449
 9479TIP3    H249853   4.219   4.114  13.568  0.2042  0.8301  0.9095
 9480TIP3   OH249854   4.977   0.251  16.962  0.6408  0.1330  0.3557
 9480TIP3    H149855   4.884   0.274  16.968  0.5094 -0.0807 -0.7415
 9480TIP3    H249856   4.983   0.166  17.007  0.7867  1.3228  2.6953
 9481TIP3   OH249857   5.747   4.193  15.216  0.5063 -0.2833  0.2481
 9481TIP3    H149858   5.718   4.249  15.144 -0.3141 -1.9991 -0.7835
 9481TIP3    H249859   5.686   4.214  15.288 -0.2123 -0.3195 -0.3424
 9482TIP3   OH249860   4.332   3.568   3.004 -0.3983 -0.1497 -0.3064
 9482TIP3    H149861   4.302   3.485   3.040  1.4862 -0.7076  0.0070
 9482TIP3    H249862   4.312   3.563   2.911  0.4031 -1.2797 -0.4236
 9483TIP3   OH249863   6.554   5.230   2.389 -0.2058 -0.2267 -0.2498
 9483TIP3    H149864   6.586   5.163   2.329 -0.7370 -0.5750 -0.1460
 9483TIP3    H249865   6.628   5.246   2.448  0.7958  1.1203 -1.8475
 9484TIP3   OH249866   4.966   6.145  16.084 -0.2267  0.3448  0.5520
 9484TIP3    H149867   5.014   6.077  16.130  0.5328  0.4410 -0.0806
 9484TIP3    H249868   4.989   6.132  15.992 -1.5610  0.2827  0.2215
 9485TIP3   OH249869   3.833   0.548  12.927  0.2070 -0.1899  0.2729
 9485TIP3    H149870   3.826   0.631  12.975 -1.0682 -0.2783  0.2425
 9485TIP3    H249871   3.810   0.481  12.991 -0.0126 -0.4238 -0.0508
 9486TIP3   OH249872   2.799   2.518   3.903  0.2586  0.1605 -0.1830
 9486TIP3    H149873   2.793   2.430   3.939  1.2565  0.3079  0.3774
 9486TIP3    H249874   2.886   2.521   3.861  0.0805  0.7554 -0.5195
 9487TIP3   OH249875   0.392   5.619   4.517  0.2043  0.9585 -0.1586
 9487TIP3    H149876   0.478   5.596   4.480  0.5522  1.0085  0.6173
 9487TIP3    H249877   0.410   5.641   4.608 -0.6372  0.9758  0.0076
 9488TIP3   OH249878   6.638   0.903   5.019  0.3376  0.2457  0.0441
 9488TIP3    H149879   6.625   0.812   5.046  0.1628 -0.0880 -1.1258
 9488TIP3    H249880   6.553   0.944   5.032  0.2259  0.0595 -0.0881
 9489TIP3   OH249881   5.105   5.428   3.432  0.2293 -0.1675 -0.4575
 9489TIP3    H149882   5.065   5.478   3.361 -0.3331 -1.0719 -0.7882
 9489TIP3    H249883   5.070   5.339   3.421 -0.6431 -0.0788  1.5737
 9490TIP3   OH249884   2.125   5.172  12.930 -0.0454  0.3764  0.9754
 9490TIP3    H149885   2.198   5.207  12.880  0.3289 -2.4947 -0.5936
 9490TIP3    H249886   2.073   5.123  12.866 -1.3566 -0.6516  2.7714
 9491TIP3   OH249887   1.596   5.020  12.241  0.3122  0.0933  0.0107
 9491TIP3    H149888   1.560   5.041  12.155 -0.5413 -1.2143  0.0354
 9491TIP3    H249889   1.550   4.940  12.268  0.2491  0.7244  1.8750
 9492TIP3   OH249890   6.296   5.405  11.189 -0.2838  0.1923 -0.0594
 9492TIP3    H149891   6.209   5.376  11.217  0.1820 -1.2906 -0.1587
 9492TIP3    H249892   6.278   5.470  11.120 -1.3449  1.2144  1.1366
 9493TIP3   OH249893   3.867   0.981  10.568 -0.1509  0.3181  0.6957
 9493TIP3    H149894   3.933   1.005  10.633 -0.1128  2.2514 -0.0463
 9493TIP3    H249895   3.785   0.979  10.618 -0.0524  1.3511  0.9134
 9494TIP3   OH249896   3.822   4.887  14.135  0.9893  0.5743 -0.3652
 9494TIP3    H149897   3.838   4.849  14.049 -1.0087 -1.3617  0.0650
 9494TIP3    H249898   3.773   4.967  14.118 -1.2036 -0.8472 -0.9830
 9495TIP3   OH249899   3.450   3.814   1.201  0.7482 -0.3339 -0.7030
 9495TIP3    H149900   3.363   3.837   1.166  0.2204 -0.7525  0.3248
 9495TIP3    H249901   3.510   3.838   1.130  0.0003  1.9283 -0.6269
 9496TIP3   OH249902   3.137   2.253  11.521  0.5530 -0.2152 -0.4171
 9496TIP3    H149903   3.052   2.241  11.479 -0.4763 -0.4923  1.6881
 9496TIP3    H249904   3.168   2.337  11.489 -2.0147  1.4385  1.2426
 9497TIP3   OH249905   5.972   1.539   2.438  0.6207  0.0992  0.6871
 9497TIP3    H149906   6.060   1.524   2.406  0.2029 -0.1130 -0.3622
 9497TIP3    H249907   5.936   1.451   2.452  0.8187  0.1813  1.8235
 9498TIP3   OH249908   1.161   2.635   3.222  0.1364 -0.8317 -0.0553
 9498TIP3    H149909   1.172   2.542   3.202 -0.2696 -1.0173  0.5664
 9498TIP3    H249910   1.193   2.644   3.312  0.3466 -0.3354 -0.1783
 9499TIP3   OH249911   3.351   3.414   0.397  0.1707  0.2709 -0.2168
 9499TIP3    H149912   3.342   3.480   0.328 -2.2637 -1.2458 -1.4552
 9499TIP3    H249913   3.275   3.428   0.454  0.2359 -0.7228  0.1348
 9500TIP3   OH249914   6.285   5.119  12.413  0.2413  0.1067  0.7271
 9500TIP3    H149915   6.262   5.133  12.321  1.8343  0.8124  0.4117
 9500TIP3    H249916   6.240   5.190  12.459  0.3721  0.4439  0.3451
 9501TIP3   OH249917   3.763   4.267   6.358  0.1124  0.2169  0.1970
 9501TIP3    H149918   3.839   4.295   6.307 -0.8873  2.2976 -0.1996
 9501TIP3    H249919   3.795   4.192   6.409  3.4301  3.2249  2.7346
 9502TIP3   OH249920   4.297   6.569  12.548  0.7314 -0.2275 -0.0074
 9502TIP3    H149921   4.253   6.526  12.474 -1.0489  1.1188  0.2283
 9502TIP3    H249922   4.226   6.589  12.609  1.7394  1.6616  0.5672
 9503TIP3   OH249923   3.887   5.209  14.552  0.2941 -0.0442 -0.1758
 9503TIP3    H149924   3.931   5.130  14.519  0.1056 -0.8879  1.5398
 9503TIP3    H249925   3.834   5.239  14.478 -3.0746 -4.0726  0.3806
 9504TIP3   OH249926   1.375   4.422   3.617 -0.3288  0.8873  0.1628
 9504TIP3    H149927   1.363   4.381   3.702 -1.4026  1.4866  0.3024
 9504TIP3    H249928   1.468   4.444   3.614  0.5143 -2.4392 -0.3302
 9505TIP3   OH249929   0.100   2.535   1.859  0.0796  0.0984 -0.1198
 9505TIP3    H149930   0.186   2.554   1.896  0.2458 -0.1758 -0.3701
 9505TIP3    H249931   0.105   2.443   1.833 -0.0748  0.2653 -0.7370
 9506TIP3   OH249932   6.158   0.057   3.168  0.1548  0.1379 -0.5249
 9506TIP3    H149933   6.130  -0.003   3.099 -0.1965 -1.6112  1.0908
 9506TIP3    H249934   6.240   0.018   3.201  1.0050  1.6513 -0.8030
 9507TIP3   OH249935   5.080   1.399  12.909  0.4084 -0.1916 -0.6431
 9507TIP3    H149936   5.044   1.487  12.921  0.2629 -0.2324 -0.7754
 9507TIP3    H249937   5.037   1.366  12.831 -0.6275 -0.9443  0.2358
 9508TIP3   OH249938   2.098   0.267   0.139 -0.0864 -0.4360 -0.4944
 9508TIP3    H149939   2.112   0.330   0.068  0.3900  0.4072  0.3395
 9508TIP3    H249940   2.150   0.301   0.212  0.2093 -1.8144 -0.0471
 9509TIP3   OH249941   4.536   2.010  12.689  0.1126  0.7154  0.0925
 9509TIP3    H149942   4.465   1.947  12.678 -0.4488  1.4613 -0.5985
 9509TIP3    H249943   4.547   2.050  12.603  1.0037  0.9911  0.3270
 9510TIP3   OH249944   5.334   6.365   1.700  0.6569  0.3132  0.1549
 9510TIP3    H149945   5.350   6.456   1.673 -0.3246  0.4149 -0.1092
 9510TIP3    H249946   5.421   6.326   1.705  0.9056  0.3572 -2.9158
 9511TIP3   OH249947   5.150   1.455   1.514  0.1106  0.1070 -0.4526
 9511TIP3    H149948   5.105   1.455   1.599  0.7859 -0.1743 -0.0943
 9511TIP3    H249949   5.098   1.515   1.460  1.6991  3.1814  1.2608
 9512TIP3   OH249950   1.926   0.916  12.237  0.3346  0.5053 -0.1813
 9512TIP3    H149951   2.006   0.966  12.225  0.3713  0.9779  1.7574
 9512TIP3    H249952   1.945   0.830  12.201  2.1281  0.2543  1.3018
 9513TIP3   OH249953   5.273   3.900   4.715  0.2671  0.5146  0.2902
 9513TIP3    H149954   5.200   3.841   4.701  0.2861  0.1866  1.4964
 9513TIP3    H249955   5.268   3.963   4.643  0.0455 -0.7425 -0.8084
 9514TIP3   OH249956   5.073   2.088  14.033 -0.1542 -0.0388  0.1389
 9514TIP3    H149957   5.009   2.159  14.029  1.4179  1.4591  0.6809
 9514TIP3    H249958   5.148   2.126  14.079  0.1143 -2.5632  1.8982
 9515TIP3   OH249959   1.643   5.077   2.122 -0.5464  0.0165 -0.0319
 9515TIP3    H149960   1.658   5.143   2.190  1.5463  0.6309 -1.0302
 9515TIP3    H249961   1.555   5.044   2.139 -0.4349  0.8513  2.3807
 9516TIP3   OH249962   5.551   2.570  15.234  0.0824 -0.0647  0.4083
 9516TIP3    H149963   5.517   2.517  15.306  0.1302  1.8614  1.9021
 9516TIP3    H249964   5.481   2.570  15.169 -0.5761 -0.5783  1.1035
 9517TIP3   OH249965   4.365   3.551  15.880  0.1530  0.4613  0.8897
 9517TIP3    H149966   4.381   3.535  15.973  1.8775 -0.3642  0.4725
 9517TIP3    H249967   4.453   3.558  15.842 -0.4930 -2.0390 -1.1533
 9518TIP3   OH249968   1.269   2.258   1.563  0.2355 -0.0908  0.4921
 9518TIP3    H149969   1.266   2.328   1.498 -3.2308  1.0310  1.7421
 9518TIP3    H249970   1.212   2.190   1.528  1.5891 -1.2570  0.4884
 9519TIP3   OH249971   4.279   3.137  15.777  0.5905 -0.0315 -0.1395
 9519TIP3    H149972   4.234   3.218  15.800 -0.3785 -0.6526  0.1971
 9519TIP3    H249973   4.260   3.077  15.849  1.1958 -0.5982 -0.4425
 9520TIP3   OH249974   2.797   1.825   0.490 -0.1746 -0.5276  0.5112
 9520TIP3    H149975   2.765   1.903   0.536 -3.7802 -0.5126 -1.8074
 9520TIP3    H249976   2.756   1.752   0.535 -1.0352 -0.7187 -0.5632
 9521TIP3   OH249977   4.705   1.327   3.559  0.4406 -0.1305 -0.4046
 9521TIP3    H149978   4.789   1.282   3.551  0.5780  0.0461 -0.0102
 9521TIP3    H249979   4.644   1.275   3.508  0.4959 -1.0231  0.4343
 9522TIP3   OH249980   3.900   2.106   4.623  0.1725  0.4172  0.0120
 9522TIP3    H149981   3.845   2.038   4.585  0.5832 -0.0528  0.2469
 9522TIP3    H249982   3.943   2.064   4.698 -0.8225  1.4051  1.1629
 9523TIP3   OH249983   0.146   1.982   4.779 -0.2966  0.6976 -0.4412
 9523TIP3    H149984   0.052   1.976   4.765 -0.3829 -1.0418  0.6975
 9523TIP3    H249985   0.184   1.925   4.713 -0.0723  1.0169 -0.5892
 9524TIP3   OH249986   5.740   6.298   1.401  0.9434 -0.0286  0.3742
 9524TIP3    H149987   5.680   6.296   1.327 -0.6049 -1.0152  1.6067
 9524TIP3    H249988   5.824   6.322   1.364 -0.1746  1.1590 -1.4313
 9525TIP3   OH249989   0.211   6.603  14.023  0.2984 -0.5446 -0.2191
 9525TIP3    H149990   0.230   6.605  13.929 -0.0773 -0.8275 -0.3007
 9525TIP3    H249991   0.297   6.594  14.064  0.6798  1.5847 -0.4551
 9526TIP3   OH249992   0.450   2.960  14.258 -0.2388 -0.2944  0.1229
 9526TIP3    H149993   0.411   3.039  14.295  1.2285  0.8084 -0.6381
 9526TIP3    H249994   0.426   2.962  14.166  1.3799  0.2569 -0.2926
 9527TIP3   OH249995   2.988   1.580  13.344  0.7442 -0.1393  0.8240
 9527TIP3    H149996   3.068   1.528  13.356  2.2652  2.4597  2.7526
 9527TIP3    H249997   3.003   1.630  13.264  0.3570 -0.8208  0.3239
 9528TIP3   OH249998   2.287   1.278  12.863 -0.3353  0.4723 -0.5228
 9528TIP3    H149999   2.373   1.242  12.844 -0.3111  0.5897 -0.6324
 9528TIP3    H250000   2.304   1.346  12.929 -0.6241 -1.1947  1.3265
 9529TIP3   OH250001   4.213   4.522  15.236  0.6535 -0.2068  0.2230
 9529TIP3    H150002   4.146   4.542  15.302 -1.3254  0.8312 -2.0661
 9529TIP3    H250003   4.260   4.605  15.224  0.6417 -0.2541 -0.1247
 9530TIP3   OH250004   6.145   1.455   5.350  0.3665 -0.0605  0.0237
 9530TIP3    H150005   6.093   1.524   5.389 -0.5956 -1.2883  0.9377
 9530TIP3    H250006   6.144   1.475   5.256 -0.1164  1.0086  0.2493
 9531TIP3   OH250007   4.421   3.120  15.168  0.1051  0.8743 -0.2070
 9531TIP3    H150008   4.360   3.073  15.111  1.0836 -0.5450 -0.1043
 9531TIP3    H250009   4.417   3.210  15.137 -2.3154  0.8812  0.0264
 9532TIP3   OH250010   4.412   0.874  11.838  0.1842  0.0375  0.1768
 9532TIP3    H150011   4.417   0.830  11.923 -1.3166  0.0907  0.3038
 9532TIP3    H250012   4.320   0.900  11.830  0.3562  0.1951 -1.3891
 9533TIP3   OH250013   3.807   4.330  10.785  0.4936 -0.4718 -0.0861
 9533TIP3    H150014   3.721   4.372  10.795  0.8098 -0.0391  0.8061
 9533TIP3    H250015   3.787   4.237  10.778  0.0359 -0.4968  1.4417
 9534TIP3   OH250016   3.794   2.572  11.637  0.4494 -0.3916  0.3799
 9534TIP3    H150017   3.859   2.641  11.625 -0.4111  0.3781  0.0238
 9534TIP3    H250018   3.839   2.491  11.614  1.5400  0.0285  1.0292
 9535TIP3   OH250019   0.804   1.970   5.465  0.5596  0.4226 -0.3435
 9535TIP3    H150020   0.891   2.002   5.439  0.8918 -0.2233 -0.0449
 9535TIP3    H250021   0.754   1.968   5.384  0.2737  2.5079 -0.2244
 9536TIP3   OH250022   1.859   2.100  12.654  0.2620  0.3628 -0.3577
 9536TIP3    H150023   1.853   2.194  12.670  3.3257  1.0277 -2.5984
 9536TIP3    H250024   1.953   2.081  12.657 -0.1053 -2.1331 -2.4744
 9537TIP3   OH250025   0.709   0.372  16.591  0.7813  0.2330  0.2577
 9537TIP3    H150026   0.788   0.323  16.567  0.6797  0.0481  0.2988
 9537TIP3    H250027   0.672   0.400  16.507  0.0941 -0.9371  0.1620
 9538TIP3   OH250028   4.310   6.667   3.803 -0.4030  0.1109 -0.1312
 9538TIP3    H150029   4.341   6.705   3.885 -0.8577  0.7529 -0.2491
 9538TIP3    H250030   4.254   6.595   3.830 -2.5400  1.8413  0.2035
 9539TIP3   OH250031   3.522   4.288   2.450  0.3143 -0.0921 -0.3506
 9539TIP3    H150032   3.555   4.278   2.540 -0.1094 -0.0502 -0.1890
 9539TIP3    H250033   3.433   4.255   2.454  0.2026  0.1677 -0.6935
 9540TIP3   OH250034   5.845   1.759   2.378  0.4908  0.4791 -0.9134
 9540TIP3    H150035   5.753   1.732   2.371  0.2513  1.6514 -2.5576
 9540TIP3    H250036   5.894   1.678   2.385 -0.6662 -0.1615 -0.0479
 9541TIP3   OH250037   4.902   0.760   0.202 -0.2965 -0.0986  0.3664
 9541TIP3    H150038   4.882   0.667   0.188 -0.3746 -0.1387  0.7677
 9541TIP3    H250039   4.998   0.764   0.196 -0.2310 -0.3477  1.2496
 9542TIP3   OH250040   1.669   6.726   5.146 -0.0081 -0.1203 -0.9023
 9542TIP3    H150041   1.759   6.707   5.175  0.3744  0.5639 -1.6078
 9542TIP3    H250042   1.653   6.815   5.177 -2.3799 -2.0311  3.8022
 9543TIP3   OH250043   4.190   0.015   3.592 -0.5071  0.0057  0.2446
 9543TIP3    H150044   4.101   0.026   3.626 -0.6981 -1.0274  0.0995
 9543TIP3    H250045   4.230  -0.048   3.652 -0.1627 -0.2140 -0.2178
 9544TIP3   OH250046   3.461   2.339   0.898 -0.0911  0.3330  0.3828
 9544TIP3    H150047   3.546   2.306   0.926 -0.6924 -2.8824 -1.3447
 9544TIP3    H250048   3.481   2.416   0.845  1.7586 -0.4629 -0.0919
 9545TIP3   OH250049   2.523   4.635  11.566 -0.4942  0.1206  0.0848
 9545TIP3    H150050   2.583   4.710  11.568 -0.5249  0.1308  0.6412
 9545TIP3    H250051   2.439   4.672  11.541 -0.2818  0.1104 -0.6773
 9546TIP3   OH250052   5.852   1.464   1.687 -0.1924  0.6331 -0.6900
 9546TIP3    H150053   5.883   1.379   1.655 -0.6514  0.4459 -0.6451
 9546TIP3    H250054   5.760   1.449   1.708 -0.1640  1.0312 -0.2724
 9547TIP3   OH250055   2.658   2.219   1.024  0.3225 -0.3218  0.2408
 9547TIP3    H150056   2.657   2.188   0.934  0.6159 -1.6514  0.6765
 9547TIP3    H250057   2.582   2.177   1.064 -0.7302  1.5228  0.2137
 9548TIP3   OH250058   2.670   0.873   2.276 -0.5852  0.3953 -0.3257
 9548TIP3    H150059   2.696   0.834   2.193 -0.2229 -0.3732  0.1371
 9548TIP3    H250060   2.711   0.959   2.277  0.9647 -0.3221 -0.1327
 9549TIP3   OH250061   0.585   3.207   0.153  0.6487  0.0621 -0.0525
 9549TIP3    H150062   0.659   3.178   0.099 -1.3198 -1.5000 -1.9633
 9549TIP3    H250063   0.570   3.297   0.125  1.3598  0.1575 -0.1569
 9550TIP3   OH250064   0.324   4.582  14.113  0.5314 -0.2464  0.1861
 9550TIP3    H150065   0.268   4.638  14.059  1.0309 -1.1203 -1.2749
 9550TIP3    H250066   0.402   4.567  14.059  0.5246 -2.1278  0.6580
 9551TIP3   OH250067   3.618   2.015  12.657  0.0367  0.0417  0.0427
 9551TIP3    H150068   3.655   1.961  12.727 -0.2190  1.5355  1.3560
 9551TIP3    H250069   3.685   2.081  12.639 -1.0844  1.4670  0.9690
 9552TIP3   OH250070   6.534   1.787  13.536 -0.0323  0.3149 -0.3146
 9552TIP3    H150071   6.579   1.775  13.452 -1.8225 -2.7619 -0.9128
 9552TIP3    H250072   6.442   1.797  13.513 -0.3953  0.5885  1.2260
 9553TIP3   OH250073   6.001   1.900   4.420  0.2153  0.8190  0.2427
 9553TIP3    H150074   6.003   1.989   4.386 -2.1583  1.3066  1.3102
 9553TIP3    H250075   5.993   1.910   4.515  1.2794 -0.5328  0.4965
 9554TIP3   OH250076   4.902   6.436   6.031 -0.2144 -0.3433 -0.1514
 9554TIP3    H150077   4.956   6.386   5.969 -0.1603  0.9688 -1.1909
 9554TIP3    H250078   4.821   6.386   6.038  0.6664 -1.7239  0.5216
 9555TIP3   OH250079   3.022   4.517  16.993  0.0681 -0.0109  0.7092
 9555TIP3    H150080   3.023   4.467  17.074 -1.7972  1.3029  1.5775
 9555TIP3    H250081   3.099   4.573  16.997  0.8695 -1.1030  0.7995
 9556TIP3   OH250082   5.917   4.424   4.412 -0.3154 -0.3852 -0.1483
 9556TIP3    H150083   5.899   4.514   4.438  1.6596 -0.0772  0.2389
 9556TIP3    H250084   5.858   4.408   4.339 -0.9767  1.0848  0.0466
 9557TIP3   OH250085   4.755   4.510  13.049 -0.0817 -0.1257  0.1747
 9557TIP3    H150086   4.712   4.556  13.122  0.4131  0.7487 -0.0728
 9557TIP3    H250087   4.804   4.579  13.004 -0.6272 -0.6132 -1.1696
 9558TIP3   OH250088   4.155   5.645  17.119 -0.5451 -0.0397 -0.2438
 9558TIP3    H150089   4.183   5.725  17.075  1.4762  0.0693  1.1753
 9558TIP3    H250090   4.123   5.675  17.204 -1.3233 -0.5845 -0.3406
 9559TIP3   OH250091   1.561   2.718  11.426 -0.4217 -0.0480  0.3299
 9559TIP3    H150092   1.608   2.683  11.350  0.1919  1.4778 -0.0230
 9559TIP3    H250093   1.596   2.807  11.437  0.3376 -0.6503  3.1101
 9560TIP3   OH250094   4.194   4.041  16.042  0.1683 -0.0572  0.5186
 9560TIP3    H150095   4.216   4.022  16.134  1.0263  1.6832  0.6880
 9560TIP3    H250096   4.111   4.088  16.047 -0.8611 -1.7775  0.2345
 9561TIP3   OH250097   5.413   2.675   0.454 -0.1099 -0.0034  0.1599
 9561TIP3    H150098   5.367   2.591   0.451 -0.5295  0.2623 -1.7889
 9561TIP3    H250099   5.346   2.739   0.479  0.3074 -0.2861  2.0784
 9562TIP3   OH250100   2.072   4.192  16.266  0.0138  0.1336  0.2395
 9562TIP3    H150101   1.992   4.192  16.318  0.2060 -1.3710  0.5468
 9562TIP3    H250102   2.142   4.183  16.330  0.3439 -0.1452 -0.1639
 9563TIP3   OH250103   2.623   5.707  15.212  0.1358 -0.2524  0.1701
 9563TIP3    H150104   2.649   5.619  15.238  1.7452 -0.0929 -0.8136
 9563TIP3    H250105   2.555   5.694  15.146  0.5420 -0.7607 -0.1484
 9564TIP3   OH250106   1.101   5.744  14.764  0.0141 -0.2196 -0.0097
 9564TIP3    H150107   1.023   5.740  14.709 -0.5011 -0.2183  0.7142
 9564TIP3    H250108   1.098   5.664  14.816 -0.8574  0.9503  1.8108
 9565TIP3   OH250109   1.025   3.352  11.434  0.4410  0.0737 -0.3124
 9565TIP3    H150110   1.089   3.416  11.402  0.5966 -0.7067 -1.6487
 9565TIP3    H250111   1.003   3.301  11.356  0.1421 -1.3365  0.6871
 9566TIP3   OH250112   4.742   5.254  15.854 -0.4221  0.1076  0.5275
 9566TIP3    H150113   4.827   5.213  15.846 -0.5773 -0.3811  1.3234
 9566TIP3    H250114   4.749   5.334  15.802  0.2256 -0.3758 -0.1332
 9567TIP3   OH250115   0.010   0.187  10.544 -0.2640 -0.2823  0.3070
 9567TIP3    H150116  -0.064   0.246  10.562 -1.4937 -1.3981 -1.0584
 9567TIP3    H250117   0.030   0.200  10.452 -0.4949 -1.9582  0.0072
 9568TIP3   OH250118   4.397   0.552  11.732  0.3280 -0.3477  0.5711
 9568TIP3    H150119   4.455   0.478  11.716 -1.3816 -1.2293 -1.7564
 9568TIP3    H250120   4.427   0.620  11.671 -0.8074 -0.6639 -0.3484
 9569TIP3   OH250121   5.983   2.894   1.320  0.2657  0.0831 -0.5244
 9569TIP3    H150122   5.984   2.821   1.382  0.2522  0.4432 -0.0980
 9569TIP3    H250123   5.912   2.950   1.350  0.5996  0.5268 -0.5536
 9570TIP3   OH250124   2.434   4.226   4.611  0.4235  0.7030  0.0202
 9570TIP3    H150125   2.340   4.219   4.594  0.5489 -0.4892 -0.2240
 9570TIP3    H250126   2.457   4.143   4.653  2.0764 -0.6071 -3.3047
 9571TIP3   OH250127   3.560   1.257   3.034 -0.3767 -0.0085 -0.0185
 9571TIP3    H150128   3.532   1.189   3.096 -1.3398  0.6019  0.2233
 9571TIP3    H250129   3.588   1.209   2.957  4.1271 -1.0295  2.0987
 9572TIP3   OH250130   2.378   4.349  11.619 -0.2176  0.0490  0.1737
 9572TIP3    H150131   2.341   4.281  11.675 -0.0297  0.5073  0.8510
 9572TIP3    H250132   2.307   4.371  11.558 -0.7411  0.2225  0.8377
 9573TIP3   OH250133   3.244   2.721   6.245 -0.4932  0.1606  0.2703
 9573TIP3    H150134   3.208   2.665   6.176  0.9392 -0.3317 -0.0859
 9573TIP3    H250135   3.327   2.679   6.269 -0.7449  0.5960  1.9439
 9574TIP3   OH250136   3.057   3.244   5.603 -0.3840 -0.3856 -0.7104
 9574TIP3    H150137   3.147   3.272   5.619 -0.0861 -1.3194 -0.6937
 9574TIP3    H250138   3.023   3.221   5.690 -0.7647  0.3269 -0.6684
 9575TIP3   OH250139   2.163   6.022   4.363  0.2418 -0.0325  0.0855
 9575TIP3    H150140   2.082   5.985   4.398  0.2670  0.4547  0.6615
 9575TIP3    H250141   2.168   5.988   4.273 -0.9531  0.4942 -0.1874
 9576TIP3   OH250142   1.504   5.561   2.399 -0.9046  0.4184 -0.0535
 9576TIP3    H150143   1.529   5.556   2.491  0.1274  0.6756 -0.3099
 9576TIP3    H250144   1.438   5.493   2.388 -1.9452  1.2007  1.1550
 9577TIP3   OH250145   3.020   4.317  15.772 -0.4794 -0.1497  0.2238
 9577TIP3    H150146   3.089   4.381  15.788 -0.6231  0.4075 -1.2743
 9577TIP3    H250147   2.946   4.369  15.739 -0.6998 -1.0248 -0.7014
 9578TIP3   OH250148   6.500   0.602  16.156  0.0052  0.2955 -0.0562
 9578TIP3    H150149   6.495   0.698  16.158  2.6678  0.4366  1.2729
 9578TIP3    H250150   6.505   0.581  16.063  1.3139  1.5896 -0.3049
 9579TIP3   OH250151   4.302   2.385   5.662 -0.2041 -0.6142  0.3325
 9579TIP3    H150152   4.243   2.364   5.735  0.3461 -2.0661  0.3737
 9579TIP3    H250153   4.301   2.307   5.607  1.0847 -0.3562 -0.0748
 9580TIP3   OH250154   3.419   0.965   1.108 -0.9394 -0.2701 -0.2493
 9580TIP3    H150155   3.486   0.972   1.039 -1.0650  0.2057 -0.3297
 9580TIP3    H250156   3.451   1.024   1.177 -0.4931 -1.2326  0.3685
 9581TIP3   OH250157   2.460   2.939  11.285 -0.4214  0.1456 -0.1656
 9581TIP3    H150158   2.378   2.983  11.263 -0.8519 -0.9166 -0.7510
 9581TIP3    H250159   2.504   2.927  11.201  0.1792  0.4087  0.1078
 9582TIP3   OH250160   6.452   4.454   2.629 -0.0584  0.0289 -0.2131
 9582TIP3    H150161   6.525   4.511   2.604 -0.3723 -0.0267 -1.2626
 9582TIP3    H250162   6.386   4.514   2.664 -0.2081  0.2678 -0.8995
 9583TIP3   OH250163   4.766   0.134  16.140  0.1785  0.1007  0.1173
 9583TIP3    H150164   4.780   0.047  16.102  2.6499 -0.3615  1.9889
 9583TIP3    H250165   4.846   0.183  16.119 -0.5443  1.4277  0.4099
 9584TIP3   OH250166   4.224   3.955   7.013 -0.1487 -0.0615  0.0663
 9584TIP3    H150167   4.261   4.023   7.071 -1.5749  0.6595  0.1503
 9584TIP3    H250168   4.264   3.973   6.928 -0.1554  0.5959  0.1955
 9585TIP3   OH250169   2.816   2.540  11.901  0.2212 -0.0689 -0.0327
 9585TIP3    H150170   2.781   2.622  11.934 -1.4050  0.0295 -1.9077
 9585TIP3    H250171   2.817   2.550  11.806  0.9580 -1.8346 -0.2391
 9586TIP3   OH250172   6.704   2.103  16.156  0.1980 -0.1424  0.3231
 9586TIP3    H150173   6.666   2.042  16.092  1.9257 -1.0497  0.1220
 9586TIP3    H250174   6.767   2.050  16.204  0.6068  1.1238  1.1986
 9587TIP3   OH250175   0.422   1.368   6.291  0.5734  0.2821 -0.2175
 9587TIP3    H150176   0.436   1.462   6.276  0.7447  0.4411  0.8980
 9587TIP3    H250177   0.468   1.350   6.373  0.4175 -0.7501 -0.3519
 9588TIP3   OH250178   6.540   4.375   0.970 -0.1716  0.5324 -0.0308
 9588TIP3    H150179   6.621   4.415   0.939 -0.3437 -0.0916 -1.2713
 9588TIP3    H250180   6.487   4.450   1.000  1.2370  0.8696  1.7604
 9589TIP3   OH250181   0.792   4.054   0.069  0.0472 -0.3290  0.3507
 9589TIP3    H150182   0.885   4.032   0.064  0.1607  0.2536 -0.2878
 9589TIP3    H250183   0.790   4.149   0.075 -0.5333 -0.2700 -0.6230
 9590TIP3   OH250184   0.914   3.147  11.599 -0.2983  0.2521  0.2066
 9590TIP3    H150185   0.822   3.126  11.581 -0.1629  0.3844 -0.6551
 9590TIP3    H250186   0.948   3.179  11.516  0.7620 -0.5937  0.3059
 9591TIP3   OH250187   3.335   0.106  10.505 -0.8248  0.2483  0.2346
 9591TIP3    H150188   3.335   0.051  10.583  0.1699  1.8215  1.3802
 9591TIP3    H250189   3.364   0.047  10.435  3.1191 -0.0221  1.9700
 9592TIP3   OH250190   1.235   1.098   6.282 -0.7393  0.4960 -0.3140
 9592TIP3    H150191   1.277   1.181   6.259 -0.3460  0.0070 -1.4454
 9592TIP3    H250192   1.155   1.122   6.327 -1.5566  1.5443 -2.2648
 9593TIP3   OH250193   4.168   3.776   6.149  0.0283  0.2433  0.2376
 9593TIP3    H150194   4.121   3.761   6.231 -1.2223  0.3674 -0.4413
 9593TIP3    H250195   4.260   3.763   6.171 -0.1886  1.4165  1.9219
 9594TIP3   OH250196   0.930   0.094   3.132  0.0304 -0.1419 -0.6067
 9594TIP3    H150197   0.940   0.165   3.069  1.3567  1.4551  1.3394
 9594TIP3    H250198   0.838   0.069   3.126 -0.3415  1.4232 -1.6586
 9595TIP3   OH250199   2.351   1.842  14.675  0.0542  0.7801  0.2146
 9595TIP3    H150200   2.404   1.877  14.604 -2.0729  0.3374 -1.6384
 9595TIP3    H250201   2.344   1.749  14.656 -2.3378  1.0302 -0.2227
 9596TIP3   OH250202   0.190   5.025   4.947 -0.1972 -0.7924  0.3483
 9596TIP3    H150203   0.197   5.006   4.853 -0.3543  0.1190  0.1518
 9596TIP3    H250204   0.162   4.942   4.986  0.4574 -1.3390 -0.3314
 9597TIP3   OH250205   3.121   5.221   0.192 -0.0315  0.0514 -0.3053
 9597TIP3    H150206   3.210   5.248   0.169 -0.0552  0.2791 -0.1367
 9597TIP3    H250207   3.132   5.171   0.273  0.1820 -1.7109 -1.4030
 9598TIP3   OH250208   1.998   1.147  11.914  0.1835 -0.1074  0.8576
 9598TIP3    H150209   1.971   1.190  11.995 -1.7602 -0.1170  0.2381
 9598TIP3    H250210   1.935   1.075  11.904  1.3521 -1.0396  0.1418
 9599TIP3   OH250211   1.854   1.410   3.721  0.0629 -0.1702  0.1592
 9599TIP3    H150212   1.855   1.327   3.767 -1.1537 -1.1127 -1.4707
 9599TIP3    H250213   1.946   1.429   3.702  0.4355 -0.5334  1.5763
 9600TIP3   OH250214   2.029   2.059   3.677 -0.1206  0.2436 -0.0768
 9600TIP3    H150215   1.981   1.977   3.668  0.6595 -0.4746  2.0711
 9600TIP3    H250216   1.987   2.104   3.750  0.7244  0.8459  0.0508
 9601TIP3   OH250217   3.956   6.465  11.142  0.0319  0.2502  0.7354
 9601TIP3    H150218   3.992   6.408  11.210  1.4714  1.3347  0.8985
 9601TIP3    H250219   3.989   6.552  11.164  0.6234  0.5902 -1.4164
 9602TIP3   OH250220   6.131   5.070  11.103  0.2035  0.0881  0.4340
 9602TIP3    H150221   6.051   5.022  11.080 -0.4844  1.8060 -0.8813
 9602TIP3    H250222   6.143   5.132  11.031  1.5075  1.3579  1.7049
 9603TIP3   OH250223   1.448   1.296  13.593 -0.5350  0.0210  0.4637
 9603TIP3    H150224   1.417   1.238  13.523 -2.7796  0.7663  0.7890
 9603TIP3    H250225   1.447   1.242  13.671 -0.7053 -0.0618  0.4052
 9604TIP3   OH250226   0.958   4.416  15.508 -0.4298  0.3743  0.2592
 9604TIP3    H150227   0.946   4.322  15.516  2.2432 -0.2910 -2.4519
 9604TIP3    H250228   0.870   4.453  15.515 -1.4720 -2.2892  1.5931
 9605TIP3   OH250229   2.820   2.564   2.132 -0.0109 -0.5089  0.2403
 9605TIP3    H150230   2.836   2.656   2.112  0.4462 -0.9577 -1.5329
 9605TIP3    H250231   2.743   2.565   2.189 -1.0438  0.8619 -1.1348
 9606TIP3   OH250232   0.282   5.659  12.353  0.2140 -0.3556  0.4409
 9606TIP3    H150233   0.215   5.727  12.345  0.2335 -0.4940 -1.0949
 9606TIP3    H250234   0.272   5.607  12.273  2.6886  0.1319 -0.2193
 9607TIP3   OH250235   1.617   0.515  14.312  0.1927 -0.0690  0.2698
 9607TIP3    H150236   1.575   0.572  14.376 -0.4128 -0.5416  0.3031
 9607TIP3    H250237   1.707   0.546  14.307 -0.5613  2.0437 -1.0338
 9608TIP3   OH250238   3.896   0.019  15.230 -0.4736 -0.1530 -0.6164
 9608TIP3    H150239   3.945  -0.061  15.207  0.0574 -0.1532  0.4675
 9608TIP3    H250240   3.871   0.006  15.322  0.0215  1.1302 -0.2898
 9609TIP3   OH250241   6.742   6.308  13.678 -0.3629 -0.1940  0.4986
 9609TIP3    H150242   6.824   6.293  13.630  0.5149  1.9646  1.2678
 9609TIP3    H250243   6.760   6.276  13.766 -0.1811  0.6660  0.7823
 9610TIP3   OH250244   2.541   3.348   2.187  0.3740  0.2192 -0.1564
 9610TIP3    H150245   2.583   3.279   2.136 -1.7297 -1.0844 -0.1526
 9610TIP3    H250246   2.607   3.372   2.253  1.5484 -0.9711 -0.8760
 9611TIP3   OH250247   1.947   1.635  13.007  0.1713 -0.4372 -0.0957
 9611TIP3    H150248   1.906   1.710  13.050 -1.3566 -1.7571  0.7919
 9611TIP3    H250249   1.913   1.638  12.917 -1.6633 -1.3291  0.5462
 9612TIP3   OH250250   5.680   6.437   3.531 -0.7300 -0.1219 -0.1168
 9612TIP3    H150251   5.696   6.454   3.438 -2.0619  0.1939 -0.3074
 9612TIP3    H250252   5.646   6.347   3.533  0.3278 -0.5216  0.1944
 9613TIP3   OH250253   3.084   1.931   3.491  0.0785  0.6088  0.3932
 9613TIP3    H150254   3.068   1.882   3.571 -0.9942 -1.7377 -1.2195
 9613TIP3    H250255   3.000   1.973   3.471  0.3565  1.2316  0.5079
 9614TIP3   OH250256   3.016   2.927   3.438 -0.3350  0.4097  0.3446
 9614TIP3    H150257   2.937   2.956   3.483 -0.1406 -1.0340  1.6874
 9614TIP3    H250258   2.988   2.848   3.392 -0.1143  0.9329 -0.6868
 9615TIP3   OH250259   5.617   2.635  11.669 -0.5983  0.0785  0.2815
 9615TIP3    H150260   5.627   2.724  11.635 -0.8448  0.2175  0.5667
 9615TIP3    H250261   5.536   2.638  11.721 -0.6289 -0.3213  0.2598
 9616TIP3   OH250262   6.682   4.221   1.427  0.3912 -0.2949 -0.2682
 9616TIP3    H150263   6.763   4.170   1.422  0.4267 -0.2367 -0.2838
 9616TIP3    H250264   6.642   4.212   1.340  1.8057  2.0548 -1.1968
 9617TIP3   OH250265   1.376   3.205   1.596 -0.6645 -0.0327 -0.6005
 9617TIP3    H150266   1.283   3.200   1.619 -0.5291 -0.1171 -0.0517
 9617TIP3    H250267   1.394   3.123   1.551 -1.5974  1.3287 -3.5477
 9618TIP3   OH250268   3.884   6.074  14.847  0.4694 -0.3183  0.0903
 9618TIP3    H150269   3.838   6.093  14.930  1.8722 -0.3037  0.8831
 9618TIP3    H250270   3.822   6.101  14.779 -0.2349  0.8198  1.1467
 9619TIP3   OH250271   0.933   6.526   4.182 -0.0076  0.5833 -0.2117
 9619TIP3    H150272   0.950   6.608   4.135 -3.0737  0.8944 -0.9458
 9619TIP3    H250273   0.945   6.549   4.274  0.2614  1.5820 -0.4870
 9620TIP3   OH250274   1.192   5.624   4.345  0.2798 -0.6749  0.0561
 9620TIP3    H150275   1.284   5.649   4.343 -0.1643  0.9995 -1.6447
 9620TIP3    H250276   1.160   5.645   4.257 -1.5816 -1.7545  0.4552
 9621TIP3   OH250277   1.152   1.627  14.290  1.0629  0.1294 -0.5506
 9621TIP3    H150278   1.097   1.662  14.220 -0.2031  0.0045  0.3672
 9621TIP3    H250279   1.121   1.537  14.301  0.6478  0.4360  0.7917
 9622TIP3   OH250280   5.142   5.034   0.883  0.6314  0.6784 -0.0233
 9622TIP3    H150281   5.111   5.064   0.969  0.1373  1.6118 -0.5162
 9622TIP3    H250282   5.234   5.013   0.897  0.3387 -0.0407  0.9451
 9623TIP3   OH250283   3.318   4.281  16.031 -0.3872 -0.3615  0.0502
 9623TIP3    H150284   3.281   4.317  16.112  0.3314 -1.5346  0.9191
 9623TIP3    H250285   3.255   4.214  16.004 -0.8979  0.3923 -0.6745
 9624TIP3   OH250286   0.795   6.059  11.134  0.1046  0.0414  0.5498
 9624TIP3    H150287   0.858   6.132  11.127  0.7881 -0.5305  0.7171
 9624TIP3    H250288   0.748   6.061  11.050 -0.9988  1.6806  1.1742
 9625TIP3   OH250289   2.448   2.996  11.787 -0.8164 -0.2524 -0.1570
 9625TIP3    H150290   2.463   2.979  11.694  1.2824  1.5989 -0.1964
 9625TIP3    H250291   2.521   2.952  11.832 -1.6965 -0.9490  0.6093
 9626TIP3   OH250292   0.472   6.663  15.612  0.4055  0.0878  0.8339
 9626TIP3    H150293   0.479   6.741  15.557  1.5992 -0.5062  0.1303
 9626TIP3    H250294   0.447   6.696  15.698 -2.3021  0.9672 -0.2368
 9627TIP3   OH250295   4.985   1.834   5.783  0.6064  0.2358 -0.5789
 9627TIP3    H150296   5.022   1.780   5.853 -2.1392 -1.1635 -0.1471
 9627TIP3    H250297   4.975   1.773   5.709 -0.3150  0.7123 -0.8595
 9628TIP3   OH250298   1.360   1.056  11.028 -0.4176  0.4729  0.6443
 9628TIP3    H150299   1.356   0.961  11.022  1.6248  0.4558 -1.2237
 9628TIP3    H250300   1.297   1.087  10.963  1.9693  0.3351 -1.8310
 9629TIP3   OH250301   4.479   0.807   1.549  0.0456 -0.0373  0.1563
 9629TIP3    H150302   4.524   0.733   1.589  1.0480  0.6295  0.3000
 9629TIP3    H250303   4.403   0.769   1.505  0.5187 -1.1326  0.2716
 9630TIP3   OH250304   2.597   1.433   2.069  0.2245  0.2303 -0.5036
 9630TIP3    H150305   2.679   1.455   2.113  1.5574  0.0824 -2.8714
 9630TIP3    H250306   2.533   1.425   2.140  2.1952  0.5835  1.3380
 9631TIP3   OH250307   1.048   2.982   4.095  0.3580  0.0412  0.9591
 9631TIP3    H150308   1.059   3.015   4.184 -2.1114  3.3772  0.1465
 9631TIP3    H250309   1.114   3.028   4.043  0.2662 -0.1491  0.6698
 9632TIP3   OH250310   0.889   0.877  15.155 -0.2187 -0.1055  0.2229
 9632TIP3    H150311   0.866   0.815  15.225  0.7008 -2.5875 -1.5801
 9632TIP3    H250312   0.955   0.934  15.193 -0.2757 -0.9412  1.6005
 9633TIP3   OH250313   5.582   3.972  15.452 -0.0777  0.4257 -0.1112
 9633TIP3    H150314   5.531   4.040  15.495 -0.6033 -0.2604  0.3766
 9633TIP3    H250315   5.516   3.916  15.410  0.3978  0.7970 -1.3824
 9634TIP3   OH250316   2.504   4.158   2.133 -0.1487  0.0573 -0.2296
 9634TIP3    H150317   2.597   4.177   2.122 -0.4980  1.3493 -1.1120
 9634TIP3    H250318   2.501   4.065   2.155  1.3852  0.1530  0.4534
 9635TIP3   OH250319   1.751   3.930   1.809 -0.2911  0.3573  0.1447
 9635TIP3    H150320   1.713   3.917   1.896 -1.7872  0.8131 -0.4224
 9635TIP3    H250321   1.779   4.022   1.809 -2.0895  0.9365 -0.5049
 9636TIP3   OH250322   4.133   1.788  12.168  0.1593 -0.1594 -0.3224
 9636TIP3    H150323   4.138   1.760  12.076  1.3102  0.7216 -0.5504
 9636TIP3    H250324   4.046   1.762  12.196  0.1989 -1.4703 -1.3287
 9637TIP3   OH250325   2.756   5.660  15.879 -0.0084 -0.1647 -0.3570
 9637TIP3    H150326   2.695   5.663  15.805  1.6215  0.8031 -1.7025
 9637TIP3    H250327   2.760   5.749  15.912 -2.1750 -0.9289  2.1836
 9638TIP3   OH250328   3.862   0.330  15.720  0.1172  0.1072 -0.2350
 9638TIP3    H150329   3.918   0.256  15.697  0.2195 -1.4762  4.4979
 9638TIP3    H250330   3.921   0.391  15.765 -0.5659  1.7695 -1.5459
 9639TIP3   OH250331   5.952   4.187  11.621  0.0721  0.9758  0.1616
 9639TIP3    H150332   6.020   4.255  11.622  0.0140  1.0330  2.0589
 9639TIP3    H250333   5.973   4.131  11.696 -1.5419  0.5844  0.3457
 9640TIP3   OH250334   3.731   3.923  16.870  0.3186  0.1154  0.2091
 9640TIP3    H150335   3.783   3.896  16.946  0.1302  0.4552  0.4578
 9640TIP3    H250336   3.675   3.847  16.852  0.3425  0.0449  0.4276
 9641TIP3   OH250337   1.752   1.114  14.727 -0.1763 -0.2450  0.4874
 9641TIP3    H150338   1.802   1.118  14.809 -0.6969  0.0669  0.7949
 9641TIP3    H250339   1.743   1.020  14.710 -2.5131 -0.4018  2.3178
 9642TIP3   OH250340   6.636   5.330   2.080 -0.1769 -0.5134  0.2342
 9642TIP3    H150341   6.639   5.238   2.055 -0.9327 -0.6231  0.5473
 9642TIP3    H250342   6.726   5.351   2.106 -0.1548 -1.3555  0.8509
 9643TIP3   OH250343   2.373   2.154  16.999 -0.6086  0.3357  0.2879
 9643TIP3    H150344   2.373   2.059  17.010  1.2567  0.4381  1.3271
 9643TIP3    H250345   2.408   2.169  16.911 -1.0736  0.0547  0.0569
 9644TIP3   OH250346   1.901   6.472  14.588 -0.2440  0.6731 -0.6802
 9644TIP3    H150347   1.857   6.438  14.510 -1.3600 -0.0673  0.2574
 9644TIP3    H250348   1.929   6.560  14.563 -0.8958  0.5762 -1.7967
 9645TIP3   OH250349   5.493   5.015   0.587 -0.0840 -0.4710  0.6191
 9645TIP3    H150350   5.508   4.961   0.510 -1.9841  0.6328 -0.5663
 9645TIP3    H250351   5.448   4.957   0.649 -3.3511  0.0222 -1.1550
 9646TIP3   OH250352   2.589   2.472  16.845  0.8013 -0.5795 -0.4848
 9646TIP3    H150353   2.554   2.519  16.769 -0.0005 -0.0119  0.2184
 9646TIP3    H250354   2.595   2.539  16.913  0.5685 -1.2982  0.2494
 9647TIP3   OH250355   5.896   0.486  17.103 -0.3319 -0.2834 -0.2843
 9647TIP3    H150356   5.856   0.427  17.040  1.9719 -3.3578  0.9955
 9647TIP3    H250357   5.947   0.548  17.050 -1.2528 -0.6163 -1.5691
 9648TIP3   OH250358   3.347   0.329   3.359 -0.2923  0.1751  0.2375
 9648TIP3    H150359   3.261   0.369   3.347 -0.9156 -1.2063  0.0494
 9648TIP3    H250360   3.395   0.350   3.278 -0.6914  0.3310  0.0411
 9649TIP3   OH250361   6.060   5.652   1.807  0.0834 -0.0962  0.3175
 9649TIP3    H150362   6.080   5.622   1.718  0.1874 -1.1263  0.6883
 9649TIP3    H250363   6.135   5.624   1.860  0.0389  0.5480  0.7282
 9650TIP3   OH250364   1.420   4.493  11.151  0.6557  0.5056 -0.0387
 9650TIP3    H150365   1.371   4.516  11.072 -0.5166  4.1341  1.6597
 9650TIP3    H250366   1.473   4.570  11.170  2.0282 -0.8859  1.9122
 9651TIP3   OH250367   1.855   6.245  15.710 -0.2646  0.1754  0.1219
 9651TIP3    H150368   1.887   6.334  15.695 -1.8090  0.6242 -0.6126
 9651TIP3    H250369   1.825   6.246  15.801 -1.8774  0.9201 -0.4064
 9652TIP3   OH250370   3.375   2.098  12.570  0.2203 -0.0225 -0.2675
 9652TIP3    H150371   3.377   2.191  12.545 -0.1831  0.0358 -0.0965
 9652TIP3    H250372   3.457   2.084  12.617 -0.0768  0.4568  0.4061
 9653TIP3   OH250373   4.868   1.251  13.980 -0.1643  0.2033  0.3985
 9653TIP3    H150374   4.945   1.298  13.947  1.4485 -2.9036 -0.4098
 9653TIP3    H250375   4.821   1.223  13.901 -0.7346 -0.1538  0.8610
 9654TIP3   OH250376   0.427   3.947   1.594 -0.2940 -0.4993 -0.1245
 9654TIP3    H150377   0.443   3.897   1.514  0.7280  1.0581 -0.9288
 9654TIP3    H250378   0.515   3.970   1.625 -0.7219  0.0134  0.7174
 9655TIP3   OH250379   1.675   3.262   2.528 -0.7401 -0.2674 -0.5508
 9655TIP3    H150380   1.597   3.213   2.551 -1.8922  1.7071 -0.0770
 9655TIP3    H250381   1.644   3.352   2.515  1.6848  0.9231  1.3550
 9656TIP3   OH250382   2.542   2.650  10.900  0.1096 -0.2319 -0.0257
 9656TIP3    H150383   2.497   2.635  10.817  0.5191 -1.2506 -0.0634
 9656TIP3    H250384   2.542   2.746  10.910  0.7637 -0.0640 -1.5841
 9657TIP3   OH250385   1.404   3.971   1.832  0.6400 -0.3138 -0.9073
 9657TIP3    H150386   1.429   3.950   1.922 -0.2089  1.2301 -0.2991
 9657TIP3    H250387   1.327   3.917   1.816  0.5678 -0.3058 -0.5924
 9658TIP3   OH250388   1.012   6.296  12.683 -0.2154 -0.3939  0.0927
 9658TIP3    H150389   0.951   6.239  12.638 -0.6488  2.1217 -2.6714
 9658TIP3    H250390   1.097   6.253  12.674 -0.6539 -0.9823 -1.2489
 9659TIP3   OH250391   5.300   6.067   4.828  0.3818 -0.3161 -0.3767
 9659TIP3    H150392   5.308   5.991   4.885 -0.9088  0.7617  1.2779
 9659TIP3    H250393   5.342   6.040   4.746  1.8584 -2.0456  0.9107
 9660TIP3   OH250394   2.292   0.169   5.428  0.4770 -0.1597 -0.2401
 9660TIP3    H150395   2.344   0.153   5.349 -0.0350 -1.0005 -0.4135
 9660TIP3    H250396   2.202   0.155   5.400  0.2141  0.6265  0.2316
 9661TIP3   OH250397   0.863   0.622  16.931  0.1252 -0.4064 -0.6272
 9661TIP3    H150398   0.869   0.641  17.024 -0.1816  0.9813 -0.8817
 9661TIP3    H250399   0.936   0.561  16.914  0.5844 -0.1447  0.3781
 9662TIP3   OH250400   3.925   3.224   0.262 -0.0620 -0.1292 -0.7454
 9662TIP3    H150401   3.884   3.168   0.327 -1.3400 -0.2479 -1.6208
 9662TIP3    H250402   4.000   3.175   0.230  0.7032  0.0292  0.7889
 9663TIP3   OH250403   2.429   0.095  13.149 -0.3309 -0.4369  0.3020
 9663TIP3    H150404   2.487   0.144  13.090  0.3488 -0.7155  0.7459
 9663TIP3    H250405   2.445   0.003  13.128 -2.0154 -0.4821 -0.9237
 9664TIP3   OH250406   0.604   2.900  11.156  0.5877 -0.8198 -0.1483
 9664TIP3    H150407   0.661   2.956  11.104  0.0032 -0.9357 -0.9074
 9664TIP3    H250408   0.581   2.828  11.097  1.1556 -1.7447  0.7404
 9665TIP3   OH250409   4.715   3.435  10.843  0.1702 -0.0408 -0.1141
 9665TIP3    H150410   4.640   3.389  10.883  0.4288  0.0432  0.4755
 9665TIP3    H250411   4.735   3.385  10.764 -0.0957 -0.4449  0.0731
 9666TIP3   OH250412   6.315   0.187  11.325 -0.3768  0.3906  0.1943
 9666TIP3    H150413   6.325   0.270  11.279  0.1548 -0.0642 -0.5201
 9666TIP3    H250414   6.361   0.123  11.270 -0.2565 -0.2677  1.0481
 9667TIP3   OH250415   4.913   2.430   5.156  0.4942  0.4979  0.5044
 9667TIP3    H150416   4.887   2.460   5.069  0.3059 -0.8300  0.0920
 9667TIP3    H250417   4.859   2.352   5.172 -0.2482  1.3469  2.2635
 9668TIP3   OH250418   0.175   2.133  13.266 -0.0551  0.0369 -0.4153
 9668TIP3    H150419   0.117   2.209  13.264 -0.4975 -0.1522  2.4478
 9668TIP3    H250420   0.116   2.058  13.271  0.4027 -0.2489  0.8751
 9669TIP3   OH250421   2.828   2.498  16.522  0.1559  0.4270  0.2013
 9669TIP3    H150422   2.864   2.544  16.446  0.5356 -0.4431 -0.1638
 9669TIP3    H250423   2.844   2.556  16.596  0.3806  0.9920 -0.2848
 9670TIP3   OH250424   2.954   0.864   1.602  0.4140 -0.2186 -0.0148
 9670TIP3    H150425   2.985   0.935   1.658  1.9356 -1.7654  1.1444
 9670TIP3    H250426   2.985   0.887   1.514 -1.8056  2.1066 -0.2427
 9671TIP3   OH250427   5.953   1.186   4.396  0.2307  0.2384  0.2992
 9671TIP3    H150428   5.862   1.207   4.375 -0.0600 -1.4603 -0.2081
 9671TIP3    H250429   5.970   1.103   4.351  1.4123 -0.4781  2.0043
 9672TIP3   OH250430   1.253   5.654   2.916  0.0998 -0.0986 -0.0717
 9672TIP3    H150431   1.178   5.595   2.910  0.0966  0.0164 -1.2943
 9672TIP3    H250432   1.278   5.671   2.825  0.9490  0.7034  0.2978
 9673TIP3   OH250433   1.859   4.825   2.194 -0.0485  0.5418  0.2331
 9673TIP3    H150434   1.827   4.854   2.109 -0.7282  0.7787  0.5672
 9673TIP3    H250435   1.947   4.863   2.201 -0.4209  1.4364  0.1057
 9674TIP3   OH250436   5.808   3.716  11.593  0.1703  0.0490 -0.0682
 9674TIP3    H150437   5.768   3.629  11.586  1.7362 -0.5115 -2.4761
 9674TIP3    H250438   5.736   3.776  11.575  0.1420 -0.9294 -3.6925
 9675TIP3   OH250439   2.800   4.342  16.567  0.2241  0.7387  0.0856
 9675TIP3    H150440   2.800   4.301  16.654 -0.2816 -1.7195 -1.0086
 9675TIP3    H250441   2.759   4.427  16.580 -1.2793 -0.2351  2.0035
 9676TIP3   OH250442   2.638   6.077  15.545  0.2368  0.2390 -0.2533
 9676TIP3    H150443   2.613   6.032  15.465  1.3615 -0.1630 -0.3852
 9676TIP3    H250444   2.624   6.013  15.614  0.1766  0.2670 -0.2388
 9677TIP3   OH250445   3.350   0.083   3.533  0.5501  1.2075  0.0601
 9677TIP3    H150446   3.312   0.132   3.607 -1.6739  0.9917 -0.9066
 9677TIP3    H250447   3.365   0.149   3.466  2.0160  1.2996  0.4466
 9678TIP3   OH250448   4.451   0.414   3.756  0.1311 -0.1499  0.2331
 9678TIP3    H150449   4.465   0.499   3.715  0.8232 -0.5732 -0.4181
 9678TIP3    H250450   4.501   0.353   3.702 -0.2105 -0.9408  0.8064
 9679TIP3   OH250451   6.762   3.275  13.091  0.0008 -0.5749 -0.6668
 9679TIP3    H150452   6.730   3.351  13.042 -0.8337  0.2036  1.0501
 9679TIP3    H250453   6.852   3.299  13.117 -0.5332  0.1760  0.5430
 9680TIP3   OH250454   5.681   2.369  16.194 -0.2382  0.0773  0.4539
 9680TIP3    H150455   5.756   2.393  16.248  1.0304  1.1371 -1.7222
 9680TIP3    H250456   5.682   2.431  16.122 -1.2499 -1.9542 -1.3694
 9681TIP3   OH250457   2.929   3.511  14.424 -0.1906 -0.2904 -0.0386
 9681TIP3    H150458   2.950   3.597  14.388 -0.4490  0.5105  1.6426
 9681TIP3    H250459   2.834   3.514  14.440 -0.4935 -1.4880 -1.4564
 9682TIP3   OH250460   0.802   6.203  14.957  0.1853 -0.5926  0.2097
 9682TIP3    H150461   0.713   6.239  14.967  0.9875  1.4613  0.3241
 9682TIP3    H250462   0.812   6.192  14.862  0.0790 -0.1112  0.1417
 9683TIP3   OH250463   5.766   2.933   3.923 -0.3408 -0.7828 -0.2376
 9683TIP3    H150464   5.693   2.886   3.885  1.4358 -1.0894 -3.3835
 9683TIP3    H250465   5.784   3.005   3.862  2.0670 -0.8105  0.3607
 9684TIP3   OH250466   0.685   3.322  16.047  0.0339  0.0507  0.0319
 9684TIP3    H150467   0.770   3.279  16.061  0.2022  0.3073 -0.1950
 9684TIP3    H250468   0.657   3.349  16.134 -0.2076 -0.7678  0.2167
 9685TIP3   OH250469   6.194   1.130   3.682 -0.6724  0.1793 -0.1433
 9685TIP3    H150470   6.259   1.188   3.642 -0.7236  1.4824  1.5510
 9685TIP3    H250471   6.244   1.081   3.748 -0.9441 -0.5990 -0.5082
 9686TIP3   OH250472   4.260   1.053  11.536 -0.7940  0.2065 -0.1274
 9686TIP3    H150473   4.247   0.967  11.575  0.2046  0.5508  1.0001
 9686TIP3    H250474   4.309   1.037  11.456  2.4208  0.0004  1.8070
 9687TIP3   OH250475   6.514   2.879   6.655  0.0860  0.0986 -0.0850
 9687TIP3    H150476   6.576   2.950   6.637  1.9807 -1.1537  1.2200
 9687TIP3    H250477   6.535   2.812   6.590 -0.0106 -0.2511  0.2419
 9688TIP3   OH250478   1.005   0.658   1.745  0.0060  0.2525 -0.0472
 9688TIP3    H150479   1.083   0.679   1.694 -0.1896  0.8886 -0.0898
 9688TIP3    H250480   1.003   0.724   1.814 -0.3129  0.0364  0.1501
 9689TIP3   OH250481   1.738   3.322   1.561 -0.2122 -0.1704  1.1893
 9689TIP3    H150482   1.727   3.276   1.644  1.4885 -1.8042  0.5291
 9689TIP3    H250483   1.656   3.306   1.514 -1.1632  0.7188  2.4995
 9690TIP3   OH250484   5.134   2.931   1.514  0.5465 -0.2368  0.0108
 9690TIP3    H150485   5.079   2.972   1.581  0.9626 -0.8668  0.7486
 9690TIP3    H250486   5.211   2.987   1.508 -0.0466  0.5088 -0.8454
 9691TIP3   OH250487   0.660   6.125  12.901  0.0791  0.0346  0.0090
 9691TIP3    H150488   0.586   6.100  12.957 -0.3657 -1.4693 -1.2126
 9691TIP3    H250489   0.734   6.135  12.962 -1.2448  2.1634  1.3071
 9692TIP3   OH250490   2.213   0.418   3.017 -0.2369  0.0476 -0.0672
 9692TIP3    H150491   2.306   0.412   2.993 -0.1831 -0.0427  0.1604
 9692TIP3    H250492   2.176   0.335   2.986 -0.6248  0.8601 -1.8075
 9693TIP3   OH250493   0.966   6.086   5.372 -0.4560 -0.1938 -0.4031
 9693TIP3    H150494   0.944   6.069   5.463 -0.0089  0.9670 -0.0709
 9693TIP3    H250495   0.884   6.074   5.325 -1.0516  0.8318  0.3737
 9694TIP3   OH250496   2.541   5.597   5.576  0.3017  0.3938  0.1783
 9694TIP3    H150497   2.488   5.632   5.648 -0.0080  1.4377 -0.5483
 9694TIP3    H250498   2.630   5.627   5.595  0.3819 -0.1215  0.6205
 9695TIP3   OH250499   4.012   6.349   1.934 -0.0319  0.6659 -0.0796
 9695TIP3    H150500   4.017   6.258   1.964  0.1426  0.4858 -0.6447
 9695TIP3    H250501   4.007   6.401   2.014  2.9343  0.3409  0.3940
 9696TIP3   OH250502   2.744   5.578   4.299 -0.3389  0.7930  0.2083
 9696TIP3    H150503   2.821   5.523   4.314  0.2068  1.0283 -1.5692
 9696TIP3    H250504   2.682   5.552   4.367 -0.0545 -1.9331 -0.5256
 9697TIP3   OH250505   4.988   3.961  14.296  0.1498  0.6171 -0.5902
 9697TIP3    H150506   5.063   4.017  14.277 -0.2187  1.2691 -0.1165
 9697TIP3    H250507   4.959   3.930  14.210  0.0816  1.4948 -0.8854
 9698TIP3   OH250508   2.027   0.622  10.738 -0.5164 -0.8601  0.0499
 9698TIP3    H150509   2.107   0.608  10.688  0.1947  4.2614 -0.5275
 9698TIP3    H250510   1.958   0.584  10.684  0.9515 -0.5692 -2.0994
 9699TIP3   OH250511   3.456   2.485  16.346  0.2811  0.2706  0.3429
 9699TIP3    H150512   3.477   2.447  16.261  0.5262 -0.5575  0.7704
 9699TIP3    H250513   3.361   2.495  16.346  0.0485 -1.8723  0.8664
 9700TIP3   OH250514   6.477   3.655   1.855 -0.3753 -0.4169  0.5622
 9700TIP3    H150515   6.430   3.711   1.792 -0.5022  1.7039  2.4548
 9700TIP3    H250516   6.407   3.610   1.902 -0.4095  0.3829  1.2860
 9701TIP3   OH250517   4.007   3.266  11.240  0.1371  0.0415 -0.4378
 9701TIP3    H150518   3.933   3.241  11.184 -0.5574  2.4742 -0.6608
 9701TIP3    H250519   4.084   3.239  11.190 -0.5339  0.3694 -1.6884
 9702TIP3   OH250520   5.196   3.643  15.845  0.9255  0.2445 -0.3037
 9702TIP3    H150521   5.110   3.656  15.804  0.2043 -0.7423  0.8660
 9702TIP3    H250522   5.198   3.551  15.869  2.8076 -0.0182 -1.3788
 9703TIP3   OH250523   1.025   2.148   1.223 -0.4255 -0.1525 -0.4755
 9703TIP3    H150524   0.944   2.099   1.235  0.3017 -1.4924 -0.9893
 9703TIP3    H250525   1.065   2.150   1.310 -0.2275 -0.8650 -0.5527
 9704TIP3   OH250526   5.082   5.735   2.216 -0.1573 -0.4819 -0.0854
 9704TIP3    H150527   5.070   5.640   2.213 -0.9826 -0.4313  1.3704
 9704TIP3    H250528   5.008   5.770   2.167 -0.0835 -0.5729 -0.2608
 9705TIP3   OH250529   1.259   0.109  17.127  0.0841 -0.3733  0.0220
 9705TIP3    H150530   1.245   0.027  17.173  1.0786  0.2823  1.5222
 9705TIP3    H250531   1.174   0.128  17.085 -0.9378 -0.8038  1.8601
 9706TIP3   OH250532   6.781   1.591   3.246 -0.2703  0.2608  0.1953
 9706TIP3    H150533   6.832   1.565   3.323  1.4707  1.1395 -0.6443
 9706TIP3    H250534   6.824   1.547   3.173 -0.0770  1.8450 -0.6553
 9707TIP3   OH250535   6.538   0.468  11.529  0.2209 -0.4370  0.2970
 9707TIP3    H150536   6.566   0.472  11.438  0.6500  1.0343  0.4820
 9707TIP3    H250537   6.619   0.468  11.579 -0.0268 -0.6272  0.7049
 9708TIP3   OH250538   5.031   1.020   3.693  0.3104 -0.5991  0.3072
 9708TIP3    H150539   5.033   0.937   3.644  1.4751 -0.7824  0.6383
 9708TIP3    H250540   4.965   1.006   3.761 -0.4855 -0.7614 -0.4941
 9709TIP3   OH250541   0.156   3.175   4.311  0.2669 -0.0011 -0.0283
 9709TIP3    H150542   0.174   3.081   4.310  1.4016  0.2067  0.0408
 9709TIP3    H250543   0.068   3.183   4.276  0.0736 -1.1142  0.1846
 9710TIP3   OH250544   5.221   5.989  13.571 -0.1403  0.5230 -0.1095
 9710TIP3    H150545   5.235   5.974  13.664 -0.5726 -3.7498 -0.6227
 9710TIP3    H250546   5.127   5.973  13.558  0.4100 -1.7206 -1.6709
 9711TIP3   OH250547   0.923   1.398  12.519  0.0359  0.4032  0.0041
 9711TIP3    H150548   0.835   1.399  12.558  0.9979  0.8635  2.2649
 9711TIP3    H250549   0.982   1.403  12.594  2.0096 -0.1534 -1.4734
 9712TIP3   OH250550   6.650   5.340  16.486 -0.3098  0.1125  0.0432
 9712TIP3    H150551   6.595   5.263  16.499 -0.6438 -0.0015 -1.8570
 9712TIP3    H250552   6.592   5.414  16.506 -0.1776 -0.1133  1.2481
 9713TIP3   OH250553   4.839   6.273   4.669  0.3250  0.1734  0.0692
 9713TIP3    H150554   4.843   6.353   4.721 -0.4069  0.1292  0.1938
 9713TIP3    H250555   4.908   6.217   4.705 -0.5194 -0.0740  1.3491
 9714TIP3   OH250556   1.175   3.674   3.488  0.4837 -0.0323 -0.1569
 9714TIP3    H150557   1.094   3.628   3.466 -0.1842  0.9971  0.1247
 9714TIP3    H250558   1.157   3.716   3.572  2.2068 -1.9920  1.2583
 9715TIP3   OH250559   0.664   1.404  13.465 -0.4982 -0.0908 -0.1420
 9715TIP3    H150560   0.713   1.323  13.477 -1.0935 -0.6913 -1.6734
 9715TIP3    H250561   0.723   1.460  13.414 -2.7399 -2.2215 -5.4216
 9716TIP3   OH250562   1.258   2.008  12.778 -0.2617 -0.2339 -0.1996
 9716TIP3    H150563   1.291   2.059  12.852  3.0012 -0.5538 -1.3479
 9716TIP3    H250564   1.250   1.919  12.812  0.5552 -0.2435 -0.0090
 9717TIP3   OH250565   1.955   6.323  13.856 -0.4150 -0.0104 -0.0930
 9717TIP3    H150566   1.891   6.285  13.796  0.0923 -1.4067  0.2326
 9717TIP3    H250567   2.031   6.266  13.849  0.4076  1.0309  0.3171
 9718TIP3   OH250568   3.462   6.163  15.393 -0.4765 -0.3801 -0.1629
 9718TIP3    H150569   3.411   6.162  15.312 -1.3299 -1.4930  0.3709
 9718TIP3    H250570   3.425   6.092  15.446  0.2493  0.1546  1.0962
 9719TIP3   OH250571   6.632   0.600  14.631 -0.4968  0.3922  0.0871
 9719TIP3    H150572   6.711   0.646  14.661 -0.9687  2.5821 -1.8138
 9719TIP3    H250573   6.582   0.583  14.711  1.6557 -0.5859  1.2630
 9720TIP3   OH250574   4.642   1.506   3.280  0.9559 -0.6919  0.1748
 9720TIP3    H150575   4.564   1.465   3.242  0.8154 -0.3909  0.1416
 9720TIP3    H250576   4.709   1.438   3.275  0.4772 -1.2318  0.9374
 9721TIP3   OH250577   2.102   3.707  15.781  0.1598  0.3580  0.2624
 9721TIP3    H150578   2.096   3.795  15.744 -3.4789 -0.4161 -1.1877
 9721TIP3    H250579   2.139   3.653  15.711 -0.9787  0.0640 -0.1191
 9722TIP3   OH250580   2.200   3.645  16.941  0.3510 -0.3229  0.1833
 9722TIP3    H150581   2.104   3.638  16.945  0.3615 -0.4648  0.1782
 9722TIP3    H250582   2.226   3.661  17.032  0.1181  2.3904 -0.1796
 9723TIP3   OH250583   0.806   2.814   3.003 -0.2655  0.2898 -0.5001
 9723TIP3    H150584   0.832   2.851   2.918 -0.0478  1.7760  0.1868
 9723TIP3    H250585   0.887   2.811   3.053 -0.5986  0.5405  0.0535
 9724TIP3   OH250586   1.900   0.272   1.518 -0.3530  0.0958 -0.1865
 9724TIP3    H150587   1.805   0.277   1.503 -0.4710 -1.0509  0.1854
 9724TIP3    H250588   1.912   0.193   1.569  0.8170  0.2536 -0.2193
 9725TIP3   OH250589   1.524   4.245  14.067 -0.6546  0.3135  0.5564
 9725TIP3    H150590   1.543   4.337  14.045  0.7620 -0.6073 -2.3789
 9725TIP3    H250591   1.570   4.195  14.000 -0.0675 -2.6280  3.0534
 9726TIP3   OH250592   1.639   1.834  16.992 -0.4821 -0.4682  0.3152
 9726TIP3    H150593   1.680   1.857  17.075  1.2258 -0.2403 -0.5787
 9726TIP3    H250594   1.550   1.807  17.016 -0.2481  0.2946  2.1295
 9727TIP3   OH250595   3.698   3.825  16.268  0.3185  0.6344  0.1304
 9727TIP3    H150596   3.631   3.879  16.226  0.3150 -0.3788 -1.1800
 9727TIP3    H250597   3.780   3.853  16.229  0.2975 -0.4246 -0.6704
 9728TIP3   OH250598   2.012   1.406  16.535 -0.8423  0.4749 -0.0296
 9728TIP3    H150599   2.069   1.340  16.494 -1.8698  0.3322 -1.2663
 9728TIP3    H250600   1.927   1.363  16.540 -1.0078  0.9435  1.1658
 9729TIP3   OH250601   1.079   0.266   0.395  0.2923  0.3550  0.3454
 9729TIP3    H150602   1.155   0.304   0.351 -0.2007  1.1908  0.2053
 9729TIP3    H250603   1.111   0.184   0.432  0.5796 -0.6249 -2.0217
 9730TIP3   OH250604   4.332   0.626   2.470 -0.0254  0.2747  0.2415
 9730TIP3    H150605   4.279   0.547   2.459  2.9671 -1.9017  0.8339
 9730TIP3    H250606   4.377   0.614   2.554  0.8010  2.4340  0.1543
 9731TIP3   OH250607   3.461   0.379  15.884 -0.3163  0.1789 -0.1088
 9731TIP3    H150608   3.430   0.373  15.974  0.7892  1.4896  0.3635
 9731TIP3    H250609   3.485   0.470  15.872  3.3462 -0.7489 -0.4595
 9732TIP3   OH250610   6.055   1.075   4.140 -1.1152 -0.3449  0.4450
 9732TIP3    H150611   6.054   0.984   4.170  1.0330 -0.4243  0.4141
 9732TIP3    H250612   6.008   1.073   4.056  2.1511 -2.2184 -1.4598
 9733TIP3   OH250613   2.873   2.029   4.897  0.1725  0.1317 -0.0824
 9733TIP3    H150614   2.872   1.937   4.924  0.7671  0.0139 -0.4504
 9733TIP3    H250615   2.809   2.035   4.827 -0.5133  0.1854  0.5485
 9734TIP3   OH250616   2.513   1.277   4.564  0.3740 -0.2585 -0.1658
 9734TIP3    H150617   2.519   1.182   4.556 -1.2284 -0.2688 -1.7489
 9734TIP3    H250618   2.498   1.307   4.474 -1.0039  1.3237  0.5628
 9735TIP3   OH250619   0.139   2.201   0.090  0.3907 -0.4806  0.1163
 9735TIP3    H150620   0.226   2.176   0.059 -0.2438 -2.2414 -0.3269
 9735TIP3    H250621   0.088   2.120   0.084 -1.7801  0.9614 -1.4010
 9736TIP3   OH250622   2.156   1.942  12.121 -0.1521  0.3610  0.6339
 9736TIP3    H150623   2.108   2.021  12.144  1.0931  1.2406  0.2582
 9736TIP3    H250624   2.147   1.885  12.197 -1.1527  0.8002  0.8564
 9737TIP3   OH250625   2.418   5.822  11.153  0.0734  0.3848 -0.3931
 9737TIP3    H150626   2.404   5.878  11.077 -1.6073  0.6932  0.1162
 9737TIP3    H250627   2.354   5.853  11.217  1.5140  0.1756  1.1666
 9738TIP3   OH250628   3.610   1.607  12.441 -0.0774 -0.3115 -0.5011
 9738TIP3    H150629   3.528   1.567  12.472  1.1950 -1.3102  1.6810
 9738TIP3    H250630   3.610   1.591  12.347 -2.4261 -0.2367 -0.5426
 9739TIP3   OH250631   3.186   5.330  10.316  0.2891  0.3720 -0.5874
 9739TIP3    H150632   3.226   5.346  10.230  0.6344 -0.7808 -0.6550
 9739TIP3    H250633   3.257   5.294  10.369 -0.5825 -1.5033 -0.6525
 9740TIP3   OH250634   3.384   0.553  15.017  0.6027  0.1192 -0.0980
 9740TIP3    H150635   3.317   0.546  15.085  1.3780  1.6439  0.8282
 9740TIP3    H250636   3.413   0.644  15.020  3.0682 -0.6251 -0.1533
 9741TIP3   OH250637   2.406   0.416  14.836  0.2180 -0.3370  0.0532
 9741TIP3    H150638   2.462   0.348  14.875 -0.2843 -0.8172 -0.0601
 9741TIP3    H250639   2.370   0.463  14.911  2.5623  1.4656  0.1247
 9742TIP3   OH250640   1.528   0.395   1.067  0.4758  0.2330 -0.1508
 9742TIP3    H150641   1.492   0.475   1.105 -0.3768 -0.8850  1.4523
 9742TIP3    H250642   1.613   0.385   1.110 -0.6377 -1.2171  1.7751
 9743TIP3   OH250643   5.199   4.886   5.938 -0.1293  0.6865 -0.2409
 9743TIP3    H150644   5.173   4.902   6.028  0.9139 -2.0402  0.6102
 9743TIP3    H250645   5.117   4.889   5.888 -0.5802  3.1842  0.6197
 9744TIP3   OH250646   1.195   3.319  13.539  0.4222  0.1083  0.6772
 9744TIP3    H150647   1.241   3.316  13.455 -1.1269  0.5000 -0.2087
 9744TIP3    H250648   1.141   3.397  13.534  0.3722  0.1729  2.0851
 9745TIP3   OH250649   0.580   0.655   4.312 -0.5282  0.3428  0.6091
 9745TIP3    H150650   0.575   0.694   4.224  2.9952 -3.6964 -1.6105
 9745TIP3    H250651   0.498   0.606   4.321 -1.6975  2.2007  0.3446
 9746TIP3   OH250652   0.829   5.645   3.944 -0.3600 -0.1448 -0.1589
 9746TIP3    H150653   0.836   5.570   3.885 -0.6245  0.7024 -1.2649
 9746TIP3    H250654   0.864   5.613   4.027  0.2490 -1.2589 -0.8376
 9747TIP3   OH250655   0.047   5.003   3.201  0.2744 -0.2473  0.7584
 9747TIP3    H150656   0.007   5.026   3.285 -0.3495  0.6387  0.2209
 9747TIP3    H250657   0.043   4.907   3.198 -0.2284 -0.2497  1.4722
 9748TIP3   OH250658   4.235   5.974   5.392 -0.5528 -0.0783  0.3272
 9748TIP3    H150659   4.270   6.048   5.343 -0.9810 -1.8400 -2.7631
 9748TIP3    H250660   4.281   5.977   5.476  1.4282  2.0458 -0.7624
 9749TIP3   OH250661   0.147   6.076   1.678  0.3080  0.1073 -0.3771
 9749TIP3    H150662   0.124   6.038   1.593 -0.6756 -0.5169  0.1693
 9749TIP3    H250663   0.109   6.164   1.676 -1.0895 -0.4876  0.0480
 9750TIP3   OH250664   1.321   4.723   5.511 -0.0075  0.1287 -0.7858
 9750TIP3    H150665   1.411   4.744   5.485 -0.7539  1.2892 -2.5176
 9750TIP3    H250666   1.298   4.790   5.575  1.4548 -2.0942  2.2121
 9751TIP3   OH250667   6.740   4.078  10.555  0.1080  0.0999  0.0289
 9751TIP3    H150668   6.700   4.046  10.474  1.2927 -0.2507 -0.4302
 9751TIP3    H250669   6.714   4.170  10.559  2.3339  0.8936 -2.2384
 9752TIP3   OH250670   4.187   5.184  14.344 -0.3414  0.0773  0.0944
 9752TIP3    H150671   4.141   5.188  14.260 -0.6839 -1.0479  0.2269
 9752TIP3    H250672   4.136   5.123  14.397 -0.7217  1.5802  1.5065
 9753TIP3   OH250673   4.271   5.949  16.317 -0.1756 -0.2165  0.6349
 9753TIP3    H150674   4.236   5.939  16.405  0.6487 -1.1835  0.8626
 9753TIP3    H250675   4.337   5.880  16.309 -1.5407 -1.3490 -1.3921
 9754TIP3   OH250676   1.376   4.875   3.946  0.2753  0.6470  0.0493
 9754TIP3    H150677   1.351   4.816   4.016 -2.2331 -0.4950 -1.7599
 9754TIP3    H250678   1.389   4.960   3.989 -0.5553 -0.1838  1.9582
 9755TIP3   OH250679   0.237   4.826  12.679  0.0891 -0.0313 -0.1425
 9755TIP3    H150680   0.314   4.876  12.705 -0.7225  0.6765  0.9157
 9755TIP3    H250681   0.165   4.863  12.730 -0.5970 -2.0209  0.3925
 9756TIP3   OH250682   0.561   1.872  16.137  0.3401 -0.7175 -0.3882
 9756TIP3    H150683   0.469   1.879  16.113  0.7880  1.7899 -1.4255
 9756TIP3    H250684   0.559   1.829  16.223 -1.8584  0.3430  0.1379
 9757TIP3   OH250685   3.320   4.691   5.076 -0.5198  0.0589 -0.9203
 9757TIP3    H150686   3.400   4.688   5.023  1.2373 -2.4445  1.6525
 9757TIP3    H250687   3.310   4.783   5.100  1.5197  0.4578 -1.4621
 9758TIP3   OH250688   3.123   2.017  13.555 -0.1766 -0.2225 -0.5483
 9758TIP3    H150689   3.166   1.962  13.620 -0.2785  0.0553 -0.2425
 9758TIP3    H250690   3.075   1.956  13.499 -0.3784 -0.4347 -0.1458
 9759TIP3   OH250691   4.448   4.160  13.717 -0.7949  0.3051 -0.2180
 9759TIP3    H150692   4.432   4.099  13.789 -0.5677  0.8322  0.2879
 9759TIP3    H250693   4.539   4.144  13.693 -0.5327  0.8927  0.3549
 9760TIP3   OH250694   6.596   3.265  16.419 -0.2119 -0.4274  0.3786
 9760TIP3    H150695   6.542   3.193  16.386  1.9870 -1.0616 -1.9931
 9760TIP3    H250696   6.581   3.336  16.356  1.6661 -0.6112 -0.3073
 9761TIP3   OH250697   5.061   3.421  16.952 -0.0675 -0.0453 -0.4142
 9761TIP3    H150698   5.068   3.326  16.956  0.3943 -0.0421 -1.0548
 9761TIP3    H250699   5.121   3.447  16.882  0.6121  0.8155  0.4767
 9762TIP3   OH250700   3.842   3.399  12.318 -0.0665  0.4280 -0.2655
 9762TIP3    H150701   3.869   3.308  12.302  0.8681  0.7231 -0.4194
 9762TIP3    H250702   3.786   3.394  12.395 -0.3576 -0.3321 -0.5144
 9763TIP3   OH250703   5.732   0.728   0.017  0.3514  0.3106  0.2200
 9763TIP3    H150704   5.715   0.802  -0.042 -1.6404 -1.3407 -1.3676
 9763TIP3    H250705   5.807   0.683  -0.023  0.2854  0.3298  0.0728
 9764TIP3   OH250706   1.249   1.345  14.553 -0.3542  0.0077 -0.4369
 9764TIP3    H150707   1.331   1.371  14.512 -0.3910  0.2222 -0.3739
 9764TIP3    H250708   1.201   1.297  14.485 -1.0264  1.5779 -1.0872
 9765TIP3   OH250709   5.873   3.690  11.062  0.0281 -0.2412  0.3757
 9765TIP3    H150710   5.811   3.741  11.115  1.6386  0.9282  1.1827
 9765TIP3    H250711   5.889   3.744  10.985 -1.0600 -1.2056 -0.5364
 9766TIP3   OH250712   2.210   6.060   2.587 -0.0951 -0.1091  0.2096
 9766TIP3    H150713   2.270   6.055   2.661  3.4989 -1.8420 -2.6594
 9766TIP3    H250714   2.186   5.970   2.568 -2.3848  0.4452  0.2560
 9767TIP3   OH250715   4.106   4.357   5.815 -0.0473  0.2534  0.1928
 9767TIP3    H150716   4.056   4.412   5.755  0.7239  2.0927  1.1650
 9767TIP3    H250717   4.117   4.411   5.893  1.7764 -0.8350  0.7266
 9768TIP3   OH250718   0.947   2.224  16.218  0.3668  0.0986 -0.0813
 9768TIP3    H150719   0.899   2.237  16.300  0.4128  0.0276 -0.0439
 9768TIP3    H250720   0.881   2.190  16.158  0.7323 -1.6226  0.4433
 9769TIP3   OH250721   1.938   4.075  13.940  0.2561  0.0297  0.6727
 9769TIP3    H150722   1.969   4.154  13.984 -0.4176  0.6855 -0.0131
 9769TIP3    H250723   2.017   4.030  13.912  0.6260  1.5542 -0.8366
 9770TIP3   OH250724   3.143   4.553  10.514 -0.4976 -0.2862  0.4588
 9770TIP3    H150725   3.110   4.463  10.521 -1.1094 -0.2074 -1.1946
 9770TIP3    H250726   3.068   4.607  10.539 -0.8879 -0.1706 -0.9533
 9771TIP3   OH250727   0.709   2.166  12.257 -0.4046  0.3296  0.0384
 9771TIP3    H150728   0.629   2.153  12.207 -0.9518  0.3996  0.8954
 9771TIP3    H250729   0.767   2.096  12.227 -0.9934 -0.0741 -0.1614
 9772TIP3   OH250730   5.918   6.534  14.446  0.2969  0.2412 -0.3190
 9772TIP3    H150731   6.007   6.508  14.420  0.1292  0.2050 -0.8511
 9772TIP3    H250732   5.869   6.453  14.449  0.2939  0.2543  0.0399
 9773TIP3   OH250733   0.570   3.274   0.492 -0.1907 -0.1983  0.4580
 9773TIP3    H150734   0.508   3.343   0.515  0.8056  0.3989  1.4034
 9773TIP3    H250735   0.651   3.297   0.538  0.6459 -1.1328 -0.4921
 9774TIP3   OH250736   2.710   5.602  16.503 -0.4647  0.1267  0.2246
 9774TIP3    H150737   2.633   5.564  16.461 -1.8140  2.0225  0.8858
 9774TIP3    H250738   2.746   5.661  16.437  0.8792 -1.3065 -0.3489
 9775TIP3   OH250739   6.205   3.990  12.924 -0.4323  0.0468  0.1479
 9775TIP3    H150740   6.159   3.909  12.903 -1.4011  0.6597 -0.1344
 9775TIP3    H250741   6.292   3.962  12.951 -0.5296 -1.0440 -0.6313
 9776TIP3   OH250742   2.611   2.487   1.205 -0.1328  0.3566 -0.1449
 9776TIP3    H150743   2.645   2.507   1.292 -0.0209 -0.0438 -0.0960
 9776TIP3    H250744   2.685   2.448   1.158 -0.7904 -1.5199  0.3090
 9777TIP3   OH250745   2.832   0.254   1.620 -0.0658  0.2557 -0.3444
 9777TIP3    H150746   2.902   0.196   1.650 -0.1365 -1.0768 -2.6964
 9777TIP3    H250747   2.760   0.238   1.682  1.5600  1.4764  1.9581
 9778TIP3   OH250748   2.426   0.356  17.125 -0.0229  0.6703  0.2322
 9778TIP3    H150749   2.452   0.316  17.042  0.4664  1.3026  0.0809
 9778TIP3    H250750   2.503   0.348  17.181 -0.7477 -0.8751  1.0556
 9779TIP3   OH250751   1.668   4.254  12.734  0.2537 -0.1904  0.3047
 9779TIP3    H150752   1.750   4.245  12.782 -0.2334  1.4354  1.4847
 9779TIP3    H250753   1.683   4.209  12.651  1.4062 -2.3259  1.6146
 9780TIP3   OH250754   3.541   6.322  15.636  0.5746 -0.3679  0.0612
 9780TIP3    H150755   3.522   6.282  15.552  1.2687 -1.4449  0.4051
 9780TIP3    H250756   3.566   6.249  15.693  0.5110  0.3876  1.0905
 9781TIP3   OH250757   2.717   3.837  17.040  0.2989  0.1386 -0.9927
 9781TIP3    H150758   2.643   3.779  17.020  0.9117 -0.7961 -0.5895
 9781TIP3    H250759   2.750   3.806  17.124  0.4192  1.3112 -0.5890
 9782TIP3   OH250760   0.720   6.734   2.757  0.7851 -0.1356 -0.5198
 9782TIP3    H150761   0.683   6.777   2.834  1.1761 -1.6159  0.5266
 9782TIP3    H250762   0.740   6.805   2.697 -2.9817  0.7726 -0.7941
 9783TIP3   OH250763   1.592   2.610   3.722 -0.5895 -0.1355  0.2100
 9783TIP3    H150764   1.505   2.621   3.760 -1.1701  1.0440 -1.3994
 9783TIP3    H250765   1.575   2.592   3.629  0.8256 -1.6297  0.2188
 9784TIP3   OH250766   2.294   6.200  14.107 -0.0380  0.2141  0.2834
 9784TIP3    H150767   2.226   6.142  14.140 -0.5150  0.7191  0.2057
 9784TIP3    H250768   2.270   6.217  14.016 -1.4354  2.7019  1.0694
 9785TIP3   OH250769   1.498   2.516  16.588 -0.6183 -0.2457 -0.1228
 9785TIP3    H150770   1.461   2.598  16.620 -0.6471 -0.2893 -0.0455
 9785TIP3    H250771   1.459   2.449  16.644  0.6126 -0.1739  0.8557
 9786TIP3   OH250772   0.432   0.097  15.401  0.3512 -0.2256  0.0544
 9786TIP3    H150773   0.498   0.124  15.337 -1.6207  1.6613 -1.2942
 9786TIP3    H250774   0.389   0.022  15.361  0.6718 -0.4988  0.2262
 9787TIP3   OH250775   4.328   4.532  15.787 -0.1610 -0.3512  0.2159
 9787TIP3    H150776   4.307   4.561  15.699  0.5131 -1.3359 -0.2735
 9787TIP3    H250777   4.243   4.507  15.825 -0.5480  0.8205  0.1291
 9788TIP3   OH250778   6.048   2.839   0.198  0.0141  0.0707 -0.3162
 9788TIP3    H150779   6.034   2.933   0.210 -0.4407 -0.0863  0.3812
 9788TIP3    H250780   5.972   2.810   0.147 -0.3926 -0.1203  0.4004
 9789TIP3   OH250781   0.286   4.195   2.008 -0.2432  0.1495 -0.5739
 9789TIP3    H150782   0.312   4.128   2.071  1.7585  0.4104 -1.0862
 9789TIP3    H250783   0.286   4.150   1.923  0.9554  0.7438 -0.8985
 9790TIP3   OH250784   3.633   4.387   0.396 -0.0857 -0.0623  0.5451
 9790TIP3    H150785   3.672   4.466   0.434  1.3956 -0.6110  0.1849
 9790TIP3    H250786   3.575   4.420   0.328 -0.8784  0.8023  1.6079
 9791TIP3   OH250787   5.571   4.300   2.297 -0.1876 -0.5468  0.0657
 9791TIP3    H150788   5.665   4.299   2.278  0.4008 -0.6888  2.7812
 9791TIP3    H250789   5.537   4.375   2.248  1.5270  0.1078 -0.1427
 9792TIP3   OH250790   4.221   4.721   5.800 -0.3199  0.3056 -0.8512
 9792TIP3    H150791   4.181   4.634   5.801  0.1254  0.1097  0.3209
 9792TIP3    H250792   4.154   4.778   5.763 -1.4855 -0.1199  0.5678
 9793TIP3   OH250793   2.155   0.721  11.051  0.1075 -0.2293 -0.4206
 9793TIP3    H150794   2.231   0.687  11.098  0.5795  0.6776 -0.5094
 9793TIP3    H250795   2.117   0.786  11.110 -1.5582 -1.8263  0.2955
 9794TIP3   OH250796   4.797   1.251   0.845 -0.3828 -0.1165 -0.2226
 9794TIP3    H150797   4.807   1.285   0.934  1.6382 -0.4935 -0.2634
 9794TIP3    H250798   4.783   1.157   0.858 -0.0562 -0.1767 -0.2795
 9795TIP3   OH250799   0.648   3.781  16.664  0.2043 -0.0402 -0.7896
 9795TIP3    H150800   0.574   3.817  16.714 -0.4557 -0.5496 -1.3821
 9795TIP3    H250801   0.614   3.700  16.627  1.6242 -1.1935  0.3991
 9796TIP3   OH250802   0.329   2.749  14.463  0.3133 -0.2209  0.2389
 9796TIP3    H150803   0.385   2.816  14.501  1.1738 -0.9393  0.2459
 9796TIP3    H250804   0.304   2.693  14.536  0.4835 -0.5434  0.0526
 9797TIP3   OH250805   4.919   0.417   4.169 -0.1738  0.1753  0.3174
 9797TIP3    H150806   4.842   0.364   4.148  0.3552 -0.1198 -0.9325
 9797TIP3    H250807   4.965   0.366   4.236 -0.6394 -0.0285  0.4883
 9798TIP3   OH250808   0.477   2.283   3.504 -0.0852 -0.0887 -0.1427
 9798TIP3    H150809   0.524   2.241   3.431 -0.4882  0.1356 -0.5363
 9798TIP3    H250810   0.419   2.346   3.461 -1.5112 -1.1023  0.2691
 9799TIP3   OH250811   0.308   4.697  11.273 -0.1042 -0.1489 -0.1049
 9799TIP3    H150812   0.308   4.760  11.202 -1.0050  0.7255  0.6596
 9799TIP3    H250813   0.383   4.722  11.327 -0.9255  0.7768  0.6273
 9800TIP3   OH250814   6.649   3.061  12.664  0.3675  0.0350 -0.3820
 9800TIP3    H150815   6.613   3.069  12.575  0.2600 -0.7011 -0.4054
 9800TIP3    H250816   6.686   3.147  12.682 -0.3650  0.4441 -0.8168
 9801TIP3   OH250817   6.319   4.570  14.873 -0.0163  0.7859 -0.2669
 9801TIP3    H150818   6.368   4.648  14.897 -0.6808  1.1946 -0.2264
 9801TIP3    H250819   6.386   4.502  14.861  0.7498  1.8881 -2.4176
 9802TIP3   OH250820   3.299   2.926   5.265 -0.1738  0.6083 -0.5355
 9802TIP3    H150821   3.272   2.863   5.331  0.7046  0.0529 -0.6962
 9802TIP3    H250822   3.291   3.011   5.308 -0.8957  0.3607 -0.1604
 9803TIP3   OH250823   0.185   4.405   6.761  0.1385  0.1529  0.3055
 9803TIP3    H150824   0.122   4.335   6.778 -0.4194  0.2979 -1.1014
 9803TIP3    H250825   0.269   4.360   6.754 -0.3773 -0.5461 -1.7463
 9804TIP3   OH250826   6.712   5.283   1.757 -0.3161 -1.0388  0.7602
 9804TIP3    H150827   6.803   5.298   1.782 -0.3455 -1.2346  0.9882
 9804TIP3    H250828   6.684   5.209   1.812  0.3592 -3.0948 -1.5761
 9805TIP3   OH250829   2.675   0.417  13.676 -0.0506  0.5226  0.0155
 9805TIP3    H150830   2.650   0.386  13.589  1.2780 -0.5141 -0.0105
 9805TIP3    H250831   2.768   0.397  13.682 -0.0197  1.0993  1.4720
 9806TIP3   OH250832   1.811   0.182   0.483  0.2481 -0.0097 -0.0986
 9806TIP3    H150833   1.817   0.192   0.388  0.4874 -0.1139 -0.0946
 9806TIP3    H250834   1.723   0.213   0.505 -0.5395 -1.8887 -0.5978
 9807TIP3   OH250835   1.793   3.086  14.823  0.0254  0.2171  0.5527
 9807TIP3    H150836   1.826   3.003  14.857 -0.8392 -0.1926  0.3925
 9807TIP3    H250837   1.711   3.100  14.870 -0.2911  0.5304 -0.0942
 9808TIP3   OH250838   5.117   2.554  11.533 -0.2578  0.1175 -0.4482
 9808TIP3    H150839   5.040   2.591  11.577 -1.4635 -0.5469 -1.9273
 9808TIP3    H250840   5.166   2.631  11.504 -0.6183  0.5528  0.0733
 9809TIP3   OH250841   3.241   1.240   2.507 -0.4381 -0.4608  0.3982
 9809TIP3    H150842   3.265   1.311   2.447 -1.6455  0.1229  0.6044
 9809TIP3    H250843   3.318   1.183   2.508 -0.2303 -0.2327 -1.3481
 9810TIP3   OH250844   3.605   1.498   6.254  0.5027  0.1631  0.1917
 9810TIP3    H150845   3.589   1.561   6.325  0.5426  0.9250 -0.4598
 9810TIP3    H250846   3.699   1.478   6.261  1.0069  1.9959 -1.0480
 9811TIP3   OH250847   5.158   0.307  13.243  0.5329  0.0603  0.1787
 9811TIP3    H150848   5.071   0.305  13.202  0.6906  0.6522 -0.1904
 9811TIP3    H250849   5.146   0.361  13.321  1.0291  1.9227 -0.9856
 9812TIP3   OH250850   3.754   4.793  14.818 -0.3688 -0.6540 -0.5972
 9812TIP3    H150851   3.832   4.745  14.790 -0.5799 -0.4432 -1.5420
 9812TIP3    H250852   3.789   4.864  14.872  0.0301 -1.0903 -0.2718
 9813TIP3   OH250853   5.426   0.461  11.189 -0.0960 -0.0956 -0.0528
 9813TIP3    H150854   5.359   0.446  11.122  1.4683  0.7878 -1.8512
 9813TIP3    H250855   5.490   0.518  11.147  0.6696  0.9216  2.3769
 9814TIP3   OH250856   1.417   2.002   6.455  0.3584  0.2984 -0.2570
 9814TIP3    H150857   1.329   1.964   6.454  0.3015  0.4386 -0.8567
 9814TIP3    H250858   1.417   2.059   6.532  0.0922 -0.0991  0.0372
 9815TIP3   OH250859   1.278   4.650  12.618 -0.3658 -0.3202 -0.3328
 9815TIP3    H150860   1.279   4.746  12.613 -0.0396 -0.2662  0.5832
 9815TIP3    H250861   1.188   4.625  12.597 -1.4596  0.4352  3.0611
 9816TIP3   OH250862   4.991   4.318   0.896  0.1147 -0.8406  0.7369
 9816TIP3    H150863   4.902   4.298   0.926  0.1291 -0.1900  1.2564
 9816TIP3    H250864   4.978   4.366   0.814  0.0205 -1.4913  0.3682
 9817TIP3   OH250865   3.751   0.006  11.352  0.2613  0.1450 -0.2827
 9817TIP3    H150866   3.688  -0.065  11.338  0.8564 -0.2988 -0.7441
 9817TIP3    H250867   3.799   0.013  11.270 -0.2321  1.5362 -0.4626
 9818TIP3   OH250868   6.758   2.230   2.534 -0.2793  0.1447 -0.5500
 9818TIP3    H150869   6.781   2.155   2.478 -1.0408  0.6569 -1.5580
 9818TIP3    H250870   6.756   2.305   2.475  1.2015  1.1019  0.5887
 9819TIP3   OH250871   1.528   6.114  14.434 -0.2911  0.4729  0.3949
 9819TIP3    H150872   1.536   6.148  14.346  1.5153 -0.5048  0.1352
 9819TIP3    H250873   1.445   6.067  14.435 -0.0904  0.0566 -0.9661
 9820TIP3   OH250874   5.589   4.308  15.410  0.5444 -0.3605  0.3388
 9820TIP3    H150875   5.549   4.391  15.383  0.9129 -0.8307 -1.8067
 9820TIP3    H250876   5.518   4.257  15.448 -0.1197  0.2002 -0.1352
 9821TIP3   OH250877   0.000   6.260   0.031  0.4749 -0.1574 -0.2153
 9821TIP3    H150878   0.044   6.224  -0.046  0.8882 -0.4501  0.1464
 9821TIP3    H250879   0.028   6.202   0.103 -0.3237 -0.2052  0.0627
 9822TIP3   OH250880   1.725   2.677   0.753 -0.0875  1.0495 -0.1248
 9822TIP3    H150881   1.790   2.626   0.802 -0.0477  0.5261 -0.7050
 9822TIP3    H250882   1.654   2.614   0.736  0.1096  1.0859 -1.1378
 9823TIP3   OH250883   1.524   1.651   3.920  0.3960 -0.1433 -0.9130
 9823TIP3    H150884   1.522   1.747   3.926  0.7897 -0.1944  0.0982
 9823TIP3    H250885   1.434   1.628   3.896 -0.4248  0.3325  1.5073
 9824TIP3   OH250886   4.565   2.471  15.854 -0.3297  0.0231 -0.2310
 9824TIP3    H150887   4.597   2.381  15.854 -0.2118  0.0650 -0.0721
 9824TIP3    H250888   4.517   2.479  15.771 -0.5200 -0.2476 -0.1496
 9825TIP3   OH250889   0.628   0.484   3.805 -0.7008  0.1746 -0.3901
 9825TIP3    H150890   0.541   0.450   3.827 -0.5457  0.3187  0.4853
 9825TIP3    H250891   0.689   0.417   3.837 -0.3753  1.4477  1.7568
 9826TIP3   OH250892   6.205   3.160   3.241 -0.2788 -0.0837  0.4200
 9826TIP3    H150893   6.234   3.238   3.194 -2.6954  1.6173  1.6726
 9826TIP3    H250894   6.139   3.120   3.184  2.5906 -2.6495 -1.3284
 9827TIP3   OH250895   2.026   0.642  12.211  0.2959  0.0049 -0.2433
 9827TIP3    H150896   2.086   0.681  12.275  0.7090 -0.4058 -0.3768
 9827TIP3    H250897   1.979   0.575  12.259  0.9773 -0.6605 -0.4903
 9828TIP3   OH250898   3.517   1.845   3.348  0.3584  0.7764  1.0159
 9828TIP3    H150899   3.594   1.831   3.404  0.0638 -1.4833  0.8988
 9828TIP3    H250900   3.443   1.838   3.408  0.1344  0.4677  0.7033
 9829TIP3   OH250901   4.308   1.210   4.023  0.5137 -0.1121 -0.6240
 9829TIP3    H150902   4.216   1.238   4.014 -0.3626 -1.7111  2.6680
 9829TIP3    H250903   4.317   1.139   3.960 -0.6058 -0.1125 -0.7962
 9830TIP3   OH250904   4.498   0.374  15.666  0.1771 -0.3104 -0.1119
 9830TIP3    H150905   4.559   0.437  15.628 -0.4401  0.6345  0.4473
 9830TIP3    H250906   4.538   0.289  15.649  1.1419  0.2443 -0.6562
 9831TIP3   OH250907   4.632   6.742   0.821 -0.5301 -0.1875  0.1395
 9831TIP3    H150908   4.650   6.769   0.731 -0.5467  0.6924  0.3900
 9831TIP3    H250909   4.701   6.679   0.843  1.4166  2.0446  0.6078
 9832TIP3   OH250910   0.710   0.596   0.174 -0.7709 -0.0594 -0.1836
 9832TIP3    H150911   0.729   0.530   0.241 -0.4486 -0.3290 -0.5379
 9832TIP3    H250912   0.734   0.679   0.215 -0.9158 -0.1881  0.1650
 9833TIP3   OH250913   0.563   2.815   4.942 -0.0347 -0.7871 -0.0138
 9833TIP3    H150914   0.609   2.868   5.009  0.5636 -1.4462  0.1035
 9833TIP3    H250915   0.507   2.878   4.897 -0.2412 -0.2798  0.9370
 9834TIP3   OH250916   3.981   3.111  16.493 -0.3313 -0.0279  0.3476
 9834TIP3    H150917   4.007   3.195  16.531 -1.2655 -0.0794  1.0992
 9834TIP3    H250918   3.889   3.101  16.516 -0.1072 -1.4897  0.6627
 9835TIP3   OH250919   5.284   3.626  12.599 -0.3275 -0.3095  0.1443
 9835TIP3    H150920   5.197   3.662  12.579  0.2921  1.2273  0.1573
 9835TIP3    H250921   5.326   3.618  12.514 -0.2161 -0.3799  0.2072
 9836TIP3   OH250922   5.258   1.312   3.111  0.1647 -0.9219  0.0081
 9836TIP3    H150923   5.267   1.231   3.061 -0.6861 -1.2576  0.3944
 9836TIP3    H250924   5.310   1.376   3.063  2.8412 -2.2846  0.9776
 9837TIP3   OH250925   4.880   5.665   4.915  0.0875  0.2204  0.0106
 9837TIP3    H150926   4.803   5.640   4.864  0.6260  2.9075 -2.2992
 9837TIP3    H250927   4.949   5.605   4.886 -0.2380  0.1807 -0.6955
 9838TIP3   OH250928   2.613   3.658   5.308  0.2353 -0.3455 -0.5623
 9838TIP3    H150929   2.558   3.684   5.233 -0.7089 -0.3242  0.1301
 9838TIP3    H250930   2.556   3.668   5.384  1.1257 -0.5886  0.1419
 9839TIP3   OH250931   1.325   0.638  12.613  0.1019 -0.3535 -0.6901
 9839TIP3    H150932   1.405   0.689  12.626 -0.3081 -0.0040  0.5916
 9839TIP3    H250933   1.264   0.673  12.678 -0.4368 -1.9740 -0.2957
 9840TIP3   OH250934   0.158   2.625  16.342  0.0336 -0.0602  0.4069
 9840TIP3    H150935   0.167   2.581  16.258 -1.6867 -0.7530  0.5571
 9840TIP3    H250936   0.175   2.557  16.407  0.5824  0.2800  0.6146
 9841TIP3   OH250937   5.223   0.743   5.755 -0.5859 -0.3371 -0.0968
 9841TIP3    H150938   5.158   0.803   5.790  0.1095  0.4187 -0.0669
 9841TIP3    H250939   5.290   0.737   5.824 -0.0849 -0.2355 -0.5712
 9842TIP3   OH250940   0.964   4.716   2.334  0.0905  0.2742 -0.3903
 9842TIP3    H150941   0.992   4.656   2.404 -0.9327 -0.3328 -0.4791
 9842TIP3    H250942   1.045   4.745   2.292  0.6168 -0.7524 -0.0974
 9843TIP3   OH250943   2.703   0.394   4.549 -0.5283 -0.3236 -0.3083
 9843TIP3    H150944   2.763   0.385   4.475 -0.2793  3.1614 -0.6204
 9843TIP3    H250945   2.651   0.471   4.528 -3.0452 -1.4889  1.4243
 9844TIP3   OH250946   1.310   5.890   0.019 -0.4419 -0.0454 -0.1878
 9844TIP3    H150947   1.342   5.823  -0.041  1.6222 -1.2738  2.1834
 9844TIP3    H250948   1.374   5.961   0.013 -0.7874  0.2673 -0.1885
 9845TIP3   OH250949   3.160   1.523  15.310 -0.2086  0.1770  0.5985
 9845TIP3    H150950   3.163   1.492  15.219  0.3053 -2.0547  1.3464
 9845TIP3    H250951   3.070   1.554  15.322 -0.2825  0.4900 -0.6665
 9846TIP3   OH250952   3.845   3.393   3.165  0.1217 -0.3343 -0.1150
 9846TIP3    H150953   3.820   3.431   3.081  2.0956 -0.7258 -0.9033
 9846TIP3    H250954   3.915   3.449   3.198 -1.6148  0.6671  1.9979
 9847TIP3   OH250955   2.559   6.355   4.523 -0.4799  0.5638 -0.3469
 9847TIP3    H150956   2.499   6.429   4.527 -0.0461  0.8944  0.1759
 9847TIP3    H250957   2.627   6.382   4.461  0.3796  1.1385  0.8270
 9848TIP3   OH250958   0.100   0.964   3.870 -0.0775 -0.0059  0.3698
 9848TIP3    H150959   0.029   0.993   3.813  0.1384 -1.5423 -0.6861
 9848TIP3    H250960   0.066   0.976   3.959 -2.2187 -2.0826 -0.1255
 9849TIP3   OH250961   1.187   4.008  13.509  0.0352  0.3839 -0.4641
 9849TIP3    H150962   1.238   3.971  13.580 -2.2756  0.0505  1.0685
 9849TIP3    H250963   1.187   4.102  13.525 -0.2209  0.3377 -0.1819
 9850TIP3   OH250964   4.805   3.848  14.496  0.4361 -0.3470 -0.4726
 9850TIP3    H150965   4.886   3.803  14.520  0.8714  0.5559 -0.2372
 9850TIP3    H250966   4.832   3.914  14.432  0.3706  1.8913  1.7059
 9851TIP3   OH250967   4.520   2.472  16.397 -0.1290  0.0154 -0.2797
 9851TIP3    H150968   4.564   2.406  16.343 -0.0225 -1.7001  1.8305
 9851TIP3    H250969   4.427   2.463  16.375 -0.0981 -0.7575 -0.0964
 9852TIP3   OH250970   1.561   2.167   1.958  0.0431 -0.3818  0.3732
 9852TIP3    H150971   1.588   2.103   1.892  0.3411  0.5968 -0.4535
 9852TIP3    H250972   1.487   2.212   1.919  1.1557  1.2347  0.0735
 9853TIP3   OH250973   5.444   3.675  14.728 -0.0284  0.1692 -0.1340
 9853TIP3    H150974   5.417   3.734  14.658  0.4715  0.9537  0.3308
 9853TIP3    H250975   5.485   3.602  14.683 -0.8803  0.0441 -0.7323
 9854TIP3   OH250976   3.007   1.499  10.519  0.5465 -0.6391 -0.3536
 9854TIP3    H150977   3.060   1.494  10.440  0.9122 -0.6028 -0.1102
 9854TIP3    H250978   2.976   1.590  10.521  0.0421 -0.7985 -0.7734
 9855TIP3   OH250979   0.437   2.423  13.086  0.0241  0.1144 -0.5089
 9855TIP3    H150980   0.527   2.440  13.058  0.4004 -0.1446  0.4899
 9855TIP3    H250981   0.417   2.337  13.051  0.4319 -0.1439 -0.1105
 9856TIP3   OH250982   1.581   2.010   5.563 -0.1142 -0.5090  0.5990
 9856TIP3    H150983   1.501   2.060   5.575  0.3417 -0.0357  1.6894
 9856TIP3    H250984   1.590   1.960   5.644  0.6695 -0.5949  0.4582
 9857TIP3   OH250985   6.236   5.534   3.718 -0.9281 -0.0607 -0.2594
 9857TIP3    H150986   6.185   5.523   3.637  0.4108  0.6517 -1.2270
 9857TIP3    H250987   6.318   5.487   3.701  0.3788  2.1408 -0.2927
 9858TIP3   OH250988   1.684   3.743   2.321  0.0823  0.3166  0.4339
 9858TIP3    H150989   1.702   3.672   2.383  0.2778 -0.7941 -0.8800
 9858TIP3    H250990   1.769   3.762   2.280 -0.4309 -0.3699 -0.9757
 9859TIP3   OH250991   1.443   6.190   1.552  0.3494 -1.2564  0.7735
 9859TIP3    H150992   1.414   6.142   1.629  0.4040  0.0371  1.6015
 9859TIP3    H250993   1.520   6.239   1.581 -0.5801  0.4985  0.3550
 9860TIP3   OH250994   5.670   6.042   0.836 -0.7282 -0.2070 -0.2229
 9860TIP3    H150995   5.624   5.969   0.795 -0.6690 -1.6305  2.1961
 9860TIP3    H250996   5.625   6.056   0.919  0.5935  1.1245  0.2952
 9861TIP3   OH250997   5.397   4.337   3.776  0.3384 -0.1993  0.1160
 9861TIP3    H150998   5.417   4.411   3.719  1.6193 -0.4081  0.2820
 9861TIP3    H250999   5.331   4.287   3.728 -1.5162  1.7441  0.5843
 9862TIP3   OH251000   4.893   0.883   4.509 -0.0520  0.1077  0.5782
 9862TIP3    H151001   4.969   0.847   4.463  0.1290 -0.2513  1.1509
 9862TIP3    H251002   4.818   0.840   4.468  0.1351 -0.5679  0.9241
 9863TIP3   OH251003   3.117   1.471  16.143  0.5974 -0.2854 -0.1271
 9863TIP3    H151004   3.090   1.404  16.080 -1.7367 -0.0492  0.5688
 9863TIP3    H251005   3.160   1.422  16.213  0.4784 -0.8688 -0.4585
 9864TIP3   OH251006   5.262   4.505  16.909 -0.4484 -0.1467  0.0448
 9864TIP3    H151007   5.184   4.544  16.870 -2.3028 -2.0514  1.6889
 9864TIP3    H251008   5.305   4.460  16.836 -1.7120 -0.3100 -0.6207
 9865TIP3   OH251009   3.361   1.472   4.821  0.0041  0.0040 -0.1252
 9865TIP3    H151010   3.332   1.563   4.819 -0.4359 -0.1048  1.3415
 9865TIP3    H251011   3.310   1.430   4.751 -0.7039  0.6028  0.0206
 9866TIP3   OH251012   0.171   1.635  12.442  0.7348  0.1398  0.4094
 9866TIP3    H151013   0.124   1.718  12.446  0.8560  0.2579 -0.6616
 9866TIP3    H251014   0.246   1.653  12.386  2.7334  0.2872  3.0474
 9867TIP3   OH251015   2.086   4.810  14.319 -0.2320 -0.5628 -0.1551
 9867TIP3    H151016   2.054   4.730  14.276 -2.4282 -0.7205  1.6497
 9867TIP3    H251017   2.033   4.816  14.399  1.3806  1.5691  0.7780
 9868TIP3   OH251018   2.242   4.598  11.825  0.0699  0.1957  0.1970
 9868TIP3    H151019   2.175   4.556  11.771  1.4416 -1.7286 -0.0445
 9868TIP3    H251020   2.273   4.671  11.770 -1.0974  0.4828 -0.1019
 9869TIP3   OH251021   3.894   6.615  17.173  0.5442 -0.2030 -0.1048
 9869TIP3    H151022   3.845   6.619  17.256  0.7342  0.3121 -0.0165
 9869TIP3    H251023   3.930   6.703  17.163  2.3568 -0.8670  0.3839
 9870TIP3   OH251024   4.635   1.684   6.003  0.2097 -0.3331  0.1272
 9870TIP3    H151025   4.723   1.679   6.040 -0.5811 -0.5647  2.0469
 9870TIP3    H251026   4.649   1.695   5.909  2.2990  3.2128  0.7791
 9871TIP3   OH251027   4.476   4.660  10.513  0.3161  0.5081  0.2279
 9871TIP3    H151028   4.406   4.609  10.553 -0.6211  0.8194 -1.0008
 9871TIP3    H251029   4.469   4.746  10.553  1.9101 -0.3045  2.3178
 9872TIP3   OH251030   2.160   3.976   6.344 -0.1416  0.4263  0.1949
 9872TIP3    H151031   2.073   3.963   6.380 -0.9486 -0.6765 -2.0492
 9872TIP3    H251032   2.216   3.916   6.394 -0.8701  0.2818  0.8530
 9873TIP3   OH251033   3.209   1.289  16.353  0.1238 -0.1566 -0.1500
 9873TIP3    H151034   3.177   1.301  16.443 -1.0325 -1.2001 -0.4163
 9873TIP3    H251035   3.174   1.204  16.326  1.1415 -0.2163 -1.3061
 9874TIP3   OH251036   4.549   2.037   5.313  0.4924 -0.6129  0.1034
 9874TIP3    H151037   4.476   1.997   5.360 -0.5790  0.4241 -0.6470
 9874TIP3    H251038   4.548   1.997   5.227  0.1476  0.1634 -0.2584
 9875TIP3   OH251039   5.603   5.084  16.992 -0.6981 -0.0449 -0.3304
 9875TIP3    H151040   5.695   5.082  16.965 -0.7554  0.3150 -0.5564
 9875TIP3    H251041   5.595   5.012  17.055 -0.1683  0.1661 -0.0187
 9876TIP3   OH251042   1.440   2.600   4.931  0.8900  0.3381  0.1279
 9876TIP3    H151043   1.381   2.525   4.932  0.0800  0.9693  2.4454
 9876TIP3    H251044   1.435   2.634   4.841 -1.0742 -0.5464 -0.1148
 9877TIP3   OH251045   6.751   1.282  13.533 -0.3133  0.6181 -0.2235
 9877TIP3    H151046   6.659   1.306  13.529 -0.3434  0.4077 -0.8639
 9877TIP3    H251047   6.784   1.297  13.444  0.9066  3.2254  0.5947
 9878TIP3   OH251048   2.041   1.669  15.654  0.1246 -0.5958  0.3199
 9878TIP3    H151049   1.964   1.613  15.656 -1.5666  1.6990  1.3325
 9878TIP3    H251050   2.090   1.645  15.732 -0.1765 -1.2182  0.3226
 9879TIP3   OH251051   0.816   0.122   0.843 -0.1575  0.5813  0.5453
 9879TIP3    H151052   0.806   0.217   0.850 -2.0097  0.4494  0.1706
 9879TIP3    H251053   0.894   0.102   0.894  1.0225  2.4580 -0.4640
 9880TIP3   OH251054   4.678   5.798  14.902  0.8523  0.4828  0.1563
 9880TIP3    H151055   4.697   5.862  14.833  0.2888  0.6509  0.1501
 9880TIP3    H251056   4.623   5.732  14.860  1.1939  0.1497  0.2361
 9881TIP3   OH251057   4.378   3.576  17.210  0.1608  0.6269  0.3384
 9881TIP3    H151058   4.429   3.629  17.271  0.5133  1.3682 -0.5740
 9881TIP3    H251059   4.442   3.519  17.168 -0.2361 -0.6016  1.3903
 9882TIP3   OH251060   5.497   3.829  14.938  0.1059  0.4439 -0.1224
 9882TIP3    H151061   5.586   3.850  14.907  0.0351 -0.3640 -0.8995
 9882TIP3    H251062   5.470   3.756  14.883  0.2163 -1.4745  2.2983
 9883TIP3   OH251063   0.681   6.624  14.975 -0.0840 -0.7380 -0.5055
 9883TIP3    H151064   0.634   6.541  14.977  0.2381 -0.9614 -2.1235
 9883TIP3    H251065   0.765   6.606  15.017  0.0116 -1.2379 -0.9184
 9884TIP3   OH251066   3.108   0.404   2.650 -0.6970  0.2153  0.9765
 9884TIP3    H151067   3.051   0.479   2.663  0.2635  1.2076 -0.4611
 9884TIP3    H251068   3.114   0.394   2.555  0.2807 -0.8319  1.1352
 9885TIP3   OH251069   5.583   5.860  14.276  0.6004  0.3580  0.1508
 9885TIP3    H151070   5.637   5.850  14.198  1.4307 -0.0383  0.7735
 9885TIP3    H251071   5.495   5.876  14.242  0.2947 -3.1235 -0.9047
 9886TIP3   OH251072   1.777   5.118   4.542 -0.1822 -0.2621  0.2099
 9886TIP3    H151073   1.866   5.098   4.515  0.3755  2.1096  0.1832
 9886TIP3    H251074   1.722   5.069   4.481  1.0978  0.3939 -1.5132
 9887TIP3   OH251075   0.633   3.462  13.834 -0.7713  0.3458 -0.4686
 9887TIP3    H151076   0.564   3.401  13.806 -1.3988  0.1962  1.3511
 9887TIP3    H251077   0.588   3.523  13.892  0.6720  0.1189  0.9088
 9888TIP3   OH251078   3.315   6.683  11.232 -0.0365 -0.2288 -0.4128
 9888TIP3    H151079   3.325   6.716  11.143  1.9478  0.8131  0.1708
 9888TIP3    H251080   3.400   6.643  11.253 -0.3269 -0.0410  1.1769
 9889TIP3   OH251081   0.599   6.733  12.391 -0.2172 -0.2650 -0.3981
 9889TIP3    H151082   0.684   6.776  12.401  0.5204 -0.8490 -3.6379
 9889TIP3    H251083   0.615   6.663  12.327 -2.9837 -0.8400 -0.5066
 9890TIP3   OH251084   6.352   5.308  10.807 -0.0562 -0.7429  0.1820
 9890TIP3    H151085   6.421   5.281  10.867  0.6782  0.0782 -0.2883
 9890TIP3    H251086   6.388   5.383  10.761 -1.4615  0.0180  0.3073
 9891TIP3   OH251087   6.771   3.147  11.830  0.2589  0.1193 -0.5445
 9891TIP3    H151088   6.718   3.191  11.896  0.7919  1.7801 -1.2047
 9891TIP3    H251089   6.837   3.212  11.805  0.1893 -0.5555 -2.5388
 9892TIP3   OH251090   6.303   5.745  14.800 -0.3923 -0.2152  0.9480
 9892TIP3    H151091   6.328   5.820  14.854  1.0352 -0.1811  0.2462
 9892TIP3    H251092   6.266   5.784  14.721  1.9621 -0.2083 -0.1852
 9893TIP3   OH251093   5.656   1.168  13.340  0.4681  0.1452 -0.4855
 9893TIP3    H151094   5.743   1.140  13.369 -0.3982 -1.7014  0.4926
 9893TIP3    H251095   5.624   1.095  13.286 -0.5321  0.7169 -0.6819
 9894TIP3   OH251096   4.127   3.490   6.147 -0.1457 -0.5650  0.0734
 9894TIP3    H151097   4.181   3.482   6.226  0.5222 -0.4825 -0.3699
 9894TIP3    H251098   4.118   3.585   6.134 -0.0506 -0.5775 -0.0871
 9895TIP3   OH251099   6.507   1.477  16.334  0.1235  0.0581 -0.0883
 9895TIP3    H151100   6.494   1.399  16.387 -0.6903  1.7221  2.2565
 9895TIP3    H251101   6.420   1.516  16.325 -0.0704 -1.0275 -4.1448
 9896TIP3   OH251102   3.684   2.157  13.895 -0.4395 -0.0316  0.1288
 9896TIP3    H151103   3.776   2.156  13.869 -1.2016 -0.3522 -2.6935
 9896TIP3    H251104   3.650   2.240  13.860 -1.0398  0.5013  1.9129
 9897TIP3   OH251105   1.668   3.318  14.078 -0.8216 -0.0921  0.0004
 9897TIP3    H151106   1.619   3.398  14.100  1.2445  0.6051  2.3273
 9897TIP3    H251107   1.747   3.323  14.132  0.8580 -2.1858 -2.1709
 9898TIP3   OH251108   0.257   6.543  15.972  0.1951 -0.1379  0.3098
 9898TIP3    H151109   0.183   6.507  15.923 -0.8235  1.1035  0.9103
 9898TIP3    H251110   0.242   6.513  16.062  1.0469 -0.8305  0.2324
 9899TIP3   OH251111   2.014   2.476   5.525 -0.1721  0.0918 -0.0380
 9899TIP3    H151112   2.098   2.464   5.571 -0.3863  0.3755  0.4359
 9899TIP3    H251113   1.999   2.571   5.530 -1.4443 -0.1722  1.5267
 9900TIP3   OH251114   0.154   2.485  17.033  0.4279 -0.6662  0.0585
 9900TIP3    H151115   0.107   2.466  17.115  1.4605  1.3615  1.1424
 9900TIP3    H251116   0.236   2.437  17.041 -0.0222 -1.5409 -0.4008
 9901TIP3   OH251117   2.323   4.928  12.112  0.0258 -0.1192 -0.3983
 9901TIP3    H151118   2.229   4.944  12.123 -0.1638 -0.0366 -2.0069
 9901TIP3    H251119   2.358   5.010  12.078  1.1854  0.7484  2.7000
 9902TIP3   OH251120   4.569   1.367   1.020 -0.1541 -0.2569  0.3555
 9902TIP3    H151121   4.620   1.319   1.085  0.2046 -0.0567  0.2236
 9902TIP3    H251122   4.534   1.299   0.962  2.1149 -0.2646 -1.1184
 9903TIP3   OH251123   2.868   1.335  16.625  0.0200  0.0191  0.1176
 9903TIP3    H151124   2.932   1.275  16.664 -0.4850 -0.7205 -0.1922
 9903TIP3    H251125   2.857   1.305  16.535 -0.2962  0.5274 -0.0186
 9904TIP3   OH251126   4.276   0.927  14.900  0.2000  0.7062 -1.0553
 9904TIP3    H151127   4.228   0.849  14.928  0.1873  1.3960  0.9970
 9904TIP3    H251128   4.364   0.896  14.879 -0.1311 -0.0241 -1.3750
 9905TIP3   OH251129   2.916   5.103  16.687  0.2140  0.3512 -0.4145
 9905TIP3    H151130   2.951   5.163  16.753  0.3299  1.2814 -1.3041
 9905TIP3    H251131   2.841   5.150  16.650 -0.5327 -0.6320 -0.1717
 9906TIP3   OH251132   5.641   2.629   5.517 -0.0898  0.2242  0.0140
 9906TIP3    H151133   5.587   2.594   5.588  1.3267  2.8421  2.4736
 9906TIP3    H251134   5.669   2.715   5.548  0.8843  1.2966 -3.5933
 9907TIP3   OH251135   6.739   0.950   2.211 -0.1107  0.4564  0.1192
 9907TIP3    H151136   6.669   0.892   2.183 -0.1807 -0.6323  2.4809
 9907TIP3    H251137   6.700   1.038   2.209 -1.1401 -0.0008  0.2027
 9908TIP3   OH251138   2.887   6.395  17.017 -0.0807  0.0486  0.0577
 9908TIP3    H151139   2.842   6.329  16.965 -1.0192 -0.8351  1.9653
 9908TIP3    H251140   2.917   6.349  17.095  1.7815  1.2369  0.0802
 9909TIP3   OH251141   5.106   2.132  16.637  0.2038 -0.3516  0.2153
 9909TIP3    H151142   5.136   2.065  16.576  1.9415 -1.6190  2.3971
 9909TIP3    H251143   5.182   2.190  16.648 -0.0669 -0.1978  1.2616
 9910TIP3   OH251144   3.856   4.242   5.667  0.2897 -0.3824 -0.1957
 9910TIP3    H151145   3.862   4.155   5.628 -0.2555 -1.3371  1.7866
 9910TIP3    H251146   3.945   4.263   5.693  0.6165  0.1587 -1.6969
 9911TIP3   OH251147   1.810   0.825   1.671  0.3228 -0.5518 -0.2197
 9911TIP3    H151148   1.827   0.919   1.677 -1.0531 -0.3889  1.3783
 9911TIP3    H251149   1.872   0.786   1.732  1.2718 -0.7626 -1.2832
 9912TIP3   OH251150   6.593   3.448  13.891  0.0531 -0.2972 -0.2043
 9912TIP3    H151151   6.589   3.489  13.978 -2.0183 -1.6230  0.3709
 9912TIP3    H251152   6.658   3.379  13.900  2.1589  1.5535 -0.6394
 9913TIP3   OH251153   3.616   6.757   1.035  0.4404  0.0285 -0.0423
 9913TIP3    H151154   3.606   6.692   1.104 -1.2795 -0.2498 -0.5347
 9913TIP3    H251155   3.707   6.785   1.042  0.6457 -0.9507  1.4793
 9914TIP3   OH251156   2.780   1.704   4.662  0.0804 -0.4808 -0.3085
 9914TIP3    H151157   2.733   1.623   4.680  2.4560 -1.6116  1.0275
 9914TIP3    H251158   2.802   1.700   4.569 -0.9493 -0.7285 -0.5456
 9915TIP3   OH251159   5.456   6.139  10.326  0.5397  0.4890  0.4227
 9915TIP3    H151160   5.527   6.191  10.362  0.9194  0.9701 -0.9689
 9915TIP3    H251161   5.459   6.157  10.232  0.4789 -1.8101 -0.0509
 9916TIP3   OH251162   6.251   1.588   4.846  0.1345  0.3703  0.0870
 9916TIP3    H151163   6.253   1.681   4.826  1.8015  0.3842  0.2664
 9916TIP3    H251164   6.301   1.547   4.775 -2.6456 -0.6857 -1.3840
 9917TIP3   OH251165   0.519   1.147  11.492  0.7533 -0.1608  0.9616
 9917TIP3    H151166   0.485   1.220  11.441 -0.4617 -0.8985  0.6795
 9917TIP3    H251167   0.562   1.187  11.567  1.7432  0.9045 -0.1555
 9918TIP3   OH251168   1.638   0.990  16.539 -0.2490  0.3539  0.0217
 9918TIP3    H151169   1.667   1.026  16.455  1.5908  1.7318  1.2008
 9918TIP3    H251170   1.606   1.066  16.588 -2.4542 -0.6211  0.1302
 9919TIP3   OH251171   2.426   4.251  16.644  0.0885  0.4682  0.2066
 9919TIP3    H151172   2.373   4.239  16.723  0.0285  0.3653  0.1517
 9919TIP3    H251173   2.484   4.324  16.665  0.9143 -0.3476  0.7784
 9920TIP3   OH251174   2.197   3.111   0.040  0.5122 -0.4525 -1.0194
 9920TIP3    H151175   2.262   3.094   0.107  0.2225 -0.7099 -0.8052
 9920TIP3    H251176   2.245   3.158  -0.029  0.4656  1.2409  0.0676
 9921TIP3   OH251177   1.689   1.633  13.649 -0.3390 -0.5791 -0.4393
 9921TIP3    H151178   1.764   1.607  13.597 -1.1713 -0.3805 -1.7657
 9921TIP3    H251179   1.658   1.552  13.690  0.9395 -0.5651  0.6166
 9922TIP3   OH251180   3.222   6.010   3.468 -0.6655 -0.2776 -0.3457
 9922TIP3    H151181   3.293   5.981   3.526 -0.0549  0.3312 -0.7823
 9922TIP3    H251182   3.148   5.955   3.493 -0.2547 -0.4145  0.6275
 9923TIP3   OH251183   3.660   4.132   5.026 -0.4539  0.2979  0.4860
 9923TIP3    H151184   3.660   4.036   5.028 -1.8358  0.1932 -2.7335
 9923TIP3    H251185   3.750   4.154   5.001 -0.7126 -0.2456 -0.9702
 9924TIP3   OH251186   1.166   6.682  16.781 -0.0091 -0.2359 -0.3434
 9924TIP3    H151187   1.231   6.657  16.715  0.1484 -4.9378  1.3898
 9924TIP3    H251188   1.089   6.629  16.759 -0.5412 -0.5556  2.1822
 9925TIP3   OH251189   4.945   6.557   5.695  0.4569 -0.0762  0.5070
 9925TIP3    H151190   4.930   6.641   5.738 -2.3142 -0.8000  1.0289
 9925TIP3    H251191   4.962   6.579   5.603  0.7859  1.0843  0.8322
 9926TIP3   OH251192   0.911   1.429   2.541  0.9117 -0.0193 -0.0788
 9926TIP3    H151193   0.867   1.514   2.549  1.9845  0.5252  0.0290
 9926TIP3    H251194   0.839   1.365   2.545 -0.0765  0.9396 -1.9570
 9927TIP3   OH251195   3.761   5.171   4.149 -0.0945 -0.8007 -0.1809
 9927TIP3    H151196   3.739   5.226   4.224 -1.4046 -1.2408 -0.2361
 9927TIP3    H251197   3.760   5.231   4.074  3.5723  0.1411  0.4327
 9928TIP3   OH251198   0.112   2.881  11.244 -0.2000  0.4858 -0.2716
 9928TIP3    H151199   0.144   2.805  11.293  1.0511  1.1465 -0.0459
 9928TIP3    H251200   0.158   2.876  11.160 -1.0330  0.3199 -0.7191
 9929TIP3   OH251201   5.820   2.274   2.982  0.0217  0.4239  0.2140
 9929TIP3    H151202   5.835   2.367   3.002 -0.5652  0.4274  0.6390
 9929TIP3    H251203   5.773   2.240   3.059 -0.1883 -0.1113 -0.1499
 9930TIP3   OH251204   0.033   4.153  12.887 -0.6490 -0.1049 -0.0687
 9930TIP3    H151205   0.102   4.149  12.954  0.1063  1.9554 -0.6988
 9930TIP3    H251206   0.078   4.181  12.808 -2.2448  1.5039 -0.4393
 9931TIP3   OH251207   2.108   2.216  11.413 -0.4341  0.7265 -0.5566
 9931TIP3    H151208   2.092   2.244  11.503 -1.3957 -0.9262 -0.1762
 9931TIP3    H251209   2.022   2.186  11.382  0.4535 -1.4581 -1.0096
 9932TIP3   OH251210   1.011   0.484  13.105  0.4747 -0.1260 -0.4462
 9932TIP3    H151211   0.944   0.452  13.165 -0.1894 -0.7158 -1.4909
 9932TIP3    H251212   0.996   0.436  13.023  0.6266  1.4886 -1.4535
 9933TIP3   OH251213   2.217   3.893  12.389  0.2233  0.0756 -0.1630
 9933TIP3    H151214   2.298   3.917  12.343 -0.7032 -0.2955 -2.0423
 9933TIP3    H251215   2.212   3.954  12.462  1.3140  1.2474 -1.0423
 9934TIP3   OH251216   0.190   3.913   3.942  0.4485  0.1474 -0.3329
 9934TIP3    H151217   0.124   3.862   3.895  0.5886 -0.6339  0.3053
 9934TIP3    H251218   0.165   4.004   3.928 -1.1496 -0.1595  0.4340
 9935TIP3   OH251219   5.353   0.591   5.217 -0.1444  0.4667 -0.3591
 9935TIP3    H151220   5.312   0.665   5.170  1.4938  1.2237 -0.6216
 9935TIP3    H251221   5.379   0.531   5.148 -3.7991 -1.6651 -0.0379
 9936TIP3   OH251222   0.337   5.788   4.303 -0.1023  0.3708  0.0795
 9936TIP3    H151223   0.256   5.836   4.316 -0.5606 -0.3509 -0.0864
 9936TIP3    H251224   0.336   5.719   4.370 -1.0718 -1.5197 -1.8290
 9937TIP3   OH251225   6.203   4.149   2.951 -0.6870 -0.1899 -0.0740
 9937TIP3    H151226   6.233   4.084   3.015 -0.4843  1.1146  1.1534
 9937TIP3    H251227   6.280   4.163   2.895 -0.0157  0.6889  1.0564
 9938TIP3   OH251228   1.440   6.388   3.656  0.1714 -0.1606  0.1689
 9938TIP3    H151229   1.520   6.347   3.690 -0.6385 -1.3111  0.7308
 9938TIP3    H251230   1.401   6.321   3.600  0.6204  1.1239 -1.7022
 9939TIP3   OH251231   5.663   5.597   3.937 -0.0097 -0.1835 -0.7561
 9939TIP3    H151232   5.685   5.595   3.844  0.5384 -0.6345 -0.6175
 9939TIP3    H251233   5.615   5.515   3.952  3.5033 -2.1313  0.2413
 9940TIP3   OH251234   4.128   3.551   1.181  0.1981  0.0333 -0.5573
 9940TIP3    H151235   4.200   3.490   1.198  0.3985  0.0092 -1.4815
 9940TIP3    H251236   4.149   3.590   1.096  0.0564  1.3875  0.0303
 9941TIP3   OH251237   5.976   1.921  11.534  0.3355  0.3539 -0.4364
 9941TIP3    H151238   5.988   1.995  11.475  0.7152  1.0741  0.5364
 9941TIP3    H251239   5.995   1.956  11.621 -1.7418 -0.3023  0.3134
 9942TIP3   OH251240   1.769   6.431   2.949  0.4377  0.1159 -0.2405
 9942TIP3    H151241   1.721   6.400   2.872  1.0964  0.7612 -0.9283
 9942TIP3    H251242   1.711   6.496   2.989  0.1408 -0.1368 -0.2609
 9943TIP3   OH251243   4.780   0.088  14.428 -0.3890 -0.7954  0.0320
 9943TIP3    H151244   4.842   0.161  14.417  0.9846 -1.9406  0.0093
 9943TIP3    H251245   4.700   0.130  14.458  0.7216  0.6276  1.1169
 9944TIP3   OH251246   4.270   4.347  16.695  0.4381 -0.0345  1.0723
 9944TIP3    H151247   4.267   4.428  16.746 -0.3536  0.1652  0.7138
 9944TIP3    H251248   4.302   4.281  16.758  0.6065  0.4478  1.5019
 9945TIP3   OH251249   2.134   3.066  10.935  0.1296  0.1840  0.5169
 9945TIP3    H151250   2.190   3.066  11.013 -1.2143 -0.5955  1.4786
 9945TIP3    H251251   2.103   3.156  10.928  0.0969  0.2087  0.9860
 9946TIP3   OH251252   5.181   0.230   3.185  0.8166  0.4571 -0.4530
 9946TIP3    H151253   5.212   0.184   3.263 -1.1007 -0.5175 -0.2285
 9946TIP3    H251254   5.160   0.160   3.122 -0.3413  1.0843 -0.7908
 9947TIP3   OH251255   4.952   5.213   3.396  0.1160 -0.3682  0.2616
 9947TIP3    H151256   4.880   5.261   3.357  0.8413  0.6969  0.2114
 9947TIP3    H251257   4.914   5.174   3.475 -0.6811 -0.3800 -0.1200
 9948TIP3   OH251258   0.058   0.606  15.423  0.1823 -0.4519 -0.2945
 9948TIP3    H151259   0.064   0.515  15.394 -0.9031 -0.1833 -1.4073
 9948TIP3    H251260  -0.004   0.647  15.362 -0.1018  0.7901  0.8018
 9949TIP3   OH251261   0.936   3.799  11.519 -0.4106 -0.1952 -0.5021
 9949TIP3    H151262   0.924   3.762  11.431  1.1804  1.5304 -1.4757
 9949TIP3    H251263   1.027   3.827  11.521 -0.0480 -1.4267  2.2023
 9950TIP3   OH251264   3.494   4.655   6.442 -0.3346 -0.3543  0.5057
 9950TIP3    H151265   3.482   4.639   6.349  2.0360  1.7402 -0.2195
 9950TIP3    H251266   3.419   4.709   6.467 -0.2908  0.1823 -0.4920
 9951TIP3   OH251267   1.886   3.417   3.536 -0.1733 -0.0343 -0.0920
 9951TIP3    H151268   1.798   3.404   3.572 -0.1119 -0.7974 -0.2073
 9951TIP3    H251269   1.944   3.384   3.604  0.0235  0.3486 -0.0733
 9952TIP3   OH251270   3.083   0.299   5.288 -0.2265 -0.0236 -0.4377
 9952TIP3    H151271   3.067   0.207   5.267  0.4833 -0.2787  0.0961
 9952TIP3    H251272   3.122   0.297   5.376  0.2628  0.7485 -0.6322
 9953TIP3   OH251273   2.143   6.385   5.091 -0.3423  0.7238 -0.5033
 9953TIP3    H151274   2.172   6.450   5.156  2.1382  0.7706 -1.6358
 9953TIP3    H251275   2.141   6.303   5.140  1.6593  0.7294 -0.3916
 9954TIP3   OH251276   3.996   0.836   4.410  0.1074  0.3976 -0.4009
 9954TIP3    H151277   3.975   0.762   4.353 -1.1410  0.6983 -0.3501
 9954TIP3    H251278   4.088   0.825   4.432  0.4460 -0.0401 -2.0120
 9955TIP3   OH251279   4.313   5.390  15.911  0.3929 -0.2503  0.4154
 9955TIP3    H151280   4.285   5.375  15.821  2.1487 -0.3050 -0.1476
 9955TIP3    H251281   4.343   5.305  15.941  3.5176  0.5141 -0.3171
 9956TIP3   OH251282   3.326   1.170   5.840  0.0148 -0.2780 -0.4854
 9956TIP3    H151283   3.405   1.202   5.884 -0.2145  0.8879 -0.9029
 9956TIP3    H251284   3.300   1.242   5.782 -0.5827 -1.1838 -1.3555
 9957TIP3   OH251285   0.541   1.728   0.617 -0.0550  0.0808  0.2163
 9957TIP3    H151286   0.612   1.780   0.655 -2.2138  3.7983 -0.6106
 9957TIP3    H251287   0.564   1.721   0.524 -0.2572  0.3395  0.1492
 9958TIP3   OH251288   2.980   3.950  12.215 -0.0853  0.4628  0.0164
 9958TIP3    H151289   2.978   3.854  12.214  0.4917  0.4536 -1.2889
 9958TIP3    H251290   2.897   3.976  12.174 -0.3029  0.5313  0.4925
 9959TIP3   OH251291   3.839   0.991  11.987  0.1869  0.2391 -0.3324
 9959TIP3    H151292   3.754   0.951  12.002  0.3716 -0.0482 -0.0362
 9959TIP3    H251293   3.902   0.922  12.007  0.5200  0.8214  0.6795
 9960TIP3   OH251294   5.412   6.165  17.093  0.1437  0.1417  0.1285
 9960TIP3    H151295   5.401   6.141  17.001 -1.1403  2.1173 -0.2709
 9960TIP3    H251296   5.359   6.101  17.141 -0.1724 -0.1384 -0.5913
 9961TIP3   OH251297   3.439   4.631   4.767  0.9374 -0.3663  0.3612
 9961TIP3    H151298   3.522   4.678   4.755  0.2290  1.0081  0.7491
 9961TIP3    H251299   3.372   4.692   4.736  0.0087 -1.2123  0.6705
 9962TIP3   OH251300   3.924   1.608   1.633 -0.2749 -0.2966 -0.7138
 9962TIP3    H151301   3.842   1.594   1.680 -0.7997  0.0669 -1.5089
 9962TIP3    H251302   3.901   1.596   1.541  0.1647  1.5857 -1.0828
 9963TIP3   OH251303   1.250   4.356  11.394 -0.1987  0.3879 -0.6662
 9963TIP3    H151304   1.181   4.313  11.445 -0.4879 -0.5710 -1.8680
 9963TIP3    H251305   1.291   4.417  11.456 -1.2811  0.0294  0.4056
 9964TIP3   OH251306   0.418   4.414  12.987 -0.2507 -0.5409  0.9535
 9964TIP3    H151307   0.423   4.374  12.900  0.6887  0.6013  0.4753
 9964TIP3    H251308   0.490   4.374  13.036 -0.1616 -0.4466  0.8987
 9965TIP3   OH251309   3.505   2.518   3.552  0.4642 -0.0783 -0.2222
 9965TIP3    H151310   3.511   2.450   3.485  1.2551 -1.1556  0.9332
 9965TIP3    H251311   3.567   2.586   3.524  1.2881 -0.8311 -0.2278
 9966TIP3   OH251312   3.446   1.658   2.484  0.2821 -0.0040  0.1761
 9966TIP3    H151313   3.515   1.723   2.471  0.8778 -0.4413  1.1581
 9966TIP3    H251314   3.479   1.600   2.552 -1.1150 -0.1340  0.7634
 9967TIP3   OH251315   5.122   4.565  11.233  0.2766  0.4817 -0.3848
 9967TIP3    H151316   5.176   4.561  11.154  0.8672  0.1912  0.0256
 9967TIP3    H251317   5.124   4.657  11.259  0.7543  0.4343 -0.2499
 9968TIP3   OH251318   6.472   2.743   3.978 -0.1164  0.6601  0.1878
 9968TIP3    H151319   6.437   2.715   4.063 -0.6337  0.1353 -0.1910
 9968TIP3    H251320   6.509   2.664   3.941  0.5944  1.0080  0.1545
 9969TIP3   OH251321   3.820   0.379  13.147  0.2923  0.0902 -0.3253
 9969TIP3    H151322   3.750   0.429  13.188 -0.1508 -0.6573 -0.1633
 9969TIP3    H251323   3.810   0.290  13.182  0.9135 -0.1697 -0.7970
 9970TIP3   OH251324   4.087   1.825  13.221 -0.7557 -0.4406  0.4249
 9970TIP3    H151325   4.069   1.885  13.149 -0.5483  0.1314  0.8495
 9970TIP3    H251326   4.155   1.766  13.187  1.8120  1.9421  1.2976
 9971TIP3   OH251327   5.297   4.957   0.007  0.7328 -0.2229 -0.0520
 9971TIP3    H151328   5.385   4.954  -0.032  0.4753  0.5440 -0.6983
 9971TIP3    H251329   5.245   5.008  -0.055  0.5929  1.9874  1.8155
 9972TIP3   OH251330   2.722   2.304   1.619 -0.4158  0.1200  0.0869
 9972TIP3    H151331   2.659   2.233   1.620  1.3975 -1.5281  0.3817
 9972TIP3    H251332   2.705   2.353   1.700 -0.6627 -0.9030  0.6550
 9973TIP3   OH251333   4.610   5.131  16.919  0.2201 -0.3830  0.4476
 9973TIP3    H151334   4.531   5.182  16.898 -0.1427 -0.5157  1.4704
 9973TIP3    H251335   4.681   5.178  16.875 -0.5027 -0.6016 -1.0081
 9974TIP3   OH251336   4.927   5.994   0.011  0.4196  0.5149  0.2094
 9974TIP3    H151337   4.886   6.008  -0.074  0.7720  1.3956  0.1784
 9974TIP3    H251338   4.855   6.000   0.074 -0.4485 -3.5536 -0.2567
 9975TIP3   OH251339   3.195   6.380  16.532 -0.3759 -0.0557  0.2089
 9975TIP3    H151340   3.116   6.435  16.535 -1.4197 -1.5223  0.4178
 9975TIP3    H251341   3.208   6.363  16.439  0.5071  1.3172  0.0740
 9976TIP3   OH251342   5.099   6.509   3.104  0.1203 -0.1030  0.1244
 9976TIP3    H151343   5.159   6.480   3.172 -0.0069 -0.0215  0.2738
 9976TIP3    H251344   5.045   6.576   3.147  0.5595  0.5223 -0.2717
 9977TIP3   OH251345   2.529   5.935   5.499 -0.0015 -0.6747 -0.1968
 9977TIP3    H151346   2.565   5.852   5.470 -1.6939 -1.4687 -0.0799
 9977TIP3    H251347   2.600   5.976   5.549  1.7633 -0.8087 -2.5144
 9978TIP3   OH251348   0.582   2.242  13.491  0.5987  0.2490 -0.2042
 9978TIP3    H151349   0.619   2.217  13.576  0.6709 -0.6431 -0.5034
 9978TIP3    H251350   0.508   2.183  13.478 -0.8768  1.9095  0.3231
 9979TIP3   OH251351   4.747   4.611  16.223  0.1073  0.0053 -0.1287
 9979TIP3    H151352   4.728   4.520  16.246  0.1897  0.5483  2.1216
 9979TIP3    H251353   4.679   4.662  16.267 -0.0698  1.0495 -1.5539
 9980TIP3   OH251354   0.790   2.039   1.247 -0.1018  0.5364 -0.5349
 9980TIP3    H151355   0.804   1.990   1.329  0.8552 -0.6189 -1.3781
 9980TIP3    H251356   0.698   2.025   1.226 -0.3816  0.9305  0.4002
 9981TIP3   OH251357   1.585   2.970  14.446 -0.2508 -0.5946 -0.0392
 9981TIP3    H151358   1.542   3.043  14.490  2.2768  0.7113  0.3734
 9981TIP3    H251359   1.590   2.997  14.354 -1.8178 -1.5149 -0.4202
 9982TIP3   OH251360   1.555   4.746  10.838 -0.0777  0.4768 -0.3492
 9982TIP3    H151361   1.549   4.801  10.760 -1.2087  2.2688  0.9751
 9982TIP3    H251362   1.466   4.745  10.874  0.2138 -1.1484  0.3745
 9983TIP3   OH251363   4.135   0.828  16.320  0.6783 -0.2327 -0.2327
 9983TIP3    H151364   4.180   0.907  16.351  0.4061 -0.4231  0.6619
 9983TIP3    H251365   4.127   0.773  16.398 -2.6283  0.5264  0.0169
 9984TIP3   OH251366   1.144   1.235  15.124  0.1618 -0.3067  0.4817
 9984TIP3    H151367   1.178   1.267  15.040  0.0437 -0.5373  0.3433
 9984TIP3    H251368   1.206   1.267  15.189  0.0334  0.2199  0.3463
 9985TIP3   OH251369   1.849   6.299   4.038  0.5739  0.5117 -0.3438
 9985TIP3    H151370   1.758   6.272   4.051  0.1432  2.7310  1.6085
 9985TIP3    H251371   1.851   6.331   3.948  0.0637 -1.8268 -1.2332
 9986TIP3   OH251372   6.659   6.693  16.848 -0.5722 -0.0427 -1.0507
 9986TIP3    H151373   6.566   6.683  16.828 -0.6570  0.8524 -1.1331
 9986TIP3    H251374   6.698   6.727  16.768  0.1822 -2.2115 -1.6374
 9987TIP3   OH251375   6.730   3.261   3.067 -0.2668  0.3311  0.5857
 9987TIP3    H151376   6.683   3.333   3.023 -0.7715 -0.2283  0.2095
 9987TIP3    H251377   6.701   3.267   3.158 -1.9112 -0.6747  0.1501
 9988TIP3   OH251378   3.153   3.687   1.478 -0.4381  0.1399 -0.1073
 9988TIP3    H151379   3.162   3.725   1.391  0.8581 -0.0416 -0.0565
 9988TIP3    H251380   3.227   3.627   1.486  0.9292  2.0183  2.0911
 9989TIP3   OH251381   1.259   6.608   0.295  0.4960 -0.3663 -0.2194
 9989TIP3    H151382   1.201   6.545   0.337  0.8309  0.1726  1.0752
 9989TIP3    H251383   1.210   6.640   0.219  0.1422 -1.8140 -0.6019
 9990TIP3   OH251384   3.703   0.823  14.057 -0.0947 -0.0856  0.1820
 9990TIP3    H151385   3.635   0.879  14.020  0.0928  0.0887  0.1016
 9990TIP3    H251386   3.744   0.782  13.981 -0.0442 -0.1161  0.2266
 9991TIP3   OH251387   0.711   4.644   4.325  0.4403 -0.4384  0.1800
 9991TIP3    H151388   0.712   4.628   4.420  0.8403 -2.2611 -0.1093
 9991TIP3    H251389   0.697   4.558   4.287  0.8927  0.1959 -1.4431
 9992TIP3   OH251390   0.605   3.155   1.589  1.2046 -0.0441 -0.5109
 9992TIP3    H151391   0.590   3.113   1.505 -0.9387  0.4846 -0.4097
 9992TIP3    H251392   0.537   3.121   1.647  0.2840  2.4336 -0.0494
 9993TIP3   OH251393   2.751   2.688   5.082 -0.2922 -0.8036  0.1433
 9993TIP3    H151394   2.807   2.698   5.159 -0.8004 -1.0825  0.5615
 9993TIP3    H251395   2.769   2.765   5.028 -1.3014  0.3838  1.4436
 9994TIP3   OH251396   4.257   4.221  13.404 -0.1729  0.1589 -0.3898
 9994TIP3    H151397   4.346   4.229  13.369  0.3807  0.1560  0.9890
 9994TIP3    H251398   4.230   4.311  13.422  0.2867  0.0282  0.9840
 9995TIP3   OH251399   1.981   1.147  14.024 -0.2621  0.3046 -0.6835
 9995TIP3    H151400   1.903   1.131  14.076 -0.6875 -0.3072 -1.4931
 9995TIP3    H251401   1.981   1.077  13.958 -0.0128  1.3590 -1.8208
 9996TIP3   OH251402   6.158   1.293   4.649  0.1968  0.1678 -0.2804
 9996TIP3    H151403   6.182   1.215   4.599  0.7822  0.2158 -0.0846
 9996TIP3    H251404   6.063   1.293   4.650  0.1941 -0.5936 -0.2114
 9997TIP3   OH251405   2.773   4.757   0.413  0.1586  0.3196 -0.3600
 9997TIP3    H151406   2.857   4.711   0.421 -0.0505  0.1035  0.6016
 9997TIP3    H251407   2.794   4.834   0.360  0.8340 -0.0625 -0.6616
 9998TIP3   OH251408   3.874   4.453  16.464  0.0164 -0.6865  1.3482
 9998TIP3    H151409   3.846   4.389  16.398 -1.3714  0.1389  1.1150
 9998TIP3    H251410   3.825   4.427  16.543 -1.9885  1.1667  0.7643
 9999TIP3   OH251411   2.863   2.281   0.718 -0.6203  0.5633 -0.9396
 9999TIP3    H151412   2.937   2.252   0.665 -0.1424 -1.4567  0.7555
 9999TIP3    H251413   2.788   2.234   0.682 -0.1175 -1.6594  0.7638
10000TIP3   OH251414   2.422   5.575   0.468  0.0672 -0.0957  0.0751
10000TIP3    H151415   2.420   5.647   0.532  0.7296  0.0664 -0.0802
10000TIP3    H251416   2.413   5.618   0.383  0.1755 -0.2195  0.0004
10001TIP3   OH251417   1.078   2.561  15.643 -0.1700  0.3041  0.4116
10001TIP3    H151418   1.081   2.622  15.569  1.6251  1.2887  1.2539
10001TIP3    H251419   1.148   2.498  15.625  0.3440  0.6071  1.2816
10002TIP3   OH251420   2.215   4.349   6.884 -0.4383  0.0756 -0.2569
10002TIP3    H151421   2.239   4.408   6.813 -2.3233  0.1092 -0.8865
10002TIP3    H251422   2.292   4.293   6.895  0.7134  1.5032 -0.8150
10003TIP3   OH251423   0.388   2.874  16.205 -0.6812  0.3555  0.0065
10003TIP3    H151424   0.459   2.909  16.151 -3.3947  1.0901 -3.2520
10003TIP3    H251425   0.419   2.788  16.233  0.7824 -0.0969 -2.8589
10004TIP3   OH251426   2.689   1.730   5.267 -0.0652 -0.2451 -0.2089
10004TIP3    H151427   2.678   1.736   5.362 -0.3125  0.0865 -0.2553
10004TIP3    H251428   2.634   1.801   5.232  0.4079 -0.0515 -0.5749
10005TIP3   OH251429   1.410   6.074   1.824  0.6453 -0.2082  0.0205
10005TIP3    H151430   1.431   5.996   1.876 -0.9107  0.6163  1.9685
10005TIP3    H251431   1.396   6.143   1.889 -1.4986  0.8312 -1.4906
10006TIP3   OH251432   3.397   3.627   2.479 -0.1743 -0.4272  0.1954
10006TIP3    H151433   3.324   3.689   2.479 -0.6261 -0.9435  1.3513
10006TIP3    H251434   3.444   3.644   2.560 -0.7798 -2.1369  0.9335
10007TIP3   OH251435   1.153   2.321  13.520 -0.7351  0.1907 -0.0053
10007TIP3    H151436   1.153   2.252  13.454 -0.7951  0.1172  0.0715
10007TIP3    H251437   1.234   2.370  13.503 -2.3679  2.2019 -2.2239
10008TIP3   OH251438   4.802   2.477   1.145 -0.1925  0.4632  0.4128
10008TIP3    H151439   4.861   2.552   1.143  1.0077 -0.4727 -0.3512
10008TIP3    H251440   4.826   2.429   1.225 -0.0315  0.1686  0.1886
10009TIP3   OH251441   2.701   4.893   1.041  0.3363 -0.1500 -0.3697
10009TIP3    H151442   2.791   4.881   1.013  1.0117  1.9666  0.8286
10009TIP3    H251443   2.659   4.940   0.969  1.0054  1.5985  0.3535
10010TIP3   OH251444   4.743   2.411  14.381 -0.2444  0.3647 -0.1178
10010TIP3    H151445   4.709   2.452  14.461 -1.5756  0.2306 -0.6044
10010TIP3    H251446   4.678   2.432  14.314  0.6397  0.0977 -1.0713
10011TIP3   OH251447   5.062   6.678  10.710  0.2010  0.7531  0.0231
10011TIP3    H151448   5.141   6.727  10.684  2.4352 -2.0202  1.3684
10011TIP3    H251449   5.053   6.611  10.643 -0.9247  0.9542 -0.0240
10012TIP3   OH251450   6.043   3.344  11.277  0.2072 -0.4621 -0.1327
10012TIP3    H151451   6.014   3.256  11.252 -1.6509  0.4202 -1.2420
10012TIP3    H251452   6.002   3.401  11.212  1.1322  1.2444  0.7680
10013TIP3   OH251453   6.603   0.023   3.503  0.7472  0.1571 -0.0411
10013TIP3    H151454   6.680   0.047   3.554  0.9583  1.4710 -0.9431
10013TIP3    H251455   6.547   0.100   3.505 -0.4899 -0.7393  0.4852
10014TIP3   OH251456   5.242   4.398   4.840 -0.5665  0.1718  0.2373
10014TIP3    H151457   5.149   4.398   4.863 -0.5793  1.5707  0.2330
10014TIP3    H251458   5.256   4.482   4.795  0.2749 -0.8668 -1.5127
10015TIP3   OH251459   6.058   3.217  16.984  0.9323 -0.7614 -0.1040
10015TIP3    H151460   6.017   3.202  17.069  1.0247 -0.9998 -0.0991
10015TIP3    H251461   5.989   3.200  16.920  0.7037 -0.0099 -0.0556
10016TIP3   OH251462   1.797   4.082   0.179 -0.2575  0.1458 -0.2057
10016TIP3    H151463   1.891   4.091   0.194 -0.1170 -1.0455 -0.3432
10016TIP3    H251464   1.790   4.018   0.108 -1.1134  1.5145 -1.3907
10017TIP3   OH251465   6.152   3.415  14.516  1.0095 -0.2501  0.1105
10017TIP3    H151466   6.173   3.338  14.569  3.7124  0.5116  0.2349
10017TIP3    H251467   6.195   3.398  14.432 -2.3791 -0.9885 -1.5369
10018TIP3   OH251468   4.510   3.593  11.004 -0.3123 -0.6315 -0.6084
10018TIP3    H151469   4.536   3.572  11.094 -2.1711 -0.6010 -0.0509
10018TIP3    H251470   4.497   3.688  11.005  0.7542 -0.4673 -1.2161
10019TIP3   OH251471   2.224   0.548  15.854 -0.6730 -0.3459 -0.0820
10019TIP3    H151472   2.216   0.616  15.920 -2.6835 -0.6381  0.0194
10019TIP3    H251473   2.190   0.589  15.774  1.6621 -0.0178 -0.9321
10020TIP3   OH251474   4.780   3.150   3.362 -0.1323 -0.0276  0.1109
10020TIP3    H151475   4.740   3.079   3.412  1.0846 -1.2549 -0.6068
10020TIP3    H251476   4.828   3.105   3.291  0.3535  1.5278 -0.5671
10021TIP3   OH251477   3.109   0.745  14.658  0.5105  0.0837  0.0802
10021TIP3    H151478   3.060   0.678  14.705  0.6714  0.2946  0.5557
10021TIP3    H251479   3.194   0.706  14.640 -0.2212 -0.7044 -1.7784
10022TIP3   OH251480   0.948   1.127  15.628  0.1804 -0.3298  0.3043
10022TIP3    H151481   0.959   1.214  15.666  1.7156 -0.3197 -0.1495
10022TIP3    H251482   0.855   1.106  15.642 -0.0486  1.1100  0.9694
10023TIP3   OH251483   6.344   2.814   1.971 -0.1102  0.6765  0.3489
10023TIP3    H151484   6.335   2.761   1.891 -1.9239  2.0438 -0.4157
10023TIP3    H251485   6.332   2.752   2.043 -1.5529 -0.0678 -0.5124
10024TIP3   OH251486   1.947   4.236  12.853 -0.3631 -0.3313 -0.4100
10024TIP3    H151487   1.995   4.189  12.922  1.2191 -1.2009 -2.0448
10024TIP3    H251488   1.940   4.172  12.782 -3.7877 -0.1281 -0.3192
10025TIP3   OH251489   5.408   3.761   4.307  0.5468 -0.7672 -0.2236
10025TIP3    H151490   5.340   3.718   4.358  0.8218  1.1702  1.8249
10025TIP3    H251491   5.488   3.747   4.357  1.0120  0.1901 -0.6961
10026TIP3   OH251492   3.711   4.612  10.996  0.0263 -0.4134  0.1710
10026TIP3    H151493   3.664   4.548  10.942  1.5096 -1.3502 -0.0380
10026TIP3    H251494   3.799   4.616  10.958  0.2724  0.9798  0.8289
10027TIP3   OH251495   1.349   4.286   3.267 -0.0770 -0.0274 -0.6039
10027TIP3    H151496   1.433   4.251   3.299 -0.0164  2.2867  1.9336
10027TIP3    H251497   1.341   4.250   3.179  3.3633 -0.7106 -0.7396
10028TIP3   OH251498   6.250   0.368   5.147 -0.6373  0.7747 -0.0724
10028TIP3    H151499   6.280   0.314   5.220 -1.0313 -0.4409 -0.7955
10028TIP3    H251500   6.188   0.429   5.187 -0.8426  0.1246  0.6176
10029TIP3   OH251501   5.866   6.410   3.731  0.3162  0.9892 -0.2931
10029TIP3    H151502   5.904   6.323   3.718  2.9537  2.0736 -0.2448
10029TIP3    H251503   5.811   6.425   3.654 -0.3460 -0.7976 -0.1853
10030TIP3   OH251504   5.200   3.345   2.301  0.2436  0.3169  0.0185
10030TIP3    H151505   5.196   3.343   2.205 -1.6245 -0.9379  0.1027
10030TIP3    H251506   5.276   3.292   2.323 -0.1020 -0.4860 -0.7304
10031TIP3   OH251507   5.906   0.375  12.546 -0.2186 -0.0312  0.4899
10031TIP3    H151508   5.830   0.332  12.507 -0.6225 -1.0278  2.3184
10031TIP3    H251509   5.869   0.441  12.604  0.3677  1.1488 -0.4575
10032TIP3   OH251510   2.052   1.861   4.302  0.7746 -0.4187  0.5676
10032TIP3    H151511   1.986   1.793   4.315 -0.7102  0.8937  0.1639
10032TIP3    H251512   2.105   1.859   4.381 -0.2011 -1.0524  1.2161
10033TIP3   OH251513   4.427   6.686  13.591 -0.4215 -0.0066  0.0000
10033TIP3    H151514   4.477   6.609  13.565  0.1076 -0.7696  3.0717
10033TIP3    H251515   4.336   6.656  13.594 -0.1178 -0.7721  2.0153
10034TIP3   OH251516   6.372   6.658  11.661  0.4103  0.2679  0.1904
10034TIP3    H151517   6.434   6.623  11.597 -0.0088  1.6965 -1.0337
10034TIP3    H251518   6.418   6.730  11.703  0.6056 -0.5270  1.3707
10035TIP3   OH251519   3.612   3.516  14.597 -0.1759 -0.0915 -0.2978
10035TIP3    H151520   3.525   3.476  14.595 -0.5622  0.7342 -0.1364
10035TIP3    H251521   3.623   3.555  14.510  1.2756 -2.8021 -1.3654
10036TIP3   OH251522   6.679   5.630  15.535 -0.3881  0.2791 -0.4160
10036TIP3    H151523   6.678   5.535  15.550  1.9541  0.6516  2.7049
10036TIP3    H251524   6.717   5.640  15.448  0.8996 -1.6546 -0.1175
10037TIP3   OH251525   1.153   1.474  16.419 -0.3982 -0.0420 -0.0299
10037TIP3    H151526   1.082   1.535  16.441  0.6532  1.4247 -0.6862
10037TIP3    H251527   1.114   1.415  16.354 -1.3445  0.0783  0.4198
10038TIP3   OH251528   4.718   0.119  16.736 -0.4252  0.2402  0.6328
10038TIP3    H151529   4.717   0.171  16.816 -1.0311  2.1221 -0.5835
10038TIP3    H251530   4.628   0.125  16.702  0.4921  1.8315 -1.6750
10039TIP3   OH251531   0.700   5.409  12.386 -0.2741 -0.8364 -0.1832
10039TIP3    H151532   0.685   5.426  12.293 -1.1221 -2.8425 -0.4373
10039TIP3    H251533   0.795   5.404  12.395 -0.1269  0.8745 -0.6407
10040TIP3   OH251534   0.594   4.618   1.463  0.3408  0.1791 -0.0946
10040TIP3    H151535   0.660   4.635   1.396  1.2283  1.8690  1.1511
10040TIP3    H251536   0.510   4.627   1.417  0.9514  0.0973 -1.2325
10041TIP3   OH251537   3.282   6.124  15.940 -0.6945  0.3812 -0.2931
10041TIP3    H151538   3.282   6.030  15.961  0.0842 -0.0647 -2.2203
10041TIP3    H251539   3.338   6.163  16.008 -0.2241 -0.6893 -0.0489
10042TIP3   OH251540   0.831   0.361   5.426  0.0433 -0.1500  0.2319
10042TIP3    H151541   0.774   0.382   5.352 -1.0288  0.4861  1.2359
10042TIP3    H251542   0.809   0.424   5.493  0.3323 -1.3273  1.4614
10043TIP3   OH251543   4.412   0.728  11.299 -0.1588  0.4812  0.1902
10043TIP3    H151544   4.400   0.643  11.256  1.2313 -0.2158  1.1417
10043TIP3    H251545   4.324   0.761  11.314 -0.7031 -0.9279  0.0789
10044TIP3   OH251546   1.431   3.077  15.417 -0.4503 -0.2026  0.4743
10044TIP3    H151547   1.402   3.119  15.336 -0.5665 -1.2337 -0.0292
10044TIP3    H251548   1.405   3.138  15.486  0.3553  1.0725 -0.2996
10045TIP3   OH251549   6.163   1.805  12.109  0.2362  0.5096 -0.4793
10045TIP3    H151550   6.173   1.741  12.038 -0.8951  0.8692 -0.9678
10045TIP3    H251551   6.211   1.882  12.078 -1.3986  1.1493 -1.4726
10046TIP3   OH251552   2.706   2.502   1.822 -0.1907  0.0720  0.5393
10046TIP3    H151553   2.628   2.556   1.817 -0.3936 -0.3500 -1.0812
10046TIP3    H251554   2.704   2.465   1.910 -0.3366  2.2416  1.4566
10047TIP3   OH251555   1.319   0.223  11.378 -0.0291 -0.0857  0.4076
10047TIP3    H151556   1.327   0.268  11.294 -0.7743  0.9787  0.8876
10047TIP3    H251557   1.408   0.195  11.399  0.7048  2.4251  0.7739
10048TIP3   OH251558   6.717   0.956  16.089  0.0036  0.2529  0.1304
10048TIP3    H151559   6.678   1.040  16.113 -2.6095 -0.3872 -1.6116
10048TIP3    H251560   6.676   0.893  16.148  0.1220 -0.1152 -0.1801
10049TIP3   OH251561   1.640   6.012   6.567 -0.3355  0.2369  0.1135
10049TIP3    H151562   1.624   5.938   6.509 -0.9698  0.1455  0.3995
10049TIP3    H251563   1.563   6.016   6.623  1.6461 -1.5987  3.0654
10050TIP3   OH251564   2.550   0.907  11.354 -0.0158  0.4333  0.3142
10050TIP3    H151565   2.635   0.894  11.396 -0.1788 -1.1208  0.1821
10050TIP3    H251566   2.487   0.870  11.416 -0.6312  1.7850  0.5139
10051TIP3   OH251567   6.415   5.583  11.377  0.4018 -0.5260  0.0652
10051TIP3    H151568   6.370   5.514  11.328  1.3561 -1.0245 -0.1345
10051TIP3    H251569   6.427   5.653  11.313  3.4883 -1.9802 -1.0721
10052TIP3   OH251570   5.998   3.394   2.965 -0.4165  0.1100 -0.3342
10052TIP3    H151571   5.904   3.397   2.948 -0.2108 -1.7423 -1.9572
10052TIP3    H251572   6.037   3.371   2.881  1.3128 -1.0834  0.7532
10053TIP3   OH251573   1.867   6.562   4.159  0.7344  0.0842  0.3176
10053TIP3    H151574   1.902   6.535   4.244 -1.8219 -1.2166  0.9700
10053TIP3    H251575   1.849   6.481   4.113 -4.5380  0.5237  1.2974
10054TIP3   OH251576   3.511   5.597  13.707 -0.1348  0.3696  0.7688
10054TIP3    H151577   3.599   5.589  13.670 -0.3056  3.1465 -0.4158
10054TIP3    H251578   3.516   5.673  13.765 -1.5858  0.1714  1.1862
10055TIP3   OH251579   1.779   1.548   5.015 -0.5949 -0.5450  0.1057
10055TIP3    H151580   1.714   1.493   5.059 -0.6043 -0.7478 -0.1578
10055TIP3    H251581   1.750   1.551   4.924  1.1137 -2.6742 -0.5445
10056TIP3   OH251582   3.776   5.332  10.757  0.2617 -0.7848  0.4295
10056TIP3    H151583   3.780   5.420  10.796  0.6780 -1.0875  1.0900
10056TIP3    H251584   3.686   5.323  10.727 -0.1334 -0.6341  1.5565
10057TIP3   OH251585   4.685   2.887   3.384 -0.3128 -0.1725 -0.1602
10057TIP3    H151586   4.730   2.807   3.356  1.1305  0.6505 -0.1804
10057TIP3    H251587   4.594   2.873   3.356 -0.3036 -2.2274  0.6774
10058TIP3   OH251588   4.758   0.498  11.746 -0.6151  0.4515  0.7701
10058TIP3    H151589   4.698   0.520  11.817 -1.6474  1.8334 -0.5112
10058TIP3    H251590   4.806   0.579  11.729 -0.8264  0.3123 -0.5369
10059TIP3   OH251591   3.261   6.424   0.899  0.0750  0.1563  0.6681
10059TIP3    H151592   3.274   6.514   0.871  1.0329  0.6392  2.5864
10059TIP3    H251593   3.349   6.385   0.895 -0.4025 -0.8449 -0.6033
10060TIP3   OH251594   1.518   1.460  11.561 -0.1568  0.0487 -0.0709
10060TIP3    H151595   1.488   1.427  11.646 -3.6461  0.5524 -1.0190
10060TIP3    H251596   1.461   1.417  11.498  1.7628  0.4404 -2.1036
10061TIP3   OH251597   1.491   5.302  13.501 -0.2954  0.0163 -0.6155
10061TIP3    H151598   1.408   5.267  13.534  1.4351 -2.2842  1.5086
10061TIP3    H251599   1.478   5.397  13.498 -2.2007 -0.1108  2.0065
10062TIP3   OH251600   0.428   1.261  13.621 -0.1776 -0.0102 -0.0491
10062TIP3    H151601   0.522   1.247  13.610 -0.6230 -2.4423 -1.1619
10062TIP3    H251602   0.412   1.348  13.583  1.2815 -0.5270 -1.9248
10063TIP3   OH251603   1.826   4.488   1.760  0.0456  0.7476 -0.2931
10063TIP3    H151604   1.775   4.551   1.711  0.5794  1.2524 -0.2020
10063TIP3    H251605   1.799   4.403   1.725 -2.9205  0.7962  1.6683
10064TIP3   OH251606   4.275   2.608   3.470  0.3712 -0.2608  0.4673
10064TIP3    H151607   4.213   2.586   3.400  0.8595  1.1491 -0.4457
10064TIP3    H251608   4.295   2.525   3.512 -1.2378 -0.8943  0.0083
10065TIP3   OH251609   4.098   2.449   0.459  0.5919  0.6785  0.2692
10065TIP3    H151610   4.123   2.428   0.549 -0.8518 -0.1116  0.5065
10065TIP3    H251611   4.122   2.541   0.448  1.2178  0.6470  1.2998
10066TIP3   OH251612   4.033   2.527  11.089  0.0826 -0.3616 -0.0680
10066TIP3    H151613   4.077   2.569  11.014  0.0682 -0.3491 -0.0688
10066TIP3    H251614   3.947   2.503  11.055 -0.6790  1.4564  0.5296
10067TIP3   OH251615   4.365   0.572  13.226  0.0820 -0.1768 -0.4200
10067TIP3    H151616   4.359   0.487  13.270  1.4072 -0.5269 -0.8876
10067TIP3    H251617   4.286   0.577  13.172 -0.9622 -0.2630  1.0790
10068TIP3   OH251618   0.026   4.225  11.700  0.5515  0.5467 -0.0829
10068TIP3    H151619  -0.027   4.302  11.678  0.4596  0.1502 -1.3257
10068TIP3    H251620   0.104   4.261  11.742  0.5165  1.3332 -0.6647
10069TIP3   OH251621   3.271   5.114   6.385  0.1072  0.1880  1.0394
10069TIP3    H151622   3.360   5.110   6.419  0.8108  1.0881 -0.6278
10069TIP3    H251623   3.254   5.207   6.372 -0.7912 -0.0246  0.6058
10070TIP3   OH251624   0.399   4.801  11.973  0.2720  0.2946  0.0196
10070TIP3    H151625   0.424   4.728  12.029  0.2059 -0.0109 -0.3503
10070TIP3    H251626   0.463   4.800  11.902  0.8712  1.2047  0.5404
10071TIP3   OH251627   0.035   0.635  15.747  0.6111 -0.1202  0.4578
10071TIP3    H151628  -0.052   0.659  15.715  0.0761 -1.1340  1.1398
10071TIP3    H251629   0.064   0.711  15.797  0.7322  0.7911 -0.9769
10072TIP3   OH251630   2.954   3.782   3.651  0.0208 -0.1198  1.2929
10072TIP3    H151631   3.011   3.763   3.725  1.1607 -2.8854 -0.1940
10072TIP3    H251632   2.865   3.780   3.687  0.6536  0.5690  2.9359
10073TIP3   OH251633   6.405   2.187  16.520 -0.0928  0.2675  0.3834
10073TIP3    H151634   6.426   2.230  16.437 -0.4173 -2.7292 -1.2896
10073TIP3    H251635   6.314   2.161  16.511 -0.1738  0.0411  1.7702
10074TIP3   OH251636   0.792   2.685   5.228  0.1776  0.1277  0.3127
10074TIP3    H151637   0.833   2.627   5.164 -0.8573 -0.8902  0.5580
10074TIP3    H251638   0.844   2.675   5.307  0.3325 -0.0381  0.1891
10075TIP3   OH251639   0.064   3.139  13.528  0.5073  0.2825  0.6157
10075TIP3    H151640   0.129   3.121  13.596  0.5864  0.6876  0.6521
10075TIP3    H251641  -0.020   3.129  13.573  0.3576 -4.6130 -0.4765
10076TIP3   OH251642   6.577   6.671   6.071 -0.3734 -0.1336  0.2949
10076TIP3    H151643   6.598   6.713   6.154 -2.5700 -0.7687  1.2077
10076TIP3    H251644   6.500   6.719   6.039 -0.1907 -0.5922 -0.8473
10077TIP3   OH251645   1.637   6.418   2.359 -0.0858  0.4016 -0.4715
10077TIP3    H151646   1.547   6.448   2.376  0.3572  1.1438  0.6103
10077TIP3    H251647   1.679   6.493   2.317  0.5063  0.6848  0.5912
10078TIP3   OH251648   2.484   5.482  13.226  0.3223  0.7314  0.1896
10078TIP3    H151649   2.427   5.558  13.239 -1.1798 -0.5443  1.2746
10078TIP3    H251650   2.538   5.479  13.305  1.1318  1.2577 -0.3245
10079TIP3   OH251651   6.175   5.138   1.836  0.3101  0.2322 -0.4366
10079TIP3    H151652   6.216   5.221   1.860  0.1980 -0.3831  1.9739
10079TIP3    H251653   6.237   5.071   1.866 -0.5687 -0.6094 -0.4894
10080TIP3   OH251654   2.118   6.301   0.044 -0.1969 -0.0042  0.5543
10080TIP3    H151655   2.025   6.303   0.065  0.1421 -1.0435  2.2966
10080TIP3    H251656   2.140   6.392   0.024 -1.6078  0.2247 -0.0232
10081TIP3   OH251657   2.919   4.280  12.835 -0.2010 -0.4081  0.0431
10081TIP3    H151658   2.923   4.296  12.929  0.7685 -0.5414  0.0352
10081TIP3    H251659   2.841   4.226  12.823  0.6083 -1.8359  0.9897
10082TIP3   OH251660   4.216   5.433   3.158  0.2604 -0.3020 -0.4114
10082TIP3    H151661   4.223   5.518   3.201  0.3879 -0.0767 -0.8775
10082TIP3    H251662   4.304   5.395   3.166  0.2664 -0.2883 -0.4113
10083TIP3   OH251663   4.396   3.535   4.746 -0.8266  0.2593 -0.2555
10083TIP3    H151664   4.392   3.593   4.670 -1.5947  1.8391  0.9756
10083TIP3    H251665   4.430   3.590   4.817  1.4306 -1.6188  0.1837
10084TIP3   OH251666   0.450   4.733  14.311  0.3322 -0.0199  0.5479
10084TIP3    H151667   0.398   4.680  14.251  1.5718 -0.9093  0.2453
10084TIP3    H251668   0.533   4.687  14.318  0.4027  0.3554  2.5237
10085TIP3   OH251669   2.101   0.289  15.328  0.3429 -0.3220 -0.1413
10085TIP3    H151670   2.137   0.350  15.393 -0.7151 -0.7136  0.8402
10085TIP3    H251671   2.173   0.230  15.307  0.7653 -0.0392  0.4946
10086TIP3   OH251672   1.982   2.148  14.709  0.3910  0.6365  0.1305
10086TIP3    H151673   2.054   2.137  14.772  0.3878  0.4310  0.0980
10086TIP3    H251674   2.026   2.173  14.628  0.3922  0.9432  0.2243
10087TIP3   OH251675   4.714   4.353   3.864  0.2539  0.4578  0.5220
10087TIP3    H151676   4.748   4.404   3.937 -0.7834 -0.5666  1.7215
10087TIP3    H251677   4.744   4.264   3.880  0.8989  0.3997 -0.8613
10088TIP3   OH251678   5.413   4.990   0.257 -0.0083 -0.2870  0.5663
10088TIP3    H151679   5.420   5.085   0.251 -0.2167 -0.1870  1.8170
10088TIP3    H251680   5.394   4.962   0.167  3.8613  0.4921 -0.6359
10089TIP3   OH251681   3.865   1.395   6.674  0.0856 -0.0717  0.1138
10089TIP3    H151682   3.899   1.429   6.591 -0.5760 -0.4455 -0.3233
10089TIP3    H251683   3.887   1.462   6.739 -0.1388  0.6271 -0.5210
10090TIP3   OH251684   5.039   4.129   2.326 -0.1894  0.0276  0.2211
10090TIP3    H151685   5.019   4.046   2.283  1.2155 -0.8575  1.2339
10090TIP3    H251686   5.122   4.158   2.287  0.0510  0.2383  0.8703
10091TIP3   OH251687   5.360   1.422  13.663 -0.3645  0.0939 -0.4788
10091TIP3    H151688   5.415   1.349  13.635  2.2525  1.6727  0.3008
10091TIP3    H251689   5.306   1.442  13.587  0.7978 -0.9230 -1.5958
10092TIP3   OH251690   4.554   5.704   5.628  0.4803 -0.0883 -0.4158
10092TIP3    H151691   4.510   5.702   5.543 -0.2919 -0.2909 -0.0104
10092TIP3    H251692   4.637   5.659   5.613  0.5516  0.2831 -1.1755
10093TIP3   OH251693   2.144   4.068   3.650 -0.4651 -0.1623 -0.1517
10093TIP3    H151694   2.186   4.152   3.630 -2.1883  1.4088  2.5916
10093TIP3    H251695   2.217   4.009   3.670  0.6827  0.9766 -0.9215
10094TIP3   OH251696   6.344   3.530   5.225  0.1590 -0.3227  0.3725
10094TIP3    H151697   6.405   3.457   5.234 -0.5897 -1.2341 -1.6955
10094TIP3    H251698   6.268   3.505   5.279  0.3238 -0.6078  0.4728
10095TIP3   OH251699   6.017   0.639  12.310 -0.2398 -0.2212  0.2684
10095TIP3    H151700   6.079   0.631  12.382 -0.2097 -0.7619  0.1851
10095TIP3    H251701   6.013   0.551  12.271 -1.8182 -0.4564  0.9055
10096TIP3   OH251702   1.620   2.925   4.603  0.2969  0.4754  1.0813
10096TIP3    H151703   1.697   2.905   4.550 -0.8330 -0.6920 -0.1731
10096TIP3    H251704   1.641   3.009   4.644  1.4039  1.2108 -0.8744
10097TIP3   OH251705   0.137   4.507   1.823  0.1618 -0.1294  0.3805
10097TIP3    H151706   0.104   4.497   1.912  0.3203 -1.4013  0.2958
10097TIP3    H251707   0.104   4.430   1.776  1.7135 -0.4668 -0.1698
10098TIP3   OH251708   5.771   4.144  13.673  0.6955  0.3061 -0.2222
10098TIP3    H151709   5.791   4.229  13.713 -1.3791  1.6989 -2.0004
10098TIP3    H251710   5.695   4.112  13.720  1.5382 -0.6600  0.5158
10099TIP3   OH251711   4.127   0.918  16.670 -0.3473 -0.2048  0.6275
10099TIP3    H151712   4.155   0.963  16.750  1.7951 -0.2350 -0.0810
10099TIP3    H251713   4.206   0.875  16.637 -1.0127  0.3955 -1.8786
10100TIP3   OH251714   0.785   3.068   4.881  0.6519 -0.3032 -0.2181
10100TIP3    H151715   0.810   3.151   4.921 -1.0076 -0.4819  1.2819
10100TIP3    H251716   0.739   3.021   4.952  0.5316 -1.9934 -1.3913
10101TIP3   OH251717   4.105   3.999  12.143 -0.1850  0.5053 -0.5071
10101TIP3    H151718   4.099   4.092  12.167  1.1938  0.6334 -0.6037
10101TIP3    H251719   4.150   4.000  12.058 -0.4501 -0.2409 -0.6586
10102TIP3   OH251720   1.531   6.070  15.487 -0.9893 -0.8041  0.2281
10102TIP3    H151721   1.570   6.123  15.417  0.9862 -0.9704  1.1784
10102TIP3    H251722   1.451   6.116  15.510  0.8672  2.0065  1.2751
10103TIP3   OH251723   3.318   2.923  11.618 -0.0970  0.1379 -0.1013
10103TIP3    H151724   3.407   2.891  11.608 -0.3765 -0.6114 -0.2508
10103TIP3    H251725   3.266   2.844  11.636 -0.8172  0.4776 -0.6409
10104TIP3   OH251726   2.608   5.956  14.894  0.1647  0.0567 -0.3268
10104TIP3    H151727   2.614   6.049  14.874  1.2464  0.2985  1.0426
10104TIP3    H251728   2.697   5.931  14.917 -0.2244 -1.1926 -0.1572
10105TIP3   OH251729   4.283   5.281   1.539 -0.3832 -0.6465  0.4281
10105TIP3    H151730   4.321   5.321   1.461  0.4253 -1.7731  0.2395
10105TIP3    H251731   4.193   5.313   1.540 -0.0004  0.5132 -0.1701
10106TIP3   OH251732   3.168   1.289  13.394 -0.6374 -0.3779 -0.1439
10106TIP3    H151733   3.115   1.210  13.407 -0.7199 -0.1636  0.8282
10106TIP3    H251734   3.147   1.345  13.468  1.0678 -0.3545  0.3475
10107TIP3   OH251735   2.535   2.319  15.981 -0.9645 -0.0753  0.1207
10107TIP3    H151736   2.448   2.306  15.943 -0.4868  0.1177 -1.0752
10107TIP3    H251737   2.596   2.300  15.909 -0.0932  2.4266  0.1379
10108TIP3   OH251738   0.434   0.332   5.440  0.2087  0.1351  0.1698
10108TIP3    H151739   0.429   0.383   5.359 -1.3049 -0.5281 -0.1825
10108TIP3    H251740   0.396   0.390   5.507  1.2589  0.5996  0.3741
10109TIP3   OH251741   0.131   6.704   0.716  0.1711 -0.2230 -0.0990
10109TIP3    H151742   0.089   6.762   0.652 -1.7797  0.0961  1.3991
10109TIP3    H251743   0.124   6.616   0.677 -1.2818 -0.0743 -0.2030
10110TIP3   OH251744   3.299   2.998  15.619 -0.3898  0.1604 -0.1599
10110TIP3    H151745   3.359   3.010  15.546  0.9240 -0.3777  0.8145
10110TIP3    H251746   3.285   2.903  15.624  0.6459  0.0570  1.1489
10111TIP3   OH251747   5.514   1.414   4.473  0.2589 -1.1630 -0.3919
10111TIP3    H151748   5.426   1.427   4.508  0.8034 -1.2846  1.0823
10111TIP3    H251749   5.537   1.497   4.433  0.8487  0.1058  2.4264
10112TIP3   OH251750   2.018   0.892  11.213  0.0209  0.1488  0.4854
10112TIP3    H151751   2.078   0.965  11.223 -0.3058  0.4524  0.2138
10112TIP3    H251752   1.965   0.893  11.293  1.4265 -1.0898  1.4748
10113TIP3   OH251753   1.319   5.039  14.689  0.2095 -0.8216 -0.0055
10113TIP3    H151754   1.252   4.990  14.736  0.1260 -0.0084  0.7476
10113TIP3    H251755   1.402   5.004  14.723  0.1532 -1.0343 -0.0924
10114TIP3   OH251756   4.902   6.438   2.061  0.3998  0.5260 -0.1705
10114TIP3    H151757   4.817   6.393   2.055  0.8269 -0.2076 -0.7736
10114TIP3    H251758   4.962   6.384   2.010  0.9475  1.7417 -0.8531
10115TIP3   OH251759   5.719   4.823   3.494  0.0954  0.0149 -0.0292
10115TIP3    H151760   5.662   4.897   3.473  0.3409  0.2739  0.2044
10115TIP3    H251761   5.689   4.752   3.438  0.3358  0.5145 -0.7911
10116TIP3   OH251762   3.935   2.799   4.679  0.3369 -0.3054 -0.1377
10116TIP3    H151763   3.933   2.887   4.641  2.0189 -1.1322 -2.2631
10116TIP3    H251764   4.028   2.776   4.682  0.0345 -1.3577  1.9958
10117TIP3   OH251765   0.065   5.798   6.130 -0.1840  0.0490  0.0111
10117TIP3    H151766   0.099   5.873   6.179 -0.1968 -0.6717  1.1564
10117TIP3    H251767   0.011   5.751   6.194 -2.6370  0.6754 -1.5123
10118TIP3   OH251768   6.744   0.804   2.773  0.0458  0.0209  0.3519
10118TIP3    H151769   6.798   0.824   2.850 -0.2324  0.5341  0.4147
10118TIP3    H251770   6.705   0.888   2.749 -1.2541 -0.4690  0.7089
10119TIP3   OH251771   4.467   6.003   2.830  0.0254 -1.0488  0.4908
10119TIP3    H151772   4.544   5.958   2.796  0.8511  0.0220  0.9088
10119TIP3    H251773   4.399   5.988   2.764  0.7707 -1.4609 -0.1907
10120TIP3   OH251774   6.232   4.862  13.384 -0.2511 -0.3528 -0.2428
10120TIP3    H151775   6.276   4.939  13.420 -1.1680 -0.1408  0.4490
10120TIP3    H251776   6.165   4.897  13.325  0.1853 -0.6583 -0.9244
10121TIP3   OH251777   5.714   5.823  14.033 -0.1002 -0.1985 -0.4884
10121TIP3    H151778   5.772   5.749  14.015  1.0056  0.7937 -1.0858
10121TIP3    H251779   5.768   5.901  14.016 -1.3893  0.7445 -0.3577
10122TIP3   OH251780   3.738   3.491   4.590  0.1455 -0.2519  0.0675
10122TIP3    H151781   3.773   3.540   4.515  0.0960  0.9220  0.7990
10122TIP3    H251782   3.651   3.462   4.563  1.2927 -2.4232 -1.4426
10123TIP3   OH251783   2.338   2.628  10.697 -0.1603 -0.4963  0.1597
10123TIP3    H151784   2.310   2.632  10.606  0.2925  0.4082  0.0641
10123TIP3    H251785   2.264   2.589  10.743 -1.1991  0.9700 -0.2514
10124TIP3   OH251786   3.723   1.866  15.046  0.4754 -0.1311 -0.2087
10124TIP3    H151787   3.695   1.895  15.132  1.4838 -0.0064  0.0827
10124TIP3    H251788   3.646   1.876  14.991  0.3067  1.4074  0.2877
10125TIP3   OH251789   3.501   3.017  16.050 -0.0020  0.0958  0.2933
10125TIP3    H151790   3.416   3.019  16.006 -0.1518  0.4242  0.6015
10125TIP3    H251791   3.516   3.108  16.077  0.7063  0.1532 -0.2653
10126TIP3   OH251792   3.119   1.167   4.740  0.7530 -0.0226 -0.4685
10126TIP3    H151793   3.115   1.254   4.699  0.0148 -0.1062 -0.5819
10126TIP3    H251794   3.059   1.173   4.814  0.8719 -0.3622 -0.3474
10127TIP3   OH251795   3.269   1.984  13.089  0.2950  0.5509 -0.8409
10127TIP3    H151796   3.272   2.078  13.069 -0.4138  0.6281 -0.5855
10127TIP3    H251797   3.220   1.945  13.017 -1.5309  0.7161  0.2982
10128TIP3   OH251798   2.268   0.474   0.887 -0.4100 -0.4111 -0.0216
10128TIP3    H151799   2.293   0.508   0.973 -0.1899 -0.3526 -0.1079
10128TIP3    H251800   2.272   0.379   0.897  1.3223 -0.3990 -0.4568
10129TIP3   OH251801   4.531   1.651   6.264  0.1337  0.7821  0.4416
10129TIP3    H151802   4.561   1.662   6.174 -0.9227  0.3376  0.0171
10129TIP3    H251803   4.439   1.624   6.255  0.8412 -2.2147  1.5580
10130TIP3   OH251804   3.762   6.406  10.808  0.4134 -0.1226 -0.8880
10130TIP3    H151805   3.798   6.487  10.772  0.3491  0.1495 -0.3519
10130TIP3    H251806   3.839   6.356  10.835  0.4141  0.2177 -0.2532
10131TIP3   OH251807   2.017   5.934   5.140 -0.1297 -0.8347 -0.0190
10131TIP3    H151808   2.046   6.003   5.081 -0.3721  0.0903  0.9328
10131TIP3    H251809   1.929   5.912   5.109 -0.6598  0.3582  0.6066
10132TIP3   OH251810   3.882   1.784   6.650 -0.0950 -0.2633 -0.1219
10132TIP3    H151811   3.807   1.828   6.608  0.4530  0.3487 -0.4730
10132TIP3    H251812   3.957   1.807   6.594  0.6785  0.6818  1.2825
10133TIP3   OH251813   0.738   4.066  11.318  0.4487  0.0287 -0.5453
10133TIP3    H151814   0.806   4.120  11.277  0.5549  0.5411  0.2987
10133TIP3    H251815   0.656   4.110  11.296  0.4287 -0.2595 -1.0620
10134TIP3   OH251816   2.934   5.384   4.380 -0.3113  0.0614  0.4698
10134TIP3    H151817   2.948   5.353   4.291 -1.8968 -1.0583  0.5771
10134TIP3    H251818   3.019   5.374   4.423  0.5335  0.8638 -0.9642
10135TIP3   OH251819   4.174   1.342   5.115 -0.6424  0.7717 -0.1858
10135TIP3    H151820   4.107   1.274   5.124 -0.0789  0.2406 -0.0453
10135TIP3    H251821   4.244   1.301   5.064 -0.5192  1.3994 -0.5253
10136TIP3   OH251822   5.989   2.612  14.557  0.1157 -0.1396 -0.0150
10136TIP3    H151823   5.905   2.578  14.589  0.2477 -0.5181 -0.0585
10136TIP3    H251824   5.978   2.707  14.557 -0.2791 -0.1817  0.0748
10137TIP3   OH251825   2.365   5.984   4.649  0.0572  0.6432  0.9277
10137TIP3    H151826   2.366   5.894   4.616 -0.4405  1.2068 -0.6574
10137TIP3    H251827   2.456   6.003   4.669  0.2811  0.0697  0.4775
10138TIP3   OH251828   2.899   3.684  12.261  0.0332 -0.0544  0.4563
10138TIP3    H151829   2.841   3.727  12.323  0.0125  1.1751 -0.3911
10138TIP3    H251830   2.853   3.604  12.236  0.1680 -0.6923  2.2050
10139TIP3   OH251831   4.285   1.350  12.661  0.3027  0.6086  0.3947
10139TIP3    H151832   4.326   1.273  12.621  0.0946  1.3438 -1.2966
10139TIP3    H251833   4.194   1.324  12.674  0.0699  0.7843 -0.8129
10140TIP3   OH251834   0.240   1.633  14.203  0.4038 -0.4495 -0.7365
10140TIP3    H151835   0.316   1.634  14.262 -1.0447 -1.4647  1.1921
10140TIP3    H251836   0.273   1.592  14.123  2.0921 -0.1819 -0.2059
10141TIP3   OH251837   2.465   4.649   1.766 -0.0411  0.1511 -0.5697
10141TIP3    H151838   2.475   4.562   1.726 -1.2827 -0.9657  1.4469
10141TIP3    H251839   2.371   4.662   1.770  0.1484  2.0550 -1.7252
10142TIP3   OH251840   4.716   3.951   5.812  0.1667 -0.1528  0.2393
10142TIP3    H151841   4.665   4.014   5.863 -1.1819 -1.5286  0.6411
10142TIP3    H251842   4.709   3.869   5.861 -0.4561 -1.2950 -1.6889
10143TIP3   OH251843   0.255   3.567  11.100  0.7903 -1.2351 -0.6496
10143TIP3    H151844   0.347   3.542  11.109  1.5958  1.2557 -1.6105
10143TIP3    H251845   0.242   3.578  11.006 -0.0034  0.1204 -0.3994
10144TIP3   OH251846   1.744   6.007   0.873  0.3787 -0.0913 -0.3856
10144TIP3    H151847   1.795   6.083   0.846  1.7913 -0.9575 -0.1916
10144TIP3    H251848   1.805   5.953   0.922 -0.4049 -1.7229 -1.1533
10145TIP3   OH251849   5.491   1.286  13.082  0.6611  0.0053  0.0255
10145TIP3    H151850   5.575   1.281  13.128  1.9536  1.7712 -2.0394
10145TIP3    H251851   5.456   1.372  13.106 -1.0687 -1.1227  1.6658
10146TIP3   OH251852   4.592   6.517   4.728  0.5600 -0.0802 -0.6315
10146TIP3    H151853   4.677   6.534   4.688  0.6806 -0.3049 -0.4785
10146TIP3    H251854   4.595   6.424   4.751  0.2875 -0.0794 -0.5902
10147TIP3   OH251855   0.415   6.785  15.852 -0.1174  0.1553 -0.0332
10147TIP3    H151856   0.347   6.730  15.892  0.3742 -0.0221  0.5648
10147TIP3    H251857   0.469   6.814  15.925  0.6115  0.0744 -0.5290
10148TIP3   OH251858   3.977   6.035  16.680  0.0052 -0.2757  0.2034
10148TIP3    H151859   4.037   6.043  16.606 -0.9897 -1.5609 -0.7415
10148TIP3    H251860   3.958   6.125  16.706  2.5975  0.1705  0.7367
10149TIP3   OH251861   2.617   1.306  14.851  0.0852  0.4903  0.2854
10149TIP3    H151862   2.676   1.282  14.923  0.4370  1.7783  0.4424
10149TIP3    H251863   2.615   1.402  14.853 -0.0699  0.5313 -1.2870
10150TIP3   OH251864   4.756   2.789   0.847 -0.5851 -0.1871 -0.1819
10150TIP3    H151865   4.694   2.861   0.832  0.0403  0.2301 -0.8234
10150TIP3    H251866   4.814   2.821   0.916 -0.7672 -0.3663  0.0513
10151TIP3   OH251867   2.899   0.393  15.279 -0.0491  0.0362  0.2312
10151TIP3    H151868   2.969   0.437  15.328  0.6649 -1.1001  0.2615
10151TIP3    H251869   2.943   0.361  15.200 -1.2369  2.0740 -1.3221
10152TIP3   OH251870   5.999   4.607   2.122  0.2812  0.3410 -0.3669
10152TIP3    H151871   6.088   4.573   2.125  0.4912  1.0704  2.5501
10152TIP3    H251872   6.004   4.681   2.061  1.5678  0.1219 -0.5296
10153TIP3   OH251873   6.482   3.787  14.261 -0.1126  0.3312  0.2509
10153TIP3    H151874   6.545   3.765  14.329  0.3524  0.8713 -0.0022
10153TIP3    H251875   6.410   3.830  14.308 -0.4512 -0.5912  0.5821
10154TIP3   OH251876   2.268   1.464  13.089  0.1016 -0.7349 -0.0477
10154TIP3    H151877   2.303   1.504  13.168  0.8824 -2.4570  0.4922
10154TIP3    H251878   2.217   1.389  13.120 -1.1856 -0.2991 -1.0539
10155TIP3   OH251879   1.568   4.569   5.267 -0.2172 -0.6521  0.3812
10155TIP3    H151880   1.633   4.602   5.205 -0.0963 -0.9775  0.3323
10155TIP3    H251881   1.486   4.611   5.241 -0.3399 -1.4441 -0.5351
10156TIP3   OH251882   4.172   5.801   1.567  0.5130 -0.0685  0.0553
10156TIP3    H151883   4.250   5.745   1.570  1.4954  1.2668 -0.2157
10156TIP3    H251884   4.183   5.853   1.487 -0.9069 -0.2227 -0.2450
10157TIP3   OH251885   2.599   6.244  12.948 -0.1692 -0.4067  0.2732
10157TIP3    H151886   2.560   6.283  13.026  0.3554 -2.0632  1.4031
10157TIP3    H251887   2.542   6.170  12.927 -0.1129 -0.1763 -0.7267
10158TIP3   OH251888   2.410   4.746   3.313 -0.0283  0.1286  0.0184
10158TIP3    H151889   2.355   4.824   3.299 -0.9923 -0.2630  1.4907
10158TIP3    H251890   2.481   4.755   3.249 -0.4106  1.9481 -0.1854
10159TIP3   OH251891   1.028   3.329   3.264 -0.6602  0.3119  0.2069
10159TIP3    H151892   1.119   3.314   3.237 -0.5415 -1.2391  1.3572
10159TIP3    H251893   0.981   3.251   3.234 -1.3178  0.4323  0.9123
10160TIP3   OH251894   2.064   0.063  17.083 -0.1856 -0.1491 -0.4411
10160TIP3    H151895   2.106   0.070  17.169 -0.9236  1.0941 -0.1561
10160TIP3    H251896   2.079  -0.027  17.056  1.8469  0.0222  0.0600
10161TIP3   OH251897   2.763   1.199   3.431 -0.5569 -0.0091  0.0686
10161TIP3    H151898   2.730   1.175   3.517 -1.5915 -0.9233 -0.5692
10161TIP3    H251899   2.847   1.241   3.448 -0.8222 -0.0498  1.5282
10162TIP3   OH251900   4.712   5.222   4.524  0.2122  0.1882  0.3968
10162TIP3    H151901   4.727   5.228   4.430  0.9495  0.7970  0.5551
10162TIP3    H251902   4.717   5.128   4.543 -0.7803 -0.0144 -0.3087
10163TIP3   OH251903   3.071   6.537  12.682 -0.3709 -0.9758 -0.1550
10163TIP3    H151904   3.154   6.515  12.724  0.4051  0.0726 -1.1251
10163TIP3    H251905   3.035   6.452  12.654  0.7263 -1.3635 -0.4006
10164TIP3   OH251906   4.788   5.535   3.831 -0.4540 -0.5268  0.4129
10164TIP3    H151907   4.759   5.522   3.921 -1.2446  0.5846  0.3244
10164TIP3    H251908   4.707   5.531   3.779 -0.0104 -1.1037 -0.2468
10165TIP3   OH251909   3.414   4.262   2.704 -0.1450  0.6447 -0.5044
10165TIP3    H151910   3.455   4.336   2.748  0.0307  1.0595 -1.3665
10165TIP3    H251911   3.323   4.263   2.736 -0.3502  1.6908 -1.0957
10166TIP3   OH251912   1.818   3.827  15.801  0.6451 -0.5096  0.8148
10166TIP3    H151913   1.903   3.842  15.760  1.0923  0.1735  1.9619
10166TIP3    H251914   1.764   3.901  15.773  0.4540 -0.8734  0.1975
10167TIP3   OH251915   5.642   5.928   2.316  0.1329  0.1233 -0.3145
10167TIP3    H151916   5.555   5.921   2.356  0.7723  1.2339  1.3236
10167TIP3    H251917   5.703   5.927   2.391  1.5075 -0.1395 -1.4135
10168TIP3   OH251918   1.128   5.065  16.604 -0.1222  0.8246 -0.7249
10168TIP3    H151919   1.119   4.992  16.542  0.0290  1.3051 -1.3242
10168TIP3    H251920   1.158   5.139  16.550  0.0599  1.2388 -0.0678
10169TIP3   OH251921   2.240   6.450   6.131  0.0011  0.8193 -0.5819
10169TIP3    H151922   2.206   6.490   6.211 -0.6275  0.6216 -0.7508
10169TIP3    H251923   2.225   6.356   6.143 -0.2117  0.8006 -0.9815
10170TIP3   OH251924   2.329   1.266   4.000  0.0679 -0.1187 -0.2531
10170TIP3    H151925   2.372   1.315   4.070  0.5072 -1.0035  0.0942
10170TIP3    H251926   2.357   1.310   3.919 -1.9226  2.0753  0.1908
10171TIP3   OH251927   3.317   2.182  15.210 -0.0337 -0.6853 -0.1985
10171TIP3    H151928   3.251   2.122  15.243  0.6467 -1.8335 -0.8778
10171TIP3    H251929   3.320   2.253  15.274 -1.0425 -1.2354  0.4641
10172TIP3   OH251930   5.048   2.579   3.715 -0.6371  0.2374  0.1823
10172TIP3    H151931   5.036   2.652   3.653  1.9389  0.9187  0.4308
10172TIP3    H251932   5.065   2.622   3.799 -0.0366 -0.6482  0.5172
10173TIP3   OH251933   1.796   1.719  14.301  0.3131  0.3464  0.3099
10173TIP3    H151934   1.816   1.812  14.293 -0.6062  0.4397 -1.0895
10173TIP3    H251935   1.701   1.715  14.303  0.3081 -0.6478 -0.9901
10174TIP3   OH251936   4.418   5.692  13.575  0.4533 -0.1226  0.4662
10174TIP3    H151937   4.367   5.611  13.573  0.6322 -0.1997 -1.4209
10174TIP3    H251938   4.353   5.762  13.580  0.1740 -0.2624 -0.9861
10175TIP3   OH251939   3.660   1.264   5.224  0.0674  0.0457 -0.4395
10175TIP3    H151940   3.616   1.316   5.157  0.7083  0.6613 -0.3911
10175TIP3    H251941   3.609   1.278   5.303  0.4300  0.8790 -0.3473
10176TIP3   OH251942   3.774   3.189   5.826  0.0196  0.1599 -0.5576
10176TIP3    H151943   3.698   3.137   5.853  0.0950  0.5922  0.4943
10176TIP3    H251944   3.743   3.279   5.826  0.4328  0.3024 -0.4911
10177TIP3   OH251945   1.187   4.836  17.061  0.1858  0.3088  0.3893
10177TIP3    H151946   1.212   4.744  17.049  2.6245  0.9379  0.5338
10177TIP3    H251947   1.153   4.862  16.976 -1.5148 -0.9988  0.6311
10178TIP3   OH251948   5.994   0.678   5.858  0.2563 -0.1862 -0.9641
10178TIP3    H151949   5.920   0.707   5.912 -0.4280 -0.5214 -1.7119
10178TIP3    H251950   5.976   0.713   5.771  1.3089  0.2629 -1.0154
10179TIP3   OH251951   0.580   1.529   2.420  0.5911  0.2473  0.7288
10179TIP3    H151952   0.546   1.558   2.505  1.7953  0.6678  1.0800
10179TIP3    H251953   0.631   1.450   2.440  1.1645  0.5412  0.4633
10180TIP3   OH251954   0.069   1.755  11.657 -0.1661 -0.0142  0.4874
10180TIP3    H151955   0.143   1.811  11.634 -0.4406 -0.2928 -1.1215
10180TIP3    H251956   0.098   1.667  11.633 -0.3711 -0.3500  1.4581
10181TIP3   OH251957   3.241   2.198   4.669 -0.6256 -0.1867  0.4981
10181TIP3    H151958   3.221   2.202   4.762 -0.8673  0.4649  0.4187
10181TIP3    H251959   3.326   2.240   4.661 -1.3259  1.2005  0.2148
10182TIP3   OH251960   5.719   2.746   1.240 -0.2356 -0.2057  0.3460
10182TIP3    H151961   5.815   2.754   1.241 -0.3359  1.2953 -0.0975
10182TIP3    H251962   5.702   2.656   1.268  1.3148 -0.5914  0.1122
10183TIP3   OH251963   1.841   6.583  15.922 -0.2351 -0.1971 -0.5747
10183TIP3    H151964   1.769   6.602  15.862 -0.9686 -0.5720  0.1798
10183TIP3    H251965   1.828   6.645  15.994  0.1379 -0.3324 -0.3932
10184TIP3   OH251966   2.944   3.667   1.055  0.1539  0.1610  0.3342
10184TIP3    H151967   2.945   3.596   1.119  1.7790 -0.3260 -0.2006
10184TIP3    H251968   2.851   3.690   1.045 -0.3292 -1.4506  0.9820
10185TIP3   OH251969   2.438   1.295   0.372 -0.1559  0.3782  0.1020
10185TIP3    H151970   2.448   1.260   0.460 -0.7649  0.8458  0.3609
10185TIP3    H251971   2.527   1.313   0.343  0.1510 -1.2484  0.0153
10186TIP3   OH251972   0.323   5.487   3.092  0.0405 -0.4500 -0.5252
10186TIP3    H151973   0.232   5.472   3.116  0.7556 -0.8913  2.0138
10186TIP3    H251974   0.353   5.555   3.152  0.8664  1.0873 -2.6103
10187TIP3   OH251975   6.642   4.972  13.395  0.2009 -0.0769  0.1644
10187TIP3    H151976   6.590   4.964  13.315  0.7015 -0.4162 -0.1316
10187TIP3    H251977   6.716   4.913  13.381  1.0435  0.9289  0.2781
10188TIP3   OH251978   6.057   0.369  12.293  0.3106 -0.2199  0.0176
10188TIP3    H151979   6.151   0.355  12.294  0.1429 -1.3548  1.0670
10188TIP3    H251980   6.030   0.359  12.384 -0.8537 -0.0784 -0.3005
10189TIP3   OH251981   4.815   5.427  12.687 -0.1801  0.5931 -0.7378
10189TIP3    H151982   4.773   5.477  12.617 -1.6429  0.4093 -0.0277
10189TIP3    H251983   4.760   5.349  12.697  1.0421 -0.2692 -0.5987
10190TIP3   OH251984   2.367   3.907  16.960 -0.3306  0.3085  0.3512
10190TIP3    H151985   2.425   3.940  16.892 -0.2807  1.1972  0.8064
10190TIP3    H251986   2.360   3.813  16.944  0.6354  0.3246 -0.1520
10191TIP3   OH251987   5.941   5.252  15.112  0.2600  0.1685 -0.3958
10191TIP3    H151988   5.861   5.304  15.113  0.4761  0.6275 -3.2590
10191TIP3    H251989   5.976   5.260  15.201 -1.7583  1.6665  0.2924
10192TIP3   OH251990   4.715   4.921   1.349 -0.3062  0.1930  0.1469
10192TIP3    H151991   4.663   4.959   1.419 -0.1317 -0.1159  0.4432
10192TIP3    H251992   4.679   4.833   1.337 -0.3909  0.2727 -0.2081
10193TIP3   OH251993   0.825   0.301   2.969  0.2962  0.2138  0.2091
10193TIP3    H151994   0.883   0.326   2.898 -0.3560  0.0287 -0.3947
10193TIP3    H251995   0.764   0.374   2.977  0.6338  0.4268  0.8685
10194TIP3   OH251996   1.086   5.135  14.441  0.9073  0.2810  0.1964
10194TIP3    H151997   1.133   5.092  14.512  0.6849 -0.2003  0.0495
10194TIP3    H251998   1.155   5.171  14.385  1.1051 -0.9263 -0.3353
10195TIP3   OH251999   0.792   5.939   3.378  0.1921 -0.5531  0.0133
10195TIP3    H152000   0.813   5.996   3.453  0.4217  0.3137 -0.6999
10195TIP3    H252001   0.697   5.943   3.371  0.0678 -1.5688  0.9788
10196TIP3   OH252002   2.964   0.015  14.658 -0.5831  0.6428  0.2126
10196TIP3    H152003   2.986   0.107  14.674 -1.6480  0.6795  1.6300
10196TIP3    H252004   3.032  -0.035  14.704  0.0102  0.7234 -0.5806
10197TIP3   OH252005   4.652   6.694   3.471  0.2235 -0.3298  0.3627
10197TIP3    H152006   4.669   6.633   3.399 -0.5164 -0.8782  0.6367
10197TIP3    H252007   4.560   6.677   3.495  0.1043  0.6786  0.6494
10198TIP3   OH252008   1.589   4.396   3.951 -0.1043  0.1376  0.4574
10198TIP3    H152009   1.529   4.444   4.008  0.9821 -0.6703  2.3159
10198TIP3    H252010   1.674   4.405   3.993  1.2650  1.8998 -2.5313
10199TIP3   OH252011   0.200   0.775  12.462  0.4170  0.6305  0.8815
10199TIP3    H152012   0.264   0.738  12.523  0.3261 -0.5909  0.2519
10199TIP3    H252013   0.120   0.725  12.477 -0.4960  2.3250  1.8502
10200TIP3   OH252014   0.643   2.406  12.797  0.1542  0.6264 -0.6952
10200TIP3    H152015   0.638   2.327  12.744 -1.8872 -0.3260  0.8173
10200TIP3    H252016   0.649   2.478  12.734  2.8378 -0.7537 -2.0787
10201TIP3   OH252017   1.391   6.390   2.991 -0.0772  0.0397 -0.1410
10201TIP3    H152018   1.382   6.308   3.039 -3.1938  0.3278 -0.1525
10201TIP3    H252019   1.378   6.459   3.056  1.8255  0.5479 -0.2666
10202TIP3   OH252020   5.674   3.279  13.561 -0.1452  0.2490 -0.3111
10202TIP3    H152021   5.627   3.216  13.507 -0.3654  0.4446 -0.3497
10202TIP3    H252022   5.744   3.311  13.505  0.9273 -1.1095  0.2234
10203TIP3   OH252023   2.430   4.188   1.832 -0.1879 -0.4233 -0.6644
10203TIP3    H152024   2.488   4.117   1.803 -2.4473 -2.1484 -1.1302
10203TIP3    H252025   2.441   4.191   1.927 -1.0860 -2.3749 -0.4702
10204TIP3   OH252026   1.340   4.385  13.564  0.2600 -0.3073  0.3108
10204TIP3    H152027   1.269   4.330  13.598 -0.1901  1.0806  1.7092
10204TIP3    H252028   1.394   4.404  13.641  1.1652  0.0817 -0.4109
10205TIP3   OH252029   0.806   6.536  12.138  0.1780  0.2556  0.5495
10205TIP3    H152030   0.872   6.605  12.149  1.1645 -0.4520 -0.7358
10205TIP3    H252031   0.733   6.579  12.094  0.9845  0.3833 -0.6775
10206TIP3   OH252032   3.346   5.262  11.992  0.1330 -0.6343 -0.2223
10206TIP3    H152033   3.381   5.180  12.027 -0.6589 -1.5492 -1.4882
10206TIP3    H252034   3.300   5.302  12.065 -1.9087 -2.7470 -0.2869
10207TIP3   OH252035   0.923   2.838   5.796  0.3048  0.0047  0.1365
10207TIP3    H152036   0.948   2.875   5.881 -0.3071 -0.7699  0.6620
10207TIP3    H252037   1.006   2.820   5.753  0.6236  0.3460  0.5911
10208TIP3   OH252038   6.119   0.105   5.046 -0.7743  0.1332 -0.2207
10208TIP3    H152039   6.135   0.107   5.140 -1.1210  1.0765 -0.1779
10208TIP3    H252040   6.197   0.144   5.007 -0.5863 -0.3516 -0.3303
10209TIP3   OH252041   6.205   5.142  16.166  0.3997  0.1067  0.0922
10209TIP3    H152042   6.250   5.201  16.225 -0.2475 -1.8318  2.6254
10209TIP3    H252043   6.262   5.065  16.160 -0.0134 -0.1284 -1.0204
10210TIP3   OH252044   6.389   5.093   6.079 -0.0308 -0.2609 -0.1192
10210TIP3    H152045   6.345   5.138   6.151  1.7862 -0.8971  1.4261
10210TIP3    H252046   6.318   5.056   6.026 -1.3796  0.1394  1.3967
10211TIP3   OH252047   5.971   5.778  17.164  0.0700  0.4971 -0.6322
10211TIP3    H152048   6.007   5.848  17.218 -0.3856  1.4332 -1.5044
10211TIP3    H252049   6.047   5.735  17.126  0.3716  0.1563  0.3402
10212TIP3   OH252050   2.921   3.188  13.823 -0.1173 -0.2231  0.4149
10212TIP3    H152051   2.987   3.197  13.754  0.2144 -0.9751  0.6282
10212TIP3    H252052   2.947   3.251  13.890 -0.3450  0.3938 -0.0755
10213TIP3   OH252053   1.524   3.125  14.965  0.2085 -0.0788 -0.4799
10213TIP3    H152054   1.534   3.206  15.014  0.7302  0.5877 -1.6607
10213TIP3    H252055   1.429   3.112  14.959  0.1503 -0.3557  0.9982
10214TIP3   OH252056   4.513   6.315   1.431  0.8500  0.0961  0.0900
10214TIP3    H152057   4.496   6.232   1.387  1.5589  0.3319 -0.6442
10214TIP3    H252058   4.609   6.321   1.435  0.8006  0.7157  0.4426
10215TIP3   OH252059   4.648   4.288  11.382  0.2320 -0.0459 -0.2268
10215TIP3    H152060   4.712   4.323  11.445 -0.8450 -0.0334  0.8722
10215TIP3    H252061   4.694   4.291  11.298  1.4398  0.6077  0.4353
10216TIP3   OH252062   5.096   0.315   1.444  0.3888 -0.7590  0.3437
10216TIP3    H152063   5.021   0.324   1.503  0.5084  1.0383  0.2502
10216TIP3    H252064   5.162   0.373   1.481  1.0791 -0.9432 -0.5953
10217TIP3   OH252065   0.864   2.397   2.392  0.0695 -0.2134 -0.0529
10217TIP3    H152066   0.886   2.454   2.466  0.3896 -0.6240  0.1664
10217TIP3    H252067   0.794   2.342   2.425 -1.2709  1.0504 -0.7310
10218TIP3   OH252068   3.776   6.200  11.834 -1.0661 -0.0395 -0.2482
10218TIP3    H152069   3.869   6.179  11.838 -0.4564  2.0951 -2.0557
10218TIP3    H252070   3.739   6.134  11.775 -0.2401  0.5604 -1.4470
10219TIP3   OH252071   5.997   1.802   5.813 -0.0255 -0.4448  0.2879
10219TIP3    H152072   5.912   1.760   5.799  0.4144 -1.0329 -0.7215
10219TIP3    H252073   6.060   1.730   5.812  0.4898 -0.0066  0.9534
10220TIP3   OH252074   6.453   1.631   4.018 -0.0017 -0.0696 -0.4060
10220TIP3    H152075   6.361   1.630   3.991 -0.1860  1.1050  0.1402
10220TIP3    H252076   6.456   1.573   4.094 -0.4928  0.6353  0.1628
10221TIP3   OH252077   1.427   0.732   5.316  0.0629  0.2012 -0.2731
10221TIP3    H152078   1.390   0.691   5.238 -0.1167 -0.5802  0.2143
10221TIP3    H252079   1.521   0.717   5.308 -0.0591 -0.8840  0.2178
10222TIP3   OH252080   3.979   4.478  10.912  0.3647 -0.0024 -0.1734
10222TIP3    H152081   4.031   4.519  10.844 -0.0984 -1.6399 -1.5559
10222TIP3    H252082   3.931   4.408  10.867 -1.1829 -0.0781  1.5233
10223TIP3   OH252083   5.570   0.085   5.690  0.0365 -0.5549  0.3471
10223TIP3    H152084   5.642   0.071   5.751  0.0814 -1.3478  0.1192
10223TIP3    H252085   5.534  -0.002   5.675 -0.7350 -0.2091  0.1716
10224TIP3   OH252086   1.113   5.663  15.447 -0.2114 -0.1724  0.1200
10224TIP3    H152087   1.205   5.690  15.446 -0.2696  0.0581  0.7100
10224TIP3    H252088   1.075   5.706  15.371 -0.1366  0.8312  0.6417
10225TIP3   OH252089   5.381   6.670   3.025  0.0238  0.1919  0.4497
10225TIP3    H152090   5.359   6.644   2.936 -0.7190  1.7988  0.1496
10225TIP3    H252091   5.382   6.588   3.074  1.2591 -0.7909 -1.1981
10226TIP3   OH252092   5.319   4.193  10.611  0.3770  0.5085  0.5679
10226TIP3    H152093   5.227   4.213  10.630  0.1884 -1.1836  1.5777
10226TIP3    H252094   5.357   4.175  10.697  1.9121  2.1640  0.2579
10227TIP3   OH252095   4.371   5.778  10.674 -0.3610  0.0259  0.4212
10227TIP3    H152096   4.287   5.789  10.631 -1.4762 -2.9323  1.6993
10227TIP3    H252097   4.420   5.720  10.616 -0.1329 -0.2124  0.8466
10228TIP3   OH252098   0.757   1.320  15.748  0.2490 -0.2869 -0.1581
10228TIP3    H152099   0.712   1.236  15.734  0.0975 -0.1064 -0.7406
10228TIP3    H252100   0.775   1.321  15.842  0.5562 -1.1310 -0.1976
10229TIP3   OH252101   6.311   3.632  15.407  0.1701 -0.7787 -0.0337
10229TIP3    H152102   6.317   3.557  15.466  0.4299 -0.3353  0.5053
10229TIP3    H252103   6.394   3.631  15.358  0.3571 -0.5815  0.2838
10230TIP3   OH252104   2.228   2.430   2.090 -0.8477  0.1710  0.1326
10230TIP3    H152105   2.169   2.375   2.142  0.9705  0.2817  2.4048
10230TIP3    H252106   2.225   2.516   2.132  0.7838  0.2136  0.2100
10231TIP3   OH252107   0.365   1.392   3.666  0.0232 -0.3911 -0.0024
10231TIP3    H152108   0.341   1.322   3.726 -0.0815  0.4277  0.9254
10231TIP3    H252109   0.298   1.459   3.679  2.1301  1.4379  1.7967
10232TIP3   OH252110   0.095   4.752   3.293  0.8403 -0.6981 -0.9335
10232TIP3    H152111   0.017   4.697   3.302  1.0120 -0.6432  1.2032
10232TIP3    H252112   0.157   4.697   3.246  0.5859 -1.8990  0.1134
10233TIP3   OH252113   1.811   4.875  17.142 -0.0858 -0.1837 -0.2350
10233TIP3    H152114   1.867   4.840  17.073  1.0667  1.5524 -0.1996
10233TIP3    H252115   1.870   4.889  17.216 -0.6711  1.1594 -0.0182
10234TIP3   OH252116   5.595   6.237   0.563 -0.4818  0.5629 -0.1671
10234TIP3    H152117   5.662   6.248   0.630  0.2730  0.5353 -0.9219
10234TIP3    H252118   5.642   6.241   0.480 -1.1203 -1.5092 -0.6599
10235TIP3   OH252119   2.062   5.178   3.931 -0.3499 -0.0807  0.4328
10235TIP3    H152120   2.018   5.219   3.856  1.0904 -0.9344 -0.9057
10235TIP3    H252121   2.064   5.247   3.998 -0.9755  0.9396 -0.5752
10236TIP3   OH252122   3.891   2.097  11.869  0.4352 -0.1677  0.1000
10236TIP3    H152123   3.889   2.019  11.814 -3.2388 -0.1499  0.0943
10236TIP3    H252124   3.814   2.147  11.843 -1.0782  0.1728  4.7378
10237TIP3   OH252125   6.342   3.312   1.724  0.3057 -0.0742 -0.8154
10237TIP3    H152126   6.354   3.235   1.779 -0.5107 -0.0513 -0.6019
10237TIP3    H252127   6.430   3.349   1.716  0.5715 -0.5652 -0.2411
10238TIP3   OH252128   2.314   5.784  15.834 -0.1347 -0.5961 -0.1047
10238TIP3    H152129   2.350   5.844  15.898 -1.8811  0.2388  0.1278
10238TIP3    H252130   2.323   5.697  15.874  0.8824 -0.3164  0.2670
10239TIP3   OH252131   2.322   0.888  16.356 -0.0078 -0.1500 -0.0434
10239TIP3    H152132   2.359   0.945  16.289 -0.7809 -0.6074 -0.8583
10239TIP3    H252133   2.228   0.897  16.347 -0.1193  0.3968  1.5155
10240TIP3   OH252134   1.967   5.816   0.636 -0.2669  0.4270 -0.2241
10240TIP3    H152135   1.884   5.791   0.676 -0.5418 -2.6248 -2.4910
10240TIP3    H252136   1.995   5.737   0.589  3.2800  1.8004 -0.5538
10241TIP3   OH252137   6.396   5.220  11.904  0.4606  0.1145 -0.3104
10241TIP3    H152138   6.351   5.185  11.827 -0.2648  0.3956 -0.0179
10241TIP3    H252139   6.484   5.182  11.900 -0.3539 -1.8499  0.0611
10242TIP3   OH252140   1.884   3.665  17.100 -0.3756  0.4153  0.4279
10242TIP3    H152141   1.870   3.749  17.144  0.0297 -0.0952  1.5666
10242TIP3    H252142   1.797   3.640  17.067 -0.8981  0.3543  1.8000
10243TIP3   OH252143   3.452   6.382   6.099  0.4652 -0.0023 -0.2431
10243TIP3    H152144   3.382   6.320   6.118  1.8288 -1.4841  0.0276
10243TIP3    H252145   3.417   6.438   6.030 -1.6126  0.3844  1.0973
10244TIP3   OH252146   1.069   3.676   1.995 -0.2892 -0.6146 -0.4854
10244TIP3    H152147   1.121   3.614   2.046 -0.7990 -1.5413 -1.0872
10244TIP3    H252148   0.982   3.637   1.991 -1.1766  1.1219  0.8775
10245TIP3   OH252149   2.123   1.832  10.954 -0.3460  0.2884  0.4786
10245TIP3    H152150   2.088   1.921  10.950 -1.3807 -0.1480 -0.9922
10245TIP3    H252151   2.101   1.795  10.868  1.1160 -0.9975  0.6395
10246TIP3   OH252152   1.546   2.408   5.189 -0.2887 -0.1762 -0.3255
10246TIP3    H152153   1.541   2.318   5.157 -0.4072 -0.5666  0.7664
10246TIP3    H252154   1.458   2.442   5.178 -0.7882 -0.8964  1.2271
10247TIP3   OH252155   4.510   6.787   2.456 -0.1089  0.0061  0.0912
10247TIP3    H152156   4.491   6.780   2.362 -2.5317 -0.8281  0.6218
10247TIP3    H252157   4.461   6.863   2.485  0.4022  0.0871  0.7558
10248TIP3   OH252158   4.916   6.769  10.915 -0.4952  0.5046 -0.0749
10248TIP3    H152159   4.972   6.731  10.848 -0.8721 -1.2237  0.5573
10248TIP3    H252160   4.929   6.864  10.907  2.7859  0.1347  0.3191
10249TIP3   OH252161   1.738   0.388   3.645 -0.0839  0.4030 -0.4948
10249TIP3    H152162   1.795   0.377   3.569 -1.4944 -1.4891 -1.3124
10249TIP3    H252163   1.662   0.434   3.611 -1.3532 -1.7015 -0.5782
10250TIP3   OH252164   3.359   1.411   2.345  0.4867 -0.0078 -0.2982
10250TIP3    H152165   3.441   1.392   2.299  1.5540 -1.4788  2.1149
10250TIP3    H252166   3.380   1.487   2.400 -0.2328  0.5719 -0.8169
10251TIP3   OH252167   1.468   5.878   2.008 -0.3873  0.1521 -0.6397
10251TIP3    H152168   1.516   5.903   2.087  0.7397  0.5728 -1.4514
10251TIP3    H252169   1.518   5.806   1.970 -0.5408  0.4083 -1.3390
10252TIP3   OH252170   4.112   2.375  15.937  0.7176 -0.5922  0.3039
10252TIP3    H152171   4.102   2.414  15.850 -0.1293  3.3649  2.0506
10252TIP3    H252172   4.180   2.428  15.979 -0.0384 -1.4042  2.5979
10253TIP3   OH252173   1.147   6.655  11.509  0.2580 -0.5009  0.0194
10253TIP3    H152174   1.115   6.581  11.560  2.1220 -2.2423 -1.2024
10253TIP3    H252175   1.071   6.710  11.495 -1.5011 -2.8997 -0.1860
10254TIP3   OH252176   0.566   6.397  11.938 -0.2402 -0.0695 -0.2386
10254TIP3    H152177   0.661   6.397  11.936 -0.2400 -1.1346 -0.3259
10254TIP3    H252178   0.542   6.319  11.989 -1.0667 -0.0927 -0.6447
10255TIP3   OH252179   5.594   2.416   4.204 -0.1679  0.0409 -0.7934
10255TIP3    H152180   5.515   2.366   4.184 -0.6988  0.4396  0.2758
10255TIP3    H252181   5.649   2.356   4.253 -0.7775  0.4526  0.4312
10256TIP3   OH252182   5.684   2.367   6.327  0.1576 -0.6562 -0.1764
10256TIP3    H152183   5.720   2.403   6.246  0.9004 -1.5264 -0.2415
10256TIP3    H252184   5.680   2.272   6.312 -0.8519 -0.7111  0.3550
10257TIP3   OH252185   1.577   2.373   3.160 -0.7449  0.0419  0.7296
10257TIP3    H152186   1.558   2.467   3.153 -2.7140 -0.3638  0.2850
10257TIP3    H252187   1.670   2.366   3.140 -1.0451  1.6784 -1.4432
10258TIP3   OH252188   3.313   3.920   3.504 -0.5168  0.2203 -0.1612
10258TIP3    H152189   3.373   3.846   3.516  1.0788  1.2543 -1.6101
10258TIP3    H252190   3.233   3.880   3.470  0.0093 -0.9558 -0.0487
10259TIP3   OH252191   2.428   2.626   1.522 -0.0491 -0.0042 -0.0128
10259TIP3    H152192   2.465   2.539   1.506 -0.1153  0.0159 -0.2840
10259TIP3    H252193   2.485   2.664   1.588 -1.1946 -1.0108  1.5799
10260TIP3   OH252194   5.963   5.369   3.368  0.2666 -0.0504  0.8698
10260TIP3    H152195   6.017   5.375   3.446 -0.7957 -2.1568  1.8278
10260TIP3    H252196   5.893   5.432   3.381  1.9659  2.0617  0.0177
10261TIP3   OH252197   5.648   2.286  14.535  0.6477 -0.0610  0.4655
10261TIP3    H152198   5.716   2.276  14.469  1.8749 -0.9573  1.8222
10261TIP3    H252199   5.676   2.228  14.606 -1.6670 -0.6417  0.9345
10262TIP3   OH252200   5.506   3.376   1.406 -0.3656  0.4351  0.0859
10262TIP3    H152201   5.562   3.422   1.468  0.2944 -0.2635  0.0113
10262TIP3    H252202   5.559   3.368   1.327 -0.6219 -0.1163 -0.0339
10263TIP3   OH252203   3.610   4.707  14.222 -0.7679  0.6851 -0.6838
10263TIP3    H152204   3.661   4.627  14.233  0.0056  1.1095 -1.1184
10263TIP3    H252205   3.666   4.764  14.169 -0.0944  2.6197  2.0164
10264TIP3   OH252206   3.616   1.701  14.521  0.0159  0.7262 -1.0771
10264TIP3    H152207   3.534   1.750  14.523 -0.5389 -0.2302  1.5532
10264TIP3    H252208   3.681   1.762  14.556 -0.3346  0.2207  0.4978
10265TIP3   OH252209   3.993   3.502   0.608  1.0481 -0.0564 -0.6962
10265TIP3    H152210   3.988   3.487   0.514  0.8729  1.5144 -0.9434
10265TIP3    H252211   3.930   3.439   0.645  1.0712 -0.6350 -1.6153
10266TIP3   OH252212   3.617   0.382  14.757 -0.1877  0.2026 -0.0754
10266TIP3    H152213   3.610   0.293  14.724 -2.1964  0.5075 -0.5242
10266TIP3    H252214   3.681   0.376  14.829  0.9306 -1.2617 -1.1713
10267TIP3   OH252215   5.275   2.900  13.845  0.1139 -0.1360  0.1193
10267TIP3    H152216   5.339   2.964  13.874  0.2276 -0.7996  1.3584
10267TIP3    H252217   5.310   2.816  13.874 -1.2999 -0.5051  0.7789
10268TIP3   OH252218   4.511   5.708  13.822  0.2626 -0.0127  0.2611
10268TIP3    H152219   4.465   5.792  13.823 -0.3244 -0.3282  0.1758
10268TIP3    H252220   4.473   5.661  13.747  2.1820  0.5294 -1.0726
10269TIP3   OH252221   3.010   3.215   3.401  0.2525  0.1649  0.4614
10269TIP3    H152222   2.941   3.277   3.376  0.4030 -0.6748 -2.1661
10269TIP3    H252223   3.060   3.201   3.321  1.7175 -1.4875  1.6267
10270TIP3   OH252224   0.456   6.347  10.908  0.1193 -0.2840  0.8508
10270TIP3    H152225   0.520   6.283  10.878  0.4637  0.5457 -0.2399
10270TIP3    H252226   0.391   6.296  10.957 -0.7562 -1.7866 -1.7865
10271TIP3   OH252227   6.371   3.956   2.663 -0.4437  0.9762 -0.2602
10271TIP3    H152228   6.399   4.041   2.697  1.1121 -0.3019  1.7970
10271TIP3    H252229   6.390   3.895   2.734  0.5359 -1.4154 -2.4979
10272TIP3   OH252230   2.630   1.353  11.294 -0.1739  0.2560 -0.5161
10272TIP3    H152231   2.621   1.323  11.384  1.4421 -0.5478 -0.6122
10272TIP3    H252232   2.671   1.280  11.248 -0.4738  0.8706 -1.7832
10273TIP3   OH252233   3.757   4.243   4.310  0.3584 -0.2592  0.2709
10273TIP3    H152234   3.732   4.151   4.300  0.0007 -0.2292  0.8663
10273TIP3    H252235   3.716   4.288   4.236 -0.0927 -0.4591  0.3973
10274TIP3   OH252236   5.885   2.069  15.475  0.0372 -0.5104  0.3326
10274TIP3    H152237   5.909   2.146  15.527 -0.5777  0.9857 -1.5344
10274TIP3    H252238   5.967   2.041  15.434 -0.2011  0.7066 -0.9919
10275TIP3   OH252239   0.682   5.515   4.920 -0.0127 -0.8244 -0.0414
10275TIP3    H152240   0.684   5.545   5.011 -0.2721  0.0430 -0.3107
10275TIP3    H252241   0.774   5.519   4.892 -0.1386  0.5136 -0.3114
10276TIP3   OH252242   5.076   5.118   2.112 -0.6598  0.0933  0.2920
10276TIP3    H152243   5.057   5.070   2.031 -2.4058  0.3324  0.5420
10276TIP3    H252244   4.991   5.151   2.140  0.0118  0.3852  2.0022
10277TIP3   OH252245   3.895   0.757  16.245 -0.2391 -0.3410 -0.0562
10277TIP3    H152246   3.985   0.762  16.277 -0.6993 -0.6233  1.3311
10277TIP3    H252247   3.895   0.679  16.188 -0.3017 -2.1746  2.3587
10278TIP3   OH252248   3.351   0.813   3.000 -0.6071  0.4433  0.2088
10278TIP3    H152249   3.323   0.779   3.085 -1.0730  1.4538  0.4656
10278TIP3    H252250   3.322   0.747   2.937 -1.3236  0.2651  0.7214
10279TIP3   OH252251   4.923   5.381   0.098 -0.1049  0.5129 -0.5792
10279TIP3    H152252   4.892   5.303   0.144  0.8827 -0.7400 -2.0239
10279TIP3    H252253   4.907   5.452   0.160  0.0000 -0.9735  1.2022
10280TIP3   OH252254   2.142   2.807   3.590  0.2665  0.2191 -0.0936
10280TIP3    H152255   2.236   2.820   3.597  0.0887  0.9983  1.0651
10280TIP3    H252256   2.111   2.877   3.533  0.4814 -0.4859 -1.0844
10281TIP3   OH252257   5.037   5.635  14.417  0.2437 -0.0181 -0.4251
10281TIP3    H152258   5.068   5.561  14.364 -0.8736 -0.3072 -0.6921
10281TIP3    H252259   5.064   5.614  14.506 -0.1695 -0.8073 -0.4813
10282TIP3   OH252260   1.008   3.553  11.169 -0.2461 -0.3649 -0.1206
10282TIP3    H152261   1.074   3.530  11.104  0.5148  1.1178  0.0913
10282TIP3    H252262   1.055   3.607  11.232 -1.7126  0.9579 -0.1314
10283TIP3   OH252263   2.090   5.229  14.324  0.3950 -0.0523  0.1522
10283TIP3    H152264   2.156   5.190  14.381  0.1876 -0.3060  0.2189
10283TIP3    H252265   2.064   5.309  14.370 -0.8651 -1.0252  1.1735
10284TIP3   OH252266   6.646   1.146   4.275 -0.0312  0.6065 -0.4264
10284TIP3    H152267   6.627   1.096   4.354  1.6594  0.0054 -0.3941
10284TIP3    H252268   6.653   1.237   4.305  3.2403  0.0681  0.5814
10285TIP3   OH252269   4.467   2.599  10.593  0.2729 -0.4525 -0.3725
10285TIP3    H152270   4.544   2.585  10.647 -0.8964 -0.0341  1.4691
10285TIP3    H252271   4.480   2.685  10.552  0.6436 -0.2588  0.1620
10286TIP3   OH252272   6.438   2.450   6.509 -0.5673 -0.3746  0.1636
10286TIP3    H152273   6.519   2.451   6.559 -0.4791 -3.1395  0.1656
10286TIP3    H252274   6.376   2.402   6.564 -1.4760 -0.4666 -0.9060
10287TIP3   OH252275   1.700   3.969   3.376  0.3691  0.8576  0.3548
10287TIP3    H152276   1.756   3.912   3.429  0.0548 -0.0953 -0.3157
10287TIP3    H252277   1.742   3.970   3.290 -0.5146  0.3108 -0.0903
10288TIP3   OH252278   4.269   4.116   1.453 -0.2481  0.1584 -0.0462
10288TIP3    H152279   4.274   4.029   1.414  0.0614  0.5514 -0.8942
10288TIP3    H252280   4.302   4.175   1.385  0.4432  0.8345  0.8580
10289TIP3   OH252281   6.371   1.498   2.645 -0.2382 -0.1623 -0.5194
10289TIP3    H152282   6.302   1.475   2.708  1.1595  0.0048  1.1193
10289TIP3    H252283   6.432   1.424   2.649 -0.3461 -0.3447 -2.0106
10290TIP3   OH252284   0.185   1.974  13.937 -0.1216  0.4389  0.0015
10290TIP3    H152285   0.191   1.900  13.877 -0.4852  0.7755 -0.4567
10290TIP3    H252286   0.142   1.939  14.015  0.4048 -0.0127  0.0912
10291TIP3   OH252287   2.402   2.382   3.650 -0.2487 -0.2140  0.1777
10291TIP3    H152288   2.336   2.323   3.614  0.1688 -0.5191 -0.0893
10291TIP3    H252289   2.408   2.452   3.585  0.3085 -0.6252 -0.2148
10292TIP3   OH252290   5.776   3.244   2.513 -0.0110 -0.7865 -0.0155
10292TIP3    H152291   5.708   3.179   2.528 -1.8267  1.3526  1.3700
10292TIP3    H252292   5.851   3.213   2.564 -0.8246 -1.8267  0.5637
10293TIP3   OH252293   3.248   2.974   0.013 -0.3718  0.5070  0.0136
10293TIP3    H152294   3.235   3.003  -0.078 -0.8989  0.8831  0.2108
10293TIP3    H252295   3.242   3.055   0.064  1.8171  0.5811  0.2008
10294TIP3   OH252296   6.674   5.777  12.716 -0.3067  0.0714 -0.1002
10294TIP3    H152297   6.662   5.858  12.666 -1.7618  0.0511  0.2022
10294TIP3    H252298   6.759   5.743  12.687 -1.5277 -0.4165 -3.2229
10295TIP3   OH252299   1.850   5.785   5.682  0.3618 -0.3064 -0.0185
10295TIP3    H152300   1.887   5.869   5.656  0.9096 -0.5020  0.1162
10295TIP3    H252301   1.926   5.732   5.707  0.1359 -1.2663 -1.3035
10296TIP3   OH252302   0.939   4.772   1.864  0.3911 -0.4391 -0.0199
10296TIP3    H152303   0.969   4.818   1.785 -1.1742  2.3208  0.9124
10296TIP3    H252304   0.883   4.702   1.832 -1.1776  1.3782 -1.3724
10297TIP3   OH252305   1.594   5.142  12.625 -0.4527 -0.4947 -0.0470
10297TIP3    H152306   1.544   5.194  12.562  1.2638  0.1387 -0.8995
10297TIP3    H252307   1.659   5.096  12.573 -0.7853 -2.1089  0.9381
10298TIP3   OH252308   3.721   6.034   0.630  0.0978 -0.3631 -0.0035
10298TIP3    H152309   3.787   6.082   0.580  0.1259  1.5129  1.7354
10298TIP3    H252310   3.761   5.949   0.649  2.2509  0.9361  1.4441
10299TIP3   OH252311   3.585   3.760   0.369  0.0050  0.2933  0.1254
10299TIP3    H152312   3.599   3.674   0.328 -0.1901  0.6622 -0.7362
10299TIP3    H252313   3.522   3.804   0.312 -0.9048  0.5159  1.2892
10300TIP3   OH252314   4.476   0.601  15.045  0.0506 -0.0107  0.0372
10300TIP3    H152315   4.381   0.593  15.041 -0.2233  1.3643  2.8353
10300TIP3    H252316   4.502   0.543  15.116  0.8010  2.9191  2.2475
10301TIP3   OH252317   4.837   2.510  16.708 -0.3012  0.3408 -1.0913
10301TIP3    H152318   4.872   2.559  16.782 -1.0663 -0.4275 -0.2047
10301TIP3    H252319   4.776   2.570  16.666  1.1382  1.2539 -1.9215
10302TIP3   OH252320   1.948   6.177   1.731  0.0716 -0.0541  0.3214
10302TIP3    H152321   2.040   6.202   1.726 -0.1599  1.2900  2.4076
10302TIP3    H252322   1.950   6.088   1.766  0.5786 -0.1218  0.1291
10303TIP3   OH252323   6.013   4.538   3.236  0.3653 -0.2535 -0.6641
10303TIP3    H152324   6.036   4.540   3.143 -0.5587  3.8798 -0.8880
10303TIP3    H252325   5.918   4.531   3.237  0.3453  0.1173 -0.0201
10304TIP3   OH252326   3.071   6.605  14.917  0.5045  0.0640  0.0042
10304TIP3    H152327   3.017   6.656  14.977  0.0362 -0.4788  0.0556
10304TIP3    H252328   3.151   6.656  14.906 -0.5927  1.6019 -1.1979
10305TIP3   OH252329   5.533   4.091   6.294  0.0366  0.0443  0.0152
10305TIP3    H152330   5.520   4.163   6.233 -1.3582 -0.5666 -0.4235
10305TIP3    H252331   5.543   4.133   6.380  0.5815  0.8204 -0.4237
10306TIP3   OH252332   6.019   6.528   0.623 -0.1034 -0.1148 -0.8513
10306TIP3    H152333   5.986   6.446   0.587 -0.1747  0.5471 -2.3209
10306TIP3    H252334   5.941   6.578   0.647 -0.0828  0.0311 -1.0937
10307TIP3   OH252335   2.956   1.304  13.699  0.4611  0.2469  0.2450
10307TIP3    H152336   2.962   1.221  13.747 -0.8387  0.1562  0.2778
10307TIP3    H252337   2.996   1.368  13.758  1.1623 -0.3032  0.3711
10308TIP3   OH252338   5.354   5.414   4.773 -0.1638  0.1017  0.6657
10308TIP3    H152339   5.449   5.413   4.780 -0.1946  1.6908  1.6532
10308TIP3    H252340   5.334   5.355   4.700  1.6250  0.3819 -0.0733
10309TIP3   OH252341   1.494   2.690  13.223  0.0221 -0.2134  0.1711
10309TIP3    H152342   1.482   2.764  13.164  0.3983 -1.2883 -1.2969
10309TIP3    H252343   1.424   2.630  13.200  1.0959 -1.3251 -0.2717
10310TIP3   OH252344   5.853   5.564   1.624  0.2402 -1.0335  1.0664
10310TIP3    H152345   5.860   5.577   1.718  3.3510  0.6066  0.6466
10310TIP3    H252346   5.943   5.560   1.593 -0.7231 -2.6288 -1.7253
10311TIP3   OH252347   2.077   1.181   0.163  0.2072 -0.7674 -0.2517
10311TIP3    H152348   2.114   1.259   0.122  1.6537 -1.7349 -0.8075
10311TIP3    H252349   1.982   1.196   0.161  0.5402  1.8551  1.4296
10312TIP3   OH252350   5.210   0.606   6.282 -0.2273  0.1362  0.2937
10312TIP3    H152351   5.238   0.544   6.214 -1.2241  0.3428 -0.3240
10312TIP3    H252352   5.116   0.590   6.291 -0.2971  0.8592  0.8577
10313TIP3   OH252353   2.283   6.152   0.802  0.1894  0.3998 -0.5059
10313TIP3    H152354   2.236   6.082   0.847 -0.0096  0.3967 -0.7232
10313TIP3    H252355   2.249   6.151   0.713 -0.6183  1.5136 -0.2163
10314TIP3   OH252356   5.694   4.755  11.673 -0.2728 -0.4903 -0.2029
10314TIP3    H152357   5.648   4.775  11.755 -0.5423 -0.0528 -0.4587
10314TIP3    H252358   5.640   4.688  11.631 -0.5753 -0.1131 -0.4154
10315TIP3   OH252359   3.380   2.687  13.330  0.2156 -0.4556 -0.2679
10315TIP3    H152360   3.379   2.618  13.264 -0.6456 -1.0271  0.3315
10315TIP3    H252361   3.288   2.706  13.346  0.3805 -0.9839  1.4446
10316TIP3   OH252362   5.972   6.478  15.576  0.1696  0.4503 -0.0999
10316TIP3    H152363   5.996   6.420  15.504  1.2206  3.4046 -2.2036
10316TIP3    H252364   5.880   6.455  15.595  1.0856 -3.1122  0.4077
10317TIP3   OH252365   6.240   0.094   2.818  0.5646  0.0914 -0.5310
10317TIP3    H152366   6.331   0.067   2.822  0.5210  0.0599  0.1907
10317TIP3    H252367   6.190   0.012   2.821  0.4684  0.1872  0.5354
10318TIP3   OH252368   0.256   4.598  10.905  0.5312  0.4958  0.2288
10318TIP3    H152369   0.340   4.581  10.947  0.9629  0.4729 -0.6474
10318TIP3    H252370   0.203   4.521  10.926  1.2303 -0.1911 -0.4998
10319TIP3   OH252371   1.400   2.166  11.462  0.3672  0.1497  0.0129
10319TIP3    H152372   1.337   2.196  11.527 -0.8234 -1.6290 -0.2762
10319TIP3    H252373   1.363   2.084  11.429  4.1160 -2.3842  1.7574
10320TIP3   OH252374   3.663   3.450   0.367 -0.2988  0.1917 -0.5057
10320TIP3    H152375   3.606   3.382   0.403 -0.8938  0.8178 -0.2323
10320TIP3    H252376   3.649   3.446   0.273 -1.1062  0.5921 -0.4142
10321TIP3   OH252377   0.480   3.679  16.192  0.0911 -0.0139  0.4567
10321TIP3    H152378   0.457   3.754  16.137 -1.5292  0.3744  1.6287
10321TIP3    H252379   0.553   3.638  16.147  0.0767  1.4467 -0.9469
10322TIP3   OH252380   5.961   5.777  16.523  0.9914 -0.1608 -0.0283
10322TIP3    H152381   5.920   5.818  16.447 -0.1861  0.1851  0.7833
10322TIP3    H252382   5.927   5.688  16.523  1.5591 -0.3864 -0.3039
10323TIP3   OH252383   5.673   5.611   0.981  0.1312 -0.4806  0.2504
10323TIP3    H152384   5.586   5.598   0.943  0.0543 -1.1248  0.6272
10323TIP3    H252385   5.659   5.673   1.052  0.3308  0.9701 -0.9713
10324TIP3   OH252386   1.496   0.702   4.705  0.0564  0.1562  0.1675
10324TIP3    H152387   1.445   0.741   4.777 -2.9410 -3.1541  0.0079
10324TIP3    H252388   1.455   0.736   4.626  0.1625 -0.0601  0.0209
10325TIP3   OH252389   5.130   3.073  17.227 -0.0260 -0.7498 -0.1195
10325TIP3    H152390   5.179   2.992  17.216  0.6535 -0.1871 -1.4114
10325TIP3    H252391   5.102   3.096  17.138 -0.2729  0.3791  0.2444
10326TIP3   OH252392   5.951   3.079   0.294  0.4530 -0.1395 -0.0742
10326TIP3    H152393   5.965   3.082   0.389  1.7227  0.1732 -0.2545
10326TIP3    H252394   5.910   3.163   0.273 -1.1371 -0.7840  0.3792
10327TIP3   OH252395   0.767   3.308   2.153  0.2457 -0.5003 -0.2366
10327TIP3    H152396   0.813   3.229   2.183  0.0730 -0.8672 -0.9335
10327TIP3    H252397   0.800   3.377   2.211  0.7877 -0.9837  0.0476
10328TIP3   OH252398   6.774   3.913   3.224 -0.3216  0.5199 -0.3573
10328TIP3    H152399   6.764   3.976   3.295  1.4841 -0.1719  0.5433
10328TIP3    H252400   6.869   3.898   3.218 -0.5656 -0.5769 -1.9048
10329TIP3   OH252401   2.450   4.359   5.458 -0.0598 -0.1934  0.1293
10329TIP3    H152402   2.420   4.450   5.453  0.6020  0.0318  0.1896
10329TIP3    H252403   2.534   4.365   5.504 -0.1943 -0.8776  0.4650
10330TIP3   OH252404   6.595   3.166  12.172  0.1835  0.3728  0.5669
10330TIP3    H152405   6.613   3.228  12.101 -1.8031  0.0075 -0.2934
10330TIP3    H252406   6.552   3.092  12.129 -1.1586  0.1999  2.1792
10331TIP3   OH252407   4.582   1.302  14.711  0.0352 -0.0839 -0.8290
10331TIP3    H152408   4.614   1.374  14.765 -1.5362 -0.7843  1.0982
10331TIP3    H252409   4.550   1.344  14.631  0.2148  1.2262 -0.2226
10332TIP3   OH252410   4.309   2.004   2.577 -0.2585  0.0911  0.1786
10332TIP3    H152411   4.245   2.053   2.527  0.6156  1.3874  0.3155
10332TIP3    H252412   4.394   2.042   2.553  0.4376 -1.3731  0.2543
10333TIP3   OH252413   2.887   0.968   5.354 -0.3692  0.2871 -0.4059
10333TIP3    H152414   2.881   0.910   5.278  1.0663 -0.7955  0.2712
10333TIP3    H252415   2.981   0.974   5.371 -0.7822 -1.4249  2.7332
10334TIP3   OH252416   3.174   2.445   6.398 -0.8323  0.2439 -0.1938
10334TIP3    H152417   3.261   2.475   6.370 -0.6484  0.9892  1.1588
10334TIP3    H252418   3.144   2.512   6.459 -2.2582 -0.1500 -0.4372
10335TIP3   OH252419   2.781   0.160   2.555  0.2270  0.0553 -0.3228
10335TIP3    H152420   2.723   0.102   2.604  1.9529 -2.7434 -1.4382
10335TIP3    H252421   2.785   0.121   2.468  1.4710  1.8601 -1.1007
10336TIP3   OH252422   0.818   2.970  17.107 -0.5131  0.2728  0.2348
10336TIP3    H152423   0.725   2.989  17.121 -0.6095  0.7501 -1.0403
10336TIP3    H252424   0.863   3.047  17.143 -0.6854  0.7696 -0.6163
10337TIP3   OH252425   4.264   1.031   3.822 -1.0830  0.3382 -0.3400
10337TIP3    H152426   4.223   1.083   3.752 -1.9596 -1.8730 -1.5093
10337TIP3    H252427   4.191   0.992   3.869 -0.4119 -2.6254 -1.6731
10338TIP3   OH252428   6.094   3.705  12.021 -0.3211 -0.2334 -0.4205
10338TIP3    H152429   6.073   3.731  11.931  0.8306 -1.7225 -1.1326
10338TIP3    H252430   6.066   3.780  12.074 -4.5053 -0.8808 -1.5894
10339TIP3   OH252431   6.131   0.353  10.527  0.8682  0.4502 -0.0361
10339TIP3    H152432   6.064   0.413  10.559 -0.5294  0.1640 -2.3423
10339TIP3    H252433   6.102   0.267  10.559 -0.4326  0.1890 -1.8394
10340TIP3   OH252434   6.040   2.040   1.127 -0.2117 -0.0144 -0.6749
10340TIP3    H152435   6.014   2.068   1.039  2.2026  1.4451 -0.9566
10340TIP3    H252436   6.051   2.122   1.176  0.9882 -0.7088  0.2439
10341TIP3   OH252437   0.124   4.925  11.265  0.1280  0.6498  0.3458
10341TIP3    H152438   0.137   4.913  11.359 -0.3305 -1.0337  0.2105
10341TIP3    H252439   0.063   4.856  11.241 -0.2909  1.5093 -1.0701
10342TIP3   OH252440   0.133   0.629  15.118  0.3863  0.2192  0.3737
10342TIP3    H152441   0.043   0.616  15.087  0.2390 -0.8225  1.1859
10342TIP3    H252442   0.138   0.722  15.139  0.0224  0.6288 -1.2974
10343TIP3   OH252443   1.686   3.978   4.332  0.1406  0.4125 -0.2684
10343TIP3    H152444   1.677   3.900   4.278 -0.4242 -1.2205  2.0913
10343TIP3    H252445   1.747   4.034   4.285  2.0004 -2.2677 -1.1271
10344TIP3   OH252446   5.107   6.208  12.879  0.3260  0.2556 -0.6059
10344TIP3    H152447   5.096   6.193  12.973  1.4987  0.0174 -0.5063
10344TIP3    H252448   5.074   6.297  12.865 -1.9654 -0.5233 -0.3592
10345TIP3   OH252449   6.255   1.205   5.356 -0.2519  0.1718  0.0346
10345TIP3    H152450   6.194   1.267   5.396  0.3320  0.2321  0.8380
10345TIP3    H252451   6.257   1.131   5.416 -0.4409 -0.3499 -0.5938
10346TIP3   OH252452   5.708   5.333   1.660  0.3422  0.4694 -0.2132
10346TIP3    H152453   5.766   5.324   1.736 -0.6194  0.7175  0.5552
10346TIP3    H252454   5.749   5.401   1.607  0.9690  0.3698  0.1327
10347TIP3   OH252455   0.557   2.860   0.281 -0.1908  0.3114 -0.5458
10347TIP3    H152456   0.530   2.881   0.191  3.1503  0.5480 -1.5526
10347TIP3    H252457   0.517   2.929   0.334 -3.0322 -0.3828 -1.6813
10348TIP3   OH252458   6.339   3.377   5.933  0.5703 -0.0420  0.5906
10348TIP3    H152459   6.413   3.381   5.873  0.1275  4.0584  0.1941
10348TIP3    H252460   6.270   3.427   5.891 -0.8087  0.3011  3.1251
10349TIP3   OH252461   5.266   3.139  13.224 -0.2910  0.6375  0.3379
10349TIP3    H152462   5.176   3.124  13.197  0.0444 -2.3421  0.7643
10349TIP3    H252463   5.290   3.221  13.181 -2.8166  0.8680 -0.7189
10350TIP3   OH252464   2.683   3.669  16.330 -0.1570 -0.1391 -0.0301
10350TIP3    H152465   2.719   3.724  16.399  0.6953 -0.2533 -0.3769
10350TIP3    H252466   2.591   3.659  16.353 -0.1447  0.7859  0.4582
10351TIP3   OH252467   3.163   0.358   4.884  0.6532 -0.0740 -0.5413
10351TIP3    H152468   3.251   0.366   4.920  0.3803  1.1998 -0.1458
10351TIP3    H252469   3.167   0.404   4.800  0.1844  0.6196 -0.1899
10352TIP3   OH252470   1.816   0.682   2.059  0.1133 -0.1889 -0.4357
10352TIP3    H152471   1.820   0.709   2.151  0.1000 -1.3445 -0.0905
10352TIP3    H252472   1.723   0.663   2.044  0.1519 -0.2279 -0.6213
10353TIP3   OH252473   0.580   0.166  12.823 -0.2650 -0.0820  0.5075
10353TIP3    H152474   0.533   0.092  12.862  1.8904 -1.6429  0.2098
10353TIP3    H252475   0.544   0.243  12.868 -1.7654 -1.3757  1.6028
10354TIP3   OH252476   2.199   4.398   0.055  0.2489 -0.7437 -0.0959
10354TIP3    H152477   2.214   4.492   0.046 -0.1123 -0.7705 -1.0802
10354TIP3    H252478   2.137   4.377  -0.015 -1.6727 -1.2567  1.7050
10355TIP3   OH252479   2.921   0.222  15.766 -1.2245  0.0855 -0.0104
10355TIP3    H152480   2.930   0.310  15.803  0.3708 -0.0542 -0.0482
10355TIP3    H252481   2.942   0.232  15.673  1.6352 -0.7871  0.4997
10356TIP3   OH252482   4.318   4.146  11.229  0.6158  0.0950 -0.1194
10356TIP3    H152483   4.367   4.160  11.149 -0.3832 -2.8932 -1.3359
10356TIP3    H252484   4.235   4.107  11.200  0.6687 -2.0664  2.3977
10357TIP3   OH252485   3.863   2.127  12.585 -0.1408  0.4668  1.2227
10357TIP3    H152486   3.916   2.179  12.646  3.4648 -2.4711  0.7802
10357TIP3    H252487   3.860   2.179  12.505  1.4058  1.0599  1.5378
10358TIP3   OH252488   6.628   0.875  16.572  0.0864 -0.1366  0.3415
10358TIP3    H152489   6.665   0.855  16.486 -1.1695  1.3582 -0.5641
10358TIP3    H252490   6.625   0.970  16.576  1.4577 -0.1478  2.6542
10359TIP3   OH252491   2.392   0.531   3.435  0.3269  0.0175  0.2941
10359TIP3    H152492   2.417   0.608   3.384 -1.3664  0.6291  0.3564
10359TIP3    H252493   2.300   0.545   3.457  0.4406 -1.2545  1.7024
10360TIP3   OH252494   3.929   5.392   2.370 -0.0064 -0.5900 -0.1697
10360TIP3    H152495   3.982   5.313   2.382  1.2296  0.2523  0.1077
10360TIP3    H252496   3.891   5.408   2.456  0.2439 -0.5519 -0.0633
10361TIP3   OH252497   3.837   0.596   4.095 -0.1237  0.1372  0.0812
10361TIP3    H152498   3.850   0.689   4.076  0.2364 -0.2018 -1.4157
10361TIP3    H252499   3.913   0.553   4.055 -0.4608 -0.8210  0.4746
10362TIP3   OH252500   6.535   3.396   4.750  0.4027  0.1099 -0.1629
10362TIP3    H152501   6.593   3.410   4.675  1.8027  2.1113  1.2503
10362TIP3    H252502   6.452   3.435   4.724  1.0714  1.3702 -0.4553
10363TIP3   OH252503   5.849   0.693  14.102 -0.1490  0.1182 -0.6002
10363TIP3    H152504   5.830   0.607  14.065  1.9230 -0.8130  0.3903
10363TIP3    H252505   5.905   0.675  14.178 -1.6399  2.1908  1.0496
10364TIP3   OH252506   2.714   6.170   2.168 -0.5257 -0.5227  0.1739
10364TIP3    H152507   2.758   6.249   2.200  0.6250 -0.7095 -0.8926
10364TIP3    H252508   2.694   6.120   2.247 -0.9140  0.6553  0.8301
10365TIP3   OH252509   1.630   6.664  15.410  0.2535  0.0463  0.5092
10365TIP3    H152510   1.654   6.679  15.502  3.0016  0.3949 -0.2420
10365TIP3    H252511   1.708   6.687  15.360 -0.6361 -1.7728 -1.8147
10366TIP3   OH252512   6.399   1.406  14.674 -0.3695  0.1585 -0.0583
10366TIP3    H152513   6.461   1.389  14.602 -0.1654  2.2534 -0.4100
10366TIP3    H252514   6.333   1.337  14.666  0.3469 -0.3816 -1.4774
10367TIP3   OH252515   2.227   2.816  16.964  1.1090 -0.0495  0.5534
10367TIP3    H152516   2.215   2.909  16.943 -2.4157 -0.3953  0.7635
10367TIP3    H252517   2.237   2.773  16.879 -1.3646  0.0426  0.1828
10368TIP3   OH252518   0.805   1.827   6.369  0.0867  0.5197  0.1239
10368TIP3    H152519   0.853   1.847   6.449 -0.0678  0.8504  0.1363
10368TIP3    H252520   0.808   1.908   6.318 -1.5456  0.9578  0.6865
10369TIP3   OH252521   1.707   3.480   0.490  0.8170  0.1954  0.1850
10369TIP3    H152522   1.690   3.514   0.578 -2.1344 -0.5453 -0.0657
10369TIP3    H252523   1.642   3.523   0.435  1.2405 -1.0051 -1.2740
10370TIP3   OH252524   2.361   2.619   2.905  0.2771 -0.2422 -0.1286
10370TIP3    H152525   2.435   2.661   2.948 -0.3337  1.3422 -0.5552
10370TIP3    H252526   2.284   2.656   2.948 -0.2777 -1.2880 -0.1999
10371TIP3   OH252527   4.019   5.101   4.059 -0.4040 -0.5537 -0.2098
10371TIP3    H152528   4.016   5.135   3.969 -0.9228 -1.1074 -0.4123
10371TIP3    H252529   3.935   5.127   4.097  1.0595  2.4133  1.1600
10372TIP3   OH252530   6.308   1.616   1.303 -0.2965  0.8340 -0.5951
10372TIP3    H152531   6.318   1.618   1.208  0.4694  1.3574 -0.5047
10372TIP3    H252532   6.222   1.576   1.317  0.0979 -0.3770 -1.4801
10373TIP3   OH252533   5.713   2.973   2.887 -0.1078  0.7225 -0.2106
10373TIP3    H152534   5.712   2.878   2.899 -1.6573  0.6802 -0.5136
10373TIP3    H252535   5.623   3.000   2.908  0.0437  1.9898 -1.1734
10374TIP3   OH252536   0.727   5.012  12.290  0.4732  0.3424 -0.1125
10374TIP3    H152537   0.706   5.022  12.197 -1.1845  0.3433  0.2418
10374TIP3    H252538   0.781   5.089  12.310 -1.0831  1.5812 -0.5413
10375TIP3   OH252539   3.799   1.625   3.389 -0.1469 -0.0738  0.1384
10375TIP3    H152540   3.878   1.646   3.339  1.3788 -0.0001  2.4775
10375TIP3    H252541   3.730   1.618   3.323  1.5635  1.0328 -1.8479
10376TIP3   OH252542   2.288   6.383   0.651 -0.0718  0.3885 -0.7441
10376TIP3    H152543   2.298   6.325   0.725  0.3257  1.0867 -0.2439
10376TIP3    H252544   2.289   6.471   0.689 -0.0362  0.7433 -1.5527
10377TIP3   OH252545   6.496   0.407  14.057  0.4242  0.0421 -0.4240
10377TIP3    H152546   6.561   0.355  14.105  0.1765  1.3112  1.3502
10377TIP3    H252547   6.460   0.347  13.992  0.4872 -1.8522  1.2552
10378TIP3   OH252548   2.543   3.048   4.780  0.7673  0.2717  0.2786
10378TIP3    H152549   2.569   3.112   4.714 -1.1393 -0.4325 -1.2303
10378TIP3    H252550   2.563   3.090   4.863 -1.3516  3.2964 -0.6394
10379TIP3   OH252551   3.961   0.878  14.694 -0.2528  0.1689  0.0711
10379TIP3    H152552   4.011   0.960  14.696 -0.0932  0.1195 -1.1191
10379TIP3    H252553   4.024   0.813  14.662 -0.4420 -0.3695  0.7897
10380TIP3   OH252554   3.579   2.225  13.103 -0.3416 -0.5050 -0.6714
10380TIP3    H152555   3.560   2.310  13.063  0.7904  0.9095  1.6682
10380TIP3    H252556   3.637   2.181  13.041 -2.4690 -0.4091 -2.8026
10381TIP3   OH252557   1.701   4.668  11.286  0.1964 -0.3442 -0.1777
10381TIP3    H152558   1.631   4.731  11.298 -0.5569 -1.3567  0.9004
10381TIP3    H252559   1.689   4.634  11.197 -1.0826 -0.9675  0.2228
10382TIP3   OH252560   0.410   5.068   5.096  0.1299 -0.0850 -0.1406
10382TIP3    H152561   0.331   5.096   5.051  0.7451  1.1347 -0.4872
10382TIP3    H252562   0.443   5.148   5.138  2.2995 -0.1117 -1.7135
10383TIP3   OH252563   4.641   1.158   4.465  0.1425 -0.0336  0.4257
10383TIP3    H152564   4.734   1.161   4.442 -0.1683 -0.7555 -1.0065
10383TIP3    H252565   4.596   1.182   4.384 -0.9007  0.8086  1.2572
10384TIP3   OH252566   5.293   5.006   5.446  0.2626 -0.2313 -0.1331
10384TIP3    H152567   5.290   5.010   5.541 -0.0275 -0.2008 -0.1440
10384TIP3    H252568   5.385   5.022   5.424  0.2650  0.1128  0.1260
10385TIP3   OH252569   3.265   5.246   5.435 -0.0024  0.3017 -0.3251
10385TIP3    H152570   3.349   5.212   5.405 -0.9422 -2.1237 -0.2967
10385TIP3    H252571   3.217   5.266   5.355 -0.3625 -0.7803 -0.3874
10386TIP3   OH252572   3.090   1.484   2.224  0.1980 -0.3674  0.5477
10386TIP3    H152573   3.119   1.564   2.266  0.0394  0.4244 -0.8224
10386TIP3    H252574   3.158   1.419   2.246 -0.5009 -0.3120  3.0027
10387TIP3   OH252575   1.242   5.389   4.746  0.1247 -0.2273 -0.0446
10387TIP3    H152576   1.295   5.358   4.818  2.4412  1.1510 -1.0947
10387TIP3    H252577   1.201   5.310   4.710  1.5276 -1.3273  0.7382
10388TIP3   OH252578   6.297   0.847   4.473 -0.1819 -0.4669  0.1087
10388TIP3    H152579   6.390   0.834   4.451  0.3749  2.5989  0.3759
10388TIP3    H252580   6.276   0.776   4.533  2.0452 -1.1628  0.1054
10389TIP3   OH252581   5.685   4.246   5.099  0.2975  0.1532  0.2082
10389TIP3    H152582   5.596   4.243   5.065  0.2090  0.0493  0.4467
10389TIP3    H252583   5.675   4.279   5.189  0.5832  0.9782 -0.0584
10390TIP3   OH252584   1.581   4.960   3.212  0.8589 -0.1950  0.1870
10390TIP3    H152585   1.601   5.036   3.268  0.8141 -0.2308  0.2502
10390TIP3    H252586   1.503   4.921   3.251 -1.1349  1.6733 -1.7749
10391TIP3   OH252587   1.507   6.646  13.455  0.3076 -0.1111  0.2834
10391TIP3    H152588   1.487   6.736  13.478 -1.0286  0.0649 -1.4200
10391TIP3    H252589   1.438   6.594  13.497  0.1266 -0.1642 -0.0728
10392TIP3   OH252590   3.594   4.991   0.625 -0.0038 -0.1715  0.4793
10392TIP3    H152591   3.514   4.966   0.670  0.2313 -1.4076  0.2390
10392TIP3    H252592   3.663   4.982   0.691 -0.3283  3.0667  1.3344
10393TIP3   OH252593   1.913   6.487  14.075 -0.2213  0.4175 -0.4251
10393TIP3    H152594   1.936   6.427  14.004  1.1716 -2.5121  2.3796
10393TIP3    H252595   1.997   6.508  14.116 -1.0938  1.3615  0.9135
10394TIP3   OH252596   3.897   5.456   4.224 -0.6088 -0.0820  0.0146
10394TIP3    H152597   3.926   5.494   4.306 -2.2248  1.8475 -0.2684
10394TIP3    H252598   3.952   5.497   4.157 -3.1807  2.8739 -0.4239
10395TIP3   OH252599   3.272   5.245  14.461  0.2912 -0.4439  0.4587
10395TIP3    H152600   3.184   5.257  14.424  0.9065  1.7042 -0.3663
10395TIP3    H252601   3.267   5.284  14.548 -0.3074 -2.7833  1.5093
10396TIP3   OH252602   3.886   3.497   4.923 -0.2261 -0.0507 -0.6570
10396TIP3    H152603   3.927   3.553   4.858  0.8724  0.4622  0.4682
10396TIP3    H252604   3.951   3.430   4.942 -0.0459  0.5039  0.7906
10397TIP3   OH252605   5.553   5.165   4.155 -0.0619 -0.0865  0.5813
10397TIP3    H152606   5.492   5.127   4.219  0.9301 -0.5934  1.2322
10397TIP3    H252607   5.635   5.175   4.203  0.8569 -0.9914 -0.7702
10398TIP3   OH252608   4.716   4.523  15.928 -0.3797  0.0030 -0.4161
10398TIP3    H152609   4.707   4.595  15.867  1.9971  1.9086  1.3841
10398TIP3    H252610   4.656   4.545  16.000 -0.1478 -0.1384 -0.1796
10399TIP3   OH252611   2.863   5.337   3.113  0.0566 -0.2145 -0.2306
10399TIP3    H152612   2.853   5.317   3.019  0.2085 -0.7298 -0.1380
10399TIP3    H252613   2.950   5.304   3.135  0.2409  0.4023 -0.0333
10400TIP3   OH252614   5.219   4.796   1.087  0.6362 -0.1963 -0.1600
10400TIP3    H152615   5.293   4.851   1.060  0.6390 -0.4732 -0.7311
10400TIP3    H252616   5.149   4.858   1.105  1.5392  0.1808  2.1178
10401TIP3   OH252617   6.460   0.100   1.503  0.3791  0.2824 -0.0636
10401TIP3    H152618   6.419   0.050   1.573 -0.6879  1.8972  0.4865
10401TIP3    H252619   6.389   0.153   1.466  0.9570 -0.4046 -2.2517
10402TIP3   OH252620   6.782   1.392  16.425  0.2440 -0.5339  0.6353
10402TIP3    H152621   6.741   1.421  16.344 -0.5193 -1.2766  0.7473
10402TIP3    H252622   6.816   1.472  16.465 -0.8346  0.0494  0.3900
10403TIP3   OH252623   1.790   0.025  11.956 -0.2896  0.6880  0.1221
10403TIP3    H152624   1.850  -0.042  11.922 -0.4188  0.4280  0.3994
10403TIP3    H252625   1.707  -0.022  11.966  0.5118 -0.0799  3.8331
10404TIP3   OH252626   1.332   3.558  15.423  0.0359  0.5472 -0.2659
10404TIP3    H152627   1.410   3.569  15.478 -0.0505 -0.8334  0.1394
10404TIP3    H252628   1.258   3.573  15.483 -0.0380  0.0118 -0.2167
10405TIP3   OH252629   4.179   0.323   4.213 -0.0892 -0.5587 -0.0701
10405TIP3    H152630   4.125   0.283   4.280  0.9857 -3.9150 -1.1047
10405TIP3    H252631   4.209   0.405   4.252 -2.5585 -0.5951  2.0400
10406TIP3   OH252632   6.619   2.760   0.002  0.3690  0.0811 -0.3399
10406TIP3    H152633   6.585   2.849  -0.007 -0.9761 -0.5079 -1.3935
10406TIP3    H252634   6.657   2.757   0.090 -1.4399  1.0878  0.5040
10407TIP3   OH252635   5.081   2.673   1.616  0.2680 -0.1857 -0.1386
10407TIP3    H152636   4.996   2.677   1.661  1.3015  2.4348  1.7016
10407TIP3    H252637   5.099   2.763   1.591  2.2236 -0.8198 -1.1165
10408TIP3   OH252638   6.286   3.952  14.338  0.1189  0.0274  0.1601
10408TIP3    H152639   6.244   3.888  14.395 -2.2967  2.7067  1.5564
10408TIP3    H252640   6.228   3.961  14.263  2.3123 -2.0466 -1.8851
10409TIP3   OH252641   4.809   3.103  15.720 -0.1239  0.0501 -0.3687
10409TIP3    H152642   4.878   3.119  15.655  0.8355  1.4094  0.9695
10409TIP3    H252643   4.754   3.181  15.717 -1.8743 -1.1919 -1.7111
10410TIP3   OH252644   5.748   5.447  12.453  0.0021  0.2370  0.3017
10410TIP3    H152645   5.790   5.361  12.455 -0.1952  0.1178 -0.6848
10410TIP3    H252646   5.754   5.478  12.544 -0.1169 -0.9019  0.7069
10411TIP3   OH252647   3.955   3.812  14.633  0.0292 -0.2910  0.5925
10411TIP3    H152648   3.861   3.797  14.636 -0.0474 -0.0442 -0.3969
10411TIP3    H252649   3.994   3.726  14.646 -0.3214 -0.3446  1.3244
10412TIP3   OH252650   1.002   3.911  11.067  1.1485  0.0268  0.2051
10412TIP3    H152651   1.043   3.872  10.990 -0.3593 -0.3354 -0.4452
10412TIP3    H252652   0.929   3.852  11.086 -0.1003  1.5807  0.2813
10413TIP3   OH252653   1.959   6.574   2.651  0.2378  0.4013  0.1183
10413TIP3    H152654   1.917   6.617   2.577 -0.7606 -1.4840 -0.4261
10413TIP3    H252655   2.033   6.527   2.613  0.4837  0.4673  0.5110
10414TIP3   OH252656   1.695   3.438   5.035  0.1205 -0.6605 -0.2305
10414TIP3    H152657   1.673   3.345   5.028 -0.7407 -0.4753 -0.0485
10414TIP3    H252658   1.613   3.484   5.019 -0.0657 -0.0069  2.2795
10415TIP3   OH252659   3.552   1.557  14.912 -0.1555 -0.2952 -0.1324
10415TIP3    H152660   3.561   1.646  14.878  2.6043 -0.3033  0.4421
10415TIP3    H252661   3.517   1.506  14.838 -0.1110  0.9165 -1.0005
10416TIP3   OH252662   2.055   2.542   3.655 -0.2748 -0.1956  0.0958
10416TIP3    H152663   2.077   2.524   3.564  0.4044  0.5472  0.1084
10416TIP3    H252664   2.063   2.638   3.663  1.4273 -0.4185  1.3893
10417TIP3   OH252665   4.855   2.959   2.938 -0.1967 -0.2058 -0.2537
10417TIP3    H152666   4.830   3.002   2.856 -0.7149 -0.0898 -0.0334
10417TIP3    H252667   4.852   2.866   2.917 -0.4155 -0.1799 -0.3455
10418TIP3   OH252668   4.015   6.005  14.231 -0.3344  0.3616 -0.2591
10418TIP3    H152669   3.978   6.035  14.314 -0.9352  2.7588 -1.3532
10418TIP3    H252670   4.098   5.963  14.256 -0.4095  1.2130  1.5132
10419TIP3   OH252671   5.285   6.335   1.331 -0.1991 -0.7177  0.2198
10419TIP3    H152672   5.312   6.306   1.244 -0.5163 -1.7453  0.4562
10419TIP3    H252673   5.352   6.301   1.389 -0.5622 -0.9455  0.5014
10420TIP3   OH252674   6.692   3.835   5.339 -0.1002 -0.2523 -0.2245
10420TIP3    H152675   6.621   3.868   5.395 -0.6564 -0.0594 -1.0344
10420TIP3    H252676   6.679   3.741   5.337 -0.2789 -0.2278 -0.2850
10421TIP3   OH252677   5.364   6.146   5.453  0.1469  0.3448 -0.0917
10421TIP3    H152678   5.360   6.051   5.464  0.3001  0.2123 -1.1225
10421TIP3    H252679   5.326   6.181   5.533 -0.1419 -0.5920  0.1881
10422TIP3   OH252680   3.249   5.709   6.625  0.0939 -0.3306 -0.6838
10422TIP3    H152681   3.252   5.801   6.650 -0.1495  0.1224 -2.2999
10422TIP3    H252682   3.331   5.695   6.577  0.6906 -1.2645  0.5854
10423TIP3   OH252683   0.227   1.954  11.529 -0.2345  0.1726  0.4275
10423TIP3    H152684   0.252   1.995  11.612  0.6982 -1.7265  1.1039
10423TIP3    H252685   0.308   1.951  11.478 -0.7351  1.0245 -0.4481
10424TIP3   OH252686   6.623   6.120  16.286 -0.1169  0.3648 -0.7089
10424TIP3    H152687   6.610   6.083  16.198  2.0000 -0.8657 -0.5392
10424TIP3    H252688   6.708   6.164  16.281 -1.2343  2.6698 -0.0321
10425TIP3   OH252689   3.759   5.721  13.805  0.2105 -0.0211 -0.1924
10425TIP3    H152690   3.672   5.756  13.825 -0.0403 -0.1756 -0.9860
10425TIP3    H252691   3.792   5.690  13.889 -0.6774 -0.3329  0.0506
10426TIP3   OH252692   3.700   4.268   0.836 -0.2223  0.0923  0.1101
10426TIP3    H152693   3.779   4.230   0.796 -0.9386  0.1032 -1.3659
10426TIP3    H252694   3.720   4.273   0.929  1.7148  0.5516 -0.3052
10427TIP3   OH252695   2.613   0.282  12.515 -0.6007  0.1378 -0.4976
10427TIP3    H152696   2.604   0.360  12.570 -1.2880 -0.2431 -0.0602
10427TIP3    H252697   2.602   0.314  12.426  2.3858  1.0836 -0.5857
10428TIP3   OH252698   0.382   4.908   2.268  0.3421  0.2439  0.3585
10428TIP3    H152699   0.460   4.958   2.245  0.1455 -0.0707 -1.0526
10428TIP3    H252700   0.341   4.959   2.338  2.4501 -0.2201  2.0065
10429TIP3   OH252701   6.425   4.195   2.726 -0.3386  0.3418  0.2350
10429TIP3    H152702   6.419   4.278   2.679 -0.2628  0.3076  0.1624
10429TIP3    H252703   6.519   4.184   2.740 -0.0945 -1.0324 -2.1065
10430TIP3   OH252704   5.419   5.545   1.430 -0.3057 -0.6367  0.2101
10430TIP3    H152705   5.446   5.622   1.479  0.0573 -0.5912 -0.0584
10430TIP3    H252706   5.363   5.496   1.490  1.1019 -1.1940  1.0757
10431TIP3   OH252707   1.066   6.113   0.421 -0.5246  0.6409  0.0575
10431TIP3    H152708   0.999   6.066   0.372 -0.2044 -1.0171  1.1899
10431TIP3    H252709   1.044   6.099   0.513  1.6465 -0.3530  0.4612
10432TIP3   OH252710   6.091   6.268  12.521 -0.7571 -0.0298  0.3590
10432TIP3    H152711   6.057   6.179  12.508  0.5277 -0.8371  2.1433
10432TIP3    H252712   6.119   6.296  12.434 -2.4517 -0.8258 -0.4655
10433TIP3   OH252713   1.383   4.520  12.100 -0.7286 -0.2815 -0.7750
10433TIP3    H152714   1.335   4.485  12.175 -0.5397  0.9780 -0.0464
10433TIP3    H252715   1.449   4.454  12.079  0.3384  0.1113  1.2594
10434TIP3   OH252716   0.571   2.275   1.541 -0.0530  0.5880 -0.1817
10434TIP3    H152717   0.609   2.202   1.589  0.0770 -0.1720 -1.4347
10434TIP3    H252718   0.640   2.305   1.483 -0.6426  0.6187 -0.8783
10435TIP3   OH252719   6.126   3.602  16.311  0.0756 -0.3989 -0.2652
10435TIP3    H152720   6.095   3.512  16.322  1.1723 -0.7673 -0.1293
10435TIP3    H252721   6.151   3.608  16.219 -0.1970 -0.1648 -0.3254
10436TIP3   OH252722   1.589   0.294   3.961 -0.5777  0.5472 -0.6114
10436TIP3    H152723   1.646   0.233   3.914  0.9959  0.0775  1.8379
10436TIP3    H252724   1.522   0.319   3.897  0.1377 -1.9006 -2.3584
10437TIP3   OH252725   2.564   4.553  16.965 -0.3152 -0.3875 -0.5455
10437TIP3    H152726   2.638   4.542  16.905 -0.5908 -0.0624 -0.9473
10437TIP3    H252727   2.517   4.630  16.932 -0.0818  0.2031  0.4932
10438TIP3   OH252728   2.070   1.883  14.690 -0.2519  0.5220 -0.0459
10438TIP3    H152729   2.033   1.966  14.718  1.5963  1.2619  0.3023
10438TIP3    H252730   2.115   1.849  14.768  2.3195  1.1316 -1.1794
10439TIP3   OH252731   5.326   5.132  15.977 -0.0495 -0.9495 -0.4380
10439TIP3    H152732   5.239   5.105  16.005 -0.2603 -0.4031 -0.5642
10439TIP3    H252733   5.355   5.193  16.044 -0.1118 -0.4749 -0.8366
10440TIP3   OH252734   1.535   5.528   1.696  0.1684  0.1019  0.1659
10440TIP3    H152735   1.593   5.464   1.737 -1.7507 -0.4307  2.1554
10440TIP3    H252736   1.593   5.587   1.649  2.2374 -1.0051  1.2744
10441TIP3   OH252737   4.960   1.237   3.512 -0.6069 -0.1681 -0.0896
10441TIP3    H152738   5.046   1.248   3.471 -1.6621  0.9957 -2.0528
10441TIP3    H252739   4.952   1.143   3.525  0.9796 -0.2873  0.1564
10442TIP3   OH252740   2.249   5.353   1.665 -0.3690  0.0094  0.0432
10442TIP3    H152741   2.241   5.422   1.599 -1.4239 -0.3016 -0.1617
10442TIP3    H252742   2.330   5.307   1.641  0.4591  1.3024  0.3206
10443TIP3   OH252743   2.115   2.146   1.281 -0.5041 -0.2661 -0.2123
10443TIP3    H152744   2.115   2.051   1.275 -3.2606 -0.2243 -1.9028
10443TIP3    H252745   2.104   2.175   1.191  1.9971  1.7234  0.0760
10444TIP3   OH252746   5.957   6.541   5.148  0.0305  0.2040 -0.1746
10444TIP3    H152747   5.929   6.468   5.092  1.2576 -0.3835 -0.0343
10444TIP3    H252748   6.013   6.501   5.214 -2.0632  0.7941  1.9879
10445TIP3   OH252749   1.765   5.102  11.867  0.1718  0.1517  0.0753
10445TIP3    H152750   1.783   5.146  11.951  1.2632 -1.0306  0.4868
10445TIP3    H252751   1.687   5.050  11.884 -0.2834  0.8046  0.0114
10446TIP3   OH252752   6.685   3.980  11.755  0.1930 -0.3708  0.0513
10446TIP3    H152753   6.720   4.064  11.725 -0.8939 -0.5898 -1.9036
10446TIP3    H252754   6.593   3.999  11.774  0.7789 -0.3015  3.0798
10447TIP3   OH252755   5.658   2.944  15.048 -0.4916 -0.1726  0.3783
10447TIP3    H152756   5.685   2.903  14.966 -2.0127  1.7705 -1.1469
10447TIP3    H252757   5.589   2.887  15.082  0.8318 -1.5249  0.8426
10448TIP3   OH252758   4.587   5.301   0.552  0.0864 -0.0142  0.3726
10448TIP3    H152759   4.665   5.305   0.607  0.2629 -1.2142  0.2402
10448TIP3    H252760   4.600   5.367   0.485  1.3311 -0.6887 -0.0656
10449TIP3   OH252761   5.795   3.892  12.273 -0.3167  0.3402  0.3134
10449TIP3    H152762   5.751   3.941  12.342 -0.0740  0.2050  0.5655
10449TIP3    H252763   5.846   3.825  12.319 -0.9601 -0.4092 -0.0443
10450TIP3   OH252764   1.666   1.392  13.993  0.1307 -0.0625  0.2529
10450TIP3    H152765   1.736   1.453  14.018 -0.1586  0.5402 -0.3849
10450TIP3    H252766   1.692   1.359  13.908 -1.7161  2.3450 -1.3462
10451TIP3   OH252767   6.281   1.128   4.464 -0.4887  0.1315  0.5832
10451TIP3    H152768   6.301   1.142   4.371 -1.4654  1.1056  0.5063
10451TIP3    H252769   6.279   1.033   4.474 -2.0893 -0.0099 -0.8051
10452TIP3   OH252770   3.125   0.123   3.291 -0.4979  0.2700 -0.2981
10452TIP3    H152771   3.195   0.178   3.327 -1.0525  0.4018  0.6125
10452TIP3    H252772   3.170   0.056   3.239  0.3491 -0.1048  0.9007
10453TIP3   OH252773   0.481   3.251  11.665  0.6608  0.4699  0.2734
10453TIP3    H152774   0.456   3.199  11.742  1.5494 -0.5464 -0.1129
10453TIP3    H252775   0.477   3.341  11.695  2.4580  0.0304  1.9911
10454TIP3   OH252776   0.494   4.203  11.339  0.5457 -0.2959 -0.0956
10454TIP3    H152777   0.516   4.285  11.383 -0.2080  0.2125 -0.6655
10454TIP3    H252778   0.398   4.198  11.344  0.4812 -0.3951 -1.3947
10455TIP3   OH252779   2.428   0.027  12.177 -0.1352  0.1050  0.2054
10455TIP3    H152780   2.452   0.081  12.101  1.6195 -1.6661 -0.5445
10455TIP3    H252781   2.431   0.088  12.251  1.4122  1.1446 -0.6807
10456TIP3   OH252782   2.405   2.096  12.102 -0.7031 -0.0480  0.0686
10456TIP3    H152783   2.328   2.119  12.154 -1.4368 -1.9311 -0.1123
10456TIP3    H252784   2.370   2.073  12.016 -0.0435 -1.5822  0.1794
10457TIP3   OH252785   3.649   0.338  15.200 -0.1058  0.3056 -0.1294
10457TIP3    H152786   3.695   0.366  15.279 -0.2318 -0.0062  0.0549
10457TIP3    H252787   3.594   0.265  15.229 -1.2576  1.1327 -0.1948
10458TIP3   OH252788   4.547   2.690   1.605 -0.4531  0.0814  0.3635
10458TIP3    H152789   4.474   2.682   1.667 -0.6498 -0.5734  0.0567
10458TIP3    H252790   4.608   2.750   1.647 -0.7808 -0.0298  1.0102
10459TIP3   OH252791   4.473   3.002   1.112 -0.5793 -0.2350  0.7148
10459TIP3    H152792   4.492   2.964   1.027  0.5264  1.2610  0.2625
10459TIP3    H252793   4.558   3.005   1.156 -1.3131 -2.0084  2.3097
10460TIP3   OH252794   4.623   2.178   0.088 -0.1080  0.4409 -0.1416
10460TIP3    H152795   4.690   2.236   0.125 -0.8718  0.4711  1.1912
10460TIP3    H252796   4.632   2.096   0.137 -1.4920  0.6701  0.4990
10461TIP3   OH252797   5.819   0.180  13.944 -0.2436  0.4772 -0.0887
10461TIP3    H152798   5.854   0.093  13.924 -0.9698  0.3923 -1.0628
10461TIP3    H252799   5.724   0.169  13.938 -0.3497  1.2787  0.0425
10462TIP3   OH252800   3.354   6.029  14.501 -0.4034  0.1662  0.0695
10462TIP3    H152801   3.320   5.963  14.441  0.6958  0.0307 -0.4081
10462TIP3    H252802   3.301   6.019  14.581  0.8095 -2.3779  0.6012
10463TIP3   OH252803   0.616   6.266   5.652  0.0149  0.4401  0.4515
10463TIP3    H152804   0.614   6.187   5.598 -0.1621  0.4084  0.5048
10463TIP3    H252805   0.603   6.235   5.741  1.2692  0.3955  0.6270
10464TIP3   OH252806   0.586   1.985  10.550  0.1119  0.6498  0.1631
10464TIP3    H152807   0.568   2.034  10.630 -0.6850  0.3205  0.1788
10464TIP3    H252808   0.682   1.980  10.547  0.1458  0.7237  1.0518
10465TIP3   OH252809   6.143   4.459   4.873 -0.3730  0.0889  0.1270
10465TIP3    H152810   6.201   4.500   4.937  0.5822  0.0773 -0.7209
10465TIP3    H252811   6.153   4.365   4.888 -0.6483  0.0949  0.3783
10466TIP3   OH252812   1.046   3.461   0.702 -0.0907  0.1906  0.3756
10466TIP3    H152813   1.075   3.462   0.611 -0.1307  0.6586  0.3674
10466TIP3    H252814   0.961   3.504   0.701 -0.6701 -0.9490  0.4414
10467TIP3   OH252815   5.260   4.456   1.417  0.5932 -0.1777 -0.1551
10467TIP3    H152816   5.224   4.490   1.335  1.0890 -0.0980 -0.3402
10467TIP3    H252817   5.192   4.398   1.451 -0.2453  0.9442  0.1329
10468TIP3   OH252818   4.541   0.635  13.645  0.1763 -0.2361  0.0731
10468TIP3    H152819   4.506   0.713  13.603 -0.6511 -0.9833 -0.6186
10468TIP3    H252820   4.475   0.610  13.709 -0.1148 -1.0775 -0.5533
10469TIP3   OH252821   2.362   5.109  11.796 -0.5169  0.1406  0.4830
10469TIP3    H152822   2.350   5.180  11.733  0.2857 -0.9020 -0.9079
10469TIP3    H252823   2.397   5.151  11.874  2.0193  1.0466 -1.0527
10470TIP3   OH252824   3.833   1.066  12.921 -0.0701  0.1084  0.6884
10470TIP3    H152825   3.889   1.101  12.991  1.6291  2.5185 -1.7870
10470TIP3    H252826   3.759   1.127  12.916 -0.4643 -0.3629  0.7423
10471TIP3   OH252827   2.317   1.191  13.380 -0.0133  0.5970 -0.2494
10471TIP3    H152828   2.266   1.169  13.458 -0.4103  0.4878 -0.5357
10471TIP3    H252829   2.391   1.241  13.413 -1.4510  2.6515 -0.0170
10472TIP3   OH252830   4.794   3.260   5.231  0.3018 -0.4019  0.3015
10472TIP3    H152831   4.761   3.185   5.280 -0.5121 -0.1996  0.0738
10472TIP3    H252832   4.716   3.310   5.209  0.6094 -0.6730 -1.4892
10473TIP3   OH252833   1.417   2.678   4.645  0.3678  0.1942  0.5675
10473TIP3    H152834   1.336   2.728   4.659 -0.3742 -0.7080 -0.4185
10473TIP3    H252835   1.486   2.745   4.640 -0.8804  1.3700 -3.0235
10474TIP3   OH252836   5.256   4.364   0.164 -0.1317  0.8329  0.3752
10474TIP3    H152837   5.345   4.357   0.198  0.2472 -0.0664 -0.7486
10474TIP3    H252838   5.237   4.458   0.165  1.0961  1.0991 -0.0244
10475TIP3   OH252839   3.202   4.627  10.779 -0.5872 -0.2768  0.0423
10475TIP3    H152840   3.205   4.627  10.683  2.5007 -0.0618  0.0923
10475TIP3    H252841   3.237   4.542  10.804 -1.5931 -0.4171  0.9833
10476TIP3   OH252842   6.521   1.848   5.055  0.2489 -0.1608  0.7021
10476TIP3    H152843   6.543   1.814   5.142 -0.2180 -0.4122  0.7207
10476TIP3    H252844   6.600   1.833   5.003 -0.0539 -1.5429  0.6245
10477TIP3   OH252845   0.726   6.681   3.607  0.4361  0.0716 -0.1870
10477TIP3    H152846   0.637   6.683   3.642  0.1789 -1.0275 -0.7519
10477TIP3    H252847   0.765   6.763   3.637 -1.1127  1.0891 -0.8765
10478TIP3   OH252848   6.076   0.155  16.990  0.0122 -0.3998 -0.0320
10478TIP3    H152849   6.120   0.235  16.962  1.0228 -0.8248  0.2919
10478TIP3    H252850   6.140   0.086  16.972 -0.2475 -0.9451  1.1391
10479TIP3   OH252851   0.683   3.643   4.110  0.3782 -0.0714  0.1440
10479TIP3    H152852   0.710   3.701   4.181  0.1272 -0.2539  0.3898
10479TIP3    H252853   0.592   3.669   4.092  1.3025  1.9005 -2.0221
10480TIP3   OH252854   0.659   3.307  14.509 -0.0274  0.2881 -0.5677
10480TIP3    H152855   0.648   3.230  14.564  2.8757  0.0845 -0.1790
10480TIP3    H252856   0.680   3.271  14.422  0.4070  0.6162 -0.6014
10481TIP3   OH252857   0.718   3.333  14.943 -0.4079  0.0084 -0.3996
10481TIP3    H152858   0.674   3.412  14.911 -0.1539 -0.3857 -1.7663
10481TIP3    H252859   0.801   3.364  14.979  0.1746  0.2686 -1.9149
10482TIP3   OH252860   4.460   1.943  14.357  0.4554 -0.5502  0.8168
10482TIP3    H152861   4.445   1.862  14.309 -0.7080  0.1668 -0.0718
10482TIP3    H252862   4.546   1.974  14.326 -0.4704  0.1270 -1.1617
10483TIP3   OH252863   6.204   6.323   1.125 -0.3156 -0.2171  0.2352
10483TIP3    H152864   6.279   6.295   1.178 -1.1794  1.1510  2.2357
10483TIP3    H252865   6.232   6.407   1.087  0.5278 -1.4757 -2.0175
10484TIP3   OH252866   0.818   4.380  12.434  0.0721  0.2399  0.1697
10484TIP3    H152867   0.873   4.402  12.358  1.0608  0.3058  0.8886
10484TIP3    H252868   0.767   4.304  12.405  0.3101  0.3756 -0.6234
10485TIP3   OH252869   6.573   2.400  14.502  0.9935 -0.1793  0.6355
10485TIP3    H152870   6.526   2.365  14.427 -0.8830  0.6752  1.3870
10485TIP3    H252871   6.543   2.346  14.576  0.8666  0.6384  1.1840
10486TIP3   OH252872   2.908   1.991   3.086  0.2601 -0.8044 -0.4664
10486TIP3    H152873   2.873   1.909   3.051 -1.6046  0.3010 -1.3045
10486TIP3    H252874   2.834   2.051   3.083  0.8382  0.1533  2.7536
10487TIP3   OH252875   3.173   5.403  12.148 -0.2431  0.1141  0.2200
10487TIP3    H152876   3.158   5.473  12.211  2.4638  0.6469  0.3128
10487TIP3    H252877   3.182   5.449  12.064  2.4179  0.0248  0.4090
10488TIP3   OH252878   1.749   1.247   3.006  0.0150  0.7578 -0.0362
10488TIP3    H152879   1.748   1.153   3.023 -1.5492  1.1617  2.3257
10488TIP3    H252880   1.683   1.261   2.938 -2.0338  0.5153  1.8636
10489TIP3   OH252881   5.274   3.409  15.986 -0.0190 -0.0075 -0.0391
10489TIP3    H152882   5.343   3.426  15.922  0.5706  1.2369  0.8910
10489TIP3    H252883   5.310   3.338  16.040  0.4588  0.4820  0.3004
10490TIP3   OH252884   0.422   2.569   5.792  0.1845 -0.6903  0.2264
10490TIP3    H152885   0.396   2.583   5.700 -0.2871 -1.6815  0.2002
10490TIP3    H252886   0.512   2.601   5.796  0.1211 -0.3877 -0.5160
10491TIP3   OH252887   2.905   5.089   1.466 -0.1971  0.1365 -0.6753
10491TIP3    H152888   2.939   5.058   1.551 -1.2872  0.0810 -0.2566
10491TIP3    H252889   2.888   5.182   1.479 -2.3148 -0.2974 -0.1916
10492TIP3   OH252890   6.441   4.270   5.718 -0.0692 -0.4870  0.1136
10492TIP3    H152891   6.370   4.327   5.750 -0.8081 -1.0585 -0.4836
10492TIP3    H252892   6.409   4.181   5.733  0.8912 -0.7533  0.6203
10493TIP3   OH252893   5.237   0.730   4.567 -0.5296  0.4034 -0.2779
10493TIP3    H152894   5.300   0.701   4.633  0.8320  1.3241 -1.1537
10493TIP3    H252895   5.155   0.689   4.593  0.9641 -3.0125 -0.5859
10494TIP3   OH252896   2.430   4.298  14.442 -0.6161  0.7358  0.6834
10494TIP3    H152897   2.371   4.373  14.446  1.2759  2.3999 -0.9170
10494TIP3    H252898   2.516   4.334  14.467  0.2288 -1.0015  0.3672
10495TIP3   OH252899   4.253   2.581   1.612 -0.1134 -0.3775  0.0467
10495TIP3    H152900   4.167   2.596   1.572 -1.3189 -0.6783  2.4290
10495TIP3    H252901   4.267   2.486   1.604 -1.1335 -0.7012  1.7780
10496TIP3   OH252902   1.113   5.126  13.221 -0.9247  0.1099  0.5386
10496TIP3    H152903   1.067   5.145  13.303 -2.6708 -2.8124  0.3216
10496TIP3    H252904   1.049   5.146  13.152 -0.4397 -0.0797  0.0288
10497TIP3   OH252905   1.675   5.263  12.928  0.2333  0.4088  0.1928
10497TIP3    H152906   1.588   5.295  12.904 -0.8648 -1.7438  1.1330
10497TIP3    H252907   1.713   5.231  12.846  0.0071  1.0425 -0.1608
10498TIP3   OH252908   3.588   1.599  10.877  0.4106 -0.3946  0.3386
10498TIP3    H152909   3.547   1.521  10.839  0.6553 -0.6633  0.6281
10498TIP3    H252910   3.677   1.598  10.843  0.2216  0.1214 -0.1885
10499TIP3   OH252911   1.339   5.044   0.501 -0.2415  0.0543  0.1430
10499TIP3    H152912   1.433   5.039   0.520 -0.5685 -0.1082  1.8159
10499TIP3    H252913   1.332   5.107   0.429  1.0078  1.5118  1.2536
10500TIP3   OH252914   5.862   3.063   3.357 -0.0521  0.2479  0.1457
10500TIP3    H152915   5.866   3.145   3.405  0.9430  0.0407  0.4267
10500TIP3    H252916   5.800   3.080   3.285 -0.0432  1.1535  0.3525
10501TIP3   OH252917   5.686   1.759  17.050  0.4193 -0.2587 -0.2504
10501TIP3    H152918   5.655   1.810  16.975  0.3628 -0.5013 -0.3940
10501TIP3    H252919   5.620   1.772  17.118  1.2293  1.1645  0.2701
10502TIP3   OH252920   4.423   0.524  10.798 -0.4761  0.1105  0.1761
10502TIP3    H152921   4.347   0.522  10.856 -1.6211 -1.1412 -1.3267
10502TIP3    H252922   4.425   0.437  10.759 -0.1132  1.1347 -2.1515
10503TIP3   OH252923   5.314   6.203  14.489 -0.2709  0.1529 -0.0386
10503TIP3    H152924   5.321   6.289  14.449 -0.5871 -0.3686 -1.2170
10503TIP3    H252925   5.387   6.153  14.452  0.9117  0.3761  1.8662
10504TIP3   OH252926   2.077   5.255  12.487  0.1015 -0.5363  0.3972
10504TIP3    H152927   2.124   5.316  12.430 -0.2175  0.9173  1.6458
10504TIP3    H252928   1.991   5.296  12.501 -0.9991 -2.4428 -0.6658
10505TIP3   OH252929   6.661   4.406  16.908  0.2973  0.0178 -0.3483
10505TIP3    H152930   6.659   4.344  16.835  0.4515  0.9842 -1.1887
10505TIP3    H252931   6.647   4.352  16.986  0.2066 -1.0372 -1.0831
10506TIP3   OH252932   3.383   4.931  13.896 -0.5813 -0.3149  0.0755
10506TIP3    H152933   3.421   4.938  13.983  0.2793  5.0028 -0.5859
10506TIP3    H252934   3.453   4.896  13.841  0.4406  0.9394  0.5791
10507TIP3   OH252935   1.105   4.222  14.475 -0.1974 -0.3106  0.8281
10507TIP3    H152936   1.080   4.248  14.386  2.4505 -0.4622 -0.0103
10507TIP3    H252937   1.055   4.143  14.492 -0.2536 -0.6419 -0.7870
10508TIP3   OH252938   0.118   5.580   5.845 -0.0269  0.1258 -0.1585
10508TIP3    H152939   0.098   5.666   5.810 -1.9605 -1.0116 -1.9654
10508TIP3    H252940   0.162   5.597   5.928  0.4674  2.8396 -0.9401
10509TIP3   OH252941   3.850   5.062   0.529 -0.0255  0.1221 -0.1703
10509TIP3    H152942   3.864   5.117   0.607  0.0911 -1.5034  0.9845
10509TIP3    H252943   3.759   5.035   0.535  0.0249 -0.1249 -0.5274
10510TIP3   OH252944   3.292   2.201  11.268 -0.4535  0.0762  0.2305
10510TIP3    H152945   3.252   2.231  11.351  0.3625  0.7671  0.3750
10510TIP3    H252946   3.320   2.281  11.225 -2.8627 -0.1038 -1.7589
10511TIP3   OH252947   0.386   3.632   3.371 -0.5691 -0.4391  0.2757
10511TIP3    H152948   0.382   3.705   3.433  1.1061 -1.9650  2.2475
10511TIP3    H252949   0.420   3.672   3.290 -0.4919  1.1152  1.0482
10512TIP3   OH252950   0.345   5.752   0.219 -0.0060 -0.0526  0.0897
10512TIP3    H152951   0.314   5.784   0.304  2.8475  1.0885  0.7714
10512TIP3    H252952   0.348   5.657   0.229 -0.1583  0.0366  1.1002
10513TIP3   OH252953   5.773   4.739  15.383 -0.1484 -0.3787  0.2306
10513TIP3    H152954   5.726   4.766  15.461 -0.6549  0.4661 -0.3553
10513TIP3    H252955   5.864   4.729  15.412 -0.5981 -1.5125  1.2453
10514TIP3   OH252956   6.519   1.507  12.401  0.8515 -0.3911  0.3273
10514TIP3    H152957   6.455   1.576  12.419  0.3764  0.2461 -3.5008
10514TIP3    H252958   6.587   1.521  12.467 -0.8590  1.5934  1.7541
10515TIP3   OH252959   1.030   1.007  10.323 -0.4506 -0.1090 -0.6097
10515TIP3    H152960   1.036   0.930  10.381  0.2423 -2.3499 -3.5471
10515TIP3    H252961   1.115   1.050  10.332 -1.1348  0.8666  1.6869
10516TIP3   OH252962   1.068   2.569   4.740  0.1052 -0.8858 -0.3213
10516TIP3    H152963   1.002   2.613   4.794 -0.0487 -0.3371 -0.9533
10516TIP3    H252964   1.082   2.628   4.667  1.1404 -1.1151 -0.3043
10517TIP3   OH252965   0.370   6.597  10.839 -0.0608 -0.2820 -0.0973
10517TIP3    H152966   0.434   6.657  10.800 -2.0352 -0.2133 -3.4559
10517TIP3    H252967   0.414   6.513  10.842  1.0736  0.3033  0.1086
10518TIP3   OH252968   4.117   1.861   4.226 -0.4266  0.2934  0.7596
10518TIP3    H152969   4.147   1.773   4.203 -0.2834  0.7155 -0.7195
10518TIP3    H252970   4.137   1.870   4.319  0.0537 -1.0380  0.7949
10519TIP3   OH252971   4.928   0.432  12.373  0.1667  0.2126 -0.8810
10519TIP3    H152972   4.873   0.372  12.324 -0.7214  0.6747 -0.4509
10519TIP3    H252973   4.974   0.377  12.436 -0.1050 -0.1074 -0.9644
10520TIP3   OH252974   1.938   5.733   2.631  0.0589  0.2277 -0.4290
10520TIP3    H152975   1.908   5.654   2.586 -1.8379  0.4600  0.4125
10520TIP3    H252976   1.876   5.800   2.605 -0.2067  0.6988  1.4277
10521TIP3   OH252977   5.988   3.686  16.914  0.5161 -0.3138  0.1385
10521TIP3    H152978   5.955   3.635  16.841  1.6922  0.7057 -1.1493
10521TIP3    H252979   5.969   3.634  16.991 -2.3082 -0.6255 -0.7201
10522TIP3   OH252980   1.309   4.352   0.180  0.0180  0.1399  0.1491
10522TIP3    H152981   1.290   4.325   0.090  0.5936 -1.6603  0.5367
10522TIP3    H252982   1.236   4.410   0.204 -0.7484 -0.2923 -1.0841
10523TIP3   OH252983   2.244   6.738  11.576 -0.0164  0.4887  0.3132
10523TIP3    H152984   2.301   6.685  11.521 -1.2146 -0.3775 -0.1133
10523TIP3    H252985   2.171   6.680  11.599  0.0415  1.0907  2.1416
10524TIP3   OH252986   5.571   0.965  14.705 -0.2066  0.8450 -0.0070
10524TIP3    H152987   5.600   0.954  14.615 -1.4281  0.4258 -0.3645
10524TIP3    H252988   5.476   0.952  14.702 -0.2975  1.0430  1.3022
10525TIP3   OH252989   0.764   1.609   2.988  0.2064  0.4788 -0.0968
10525TIP3    H152990   0.836   1.553   2.959  1.0643  1.3441  0.3695
10525TIP3    H252991   0.688   1.551   2.987  0.8729 -0.4042 -0.7193
10526TIP3   OH252992   2.348   0.928   1.941  0.5362 -0.2579  0.0324
10526TIP3    H152993   2.299   0.914   1.860  2.1500 -1.4861 -0.7420
10526TIP3    H252994   2.295   0.884   2.008  0.4452 -1.3836 -0.7602
10527TIP3   OH252995   5.389   6.581  13.498 -0.0691  0.1100 -0.3429
10527TIP3    H152996   5.450   6.573  13.571  0.1222  0.3293 -0.4815
10527TIP3    H252997   5.440   6.619  13.427  0.1824 -1.6070 -1.1095
10528TIP3   OH252998   2.825   1.921   1.055  0.0367 -0.3396 -0.3211
10528TIP3    H152999   2.797   1.872   0.978 -2.1747 -0.0302  0.2403
10528TIP3    H253000   2.900   1.973   1.025 -0.8884 -0.1071 -2.3167
10529TIP3   OH253001   0.760   1.667  16.387 -0.1714 -0.2462 -0.6356
10529TIP3    H153002   0.747   1.761  16.394 -0.0608 -0.2720 -0.0463
10529TIP3    H253003   0.779   1.639  16.477  0.7862 -0.6810 -0.9705
10530TIP3   OH253004   0.289   5.536  13.695  0.4467 -0.6308 -0.0443
10530TIP3    H153005   0.251   5.565  13.778 -0.5163  0.0369 -0.7002
10530TIP3    H253006   0.263   5.444  13.687  0.3387 -0.6294  0.2881
10531TIP3   OH253007   3.207   2.557  16.919  0.3208 -0.0969  0.6037
10531TIP3    H153008   3.295   2.559  16.881 -0.1598 -1.3708 -0.6270
10531TIP3    H253009   3.217   2.597  17.006  1.1220  4.3268 -1.4172
10532TIP3   OH253010   1.769   3.354   0.757  0.1500 -0.3756  0.2016
10532TIP3    H153011   1.697   3.292   0.740 -1.0080  0.6814  1.1888
10532TIP3    H253012   1.803   3.327   0.843  2.4821 -2.3267 -1.2651
10533TIP3   OH253013   4.391   6.286   4.796 -0.0157 -0.4681  0.3234
10533TIP3    H153014   4.419   6.223   4.730  1.2048  2.1554 -1.7849
10533TIP3    H253015   4.473   6.315   4.837 -0.1804  2.2450 -1.1553
10534TIP3   OH253016   4.473   6.606  11.652  0.2799 -0.4067  0.1057
10534TIP3    H153017   4.388   6.567  11.673  0.5333 -3.1347 -3.5485
10534TIP3    H253018   4.453   6.680  11.594  0.3005  0.5036  1.2258
10535TIP3   OH253019   0.509   2.145   6.296 -0.1356 -0.8307 -0.0281
10535TIP3    H153020   0.547   2.231   6.315  0.0474 -0.8622 -0.2487
10535TIP3    H253021   0.580   2.096   6.255 -0.4319 -0.8699 -0.4941
10536TIP3   OH253022   4.497   5.736   3.476 -0.2389  0.1064  0.2587
10536TIP3    H153023   4.525   5.825   3.456 -0.0222 -0.3023 -1.2758
10536TIP3    H253024   4.578   5.688   3.491 -0.3529  0.1277  1.0067
10537TIP3   OH253025   6.497   4.921  10.299 -0.0574 -0.6184 -0.3096
10537TIP3    H153026   6.518   5.011  10.324  1.1006 -0.0185 -3.2312
10537TIP3    H253027   6.402   4.919  10.294 -0.0689  0.6600 -0.8960
10538TIP3   OH253028   5.317   0.218   3.940  0.2274 -0.2875 -0.6103
10538TIP3    H153029   5.329   0.313   3.940 -0.0804 -0.2487 -0.2285
10538TIP3    H253030   5.333   0.192   3.849 -1.1202  0.3169 -1.0283
10539TIP3   OH253031   0.538   1.239   0.062 -0.3607  0.4320  0.1814
10539TIP3    H153032   0.563   1.331   0.057 -0.8587  0.5912  0.5065
10539TIP3    H253033   0.608   1.192   0.018 -0.9996  1.1213 -1.6032
10540TIP3   OH253034   2.756   4.230   3.687  0.5411  0.4101 -0.2847
10540TIP3    H153035   2.705   4.310   3.688 -0.9121 -0.5029 -0.3620
10540TIP3    H253036   2.813   4.239   3.610  0.7284  1.5570 -0.0246
10541TIP3   OH253037   3.651   2.867  14.418  0.1231  0.1724  0.3501
10541TIP3    H153038   3.665   2.914  14.336 -2.2953  0.4215  0.0488
10541TIP3    H253039   3.582   2.916  14.462  0.0427 -1.0766  1.6398
10542TIP3   OH253040   3.579   6.247  15.958 -0.4563 -0.3751 -0.3213
10542TIP3    H153041   3.582   6.159  15.919 -0.3687 -0.5086 -0.0164
10542TIP3    H253042   3.551   6.304  15.886 -1.5229 -0.8062 -0.2666
10543TIP3   OH253043   5.704   3.435  12.438  0.7421 -0.3555  0.2753
10543TIP3    H153044   5.791   3.395  12.438  0.3186 -1.2951 -0.2460
10543TIP3    H253045   5.705   3.493  12.513  1.9784 -0.0137  0.0155
10544TIP3   OH253046   4.215   3.108   0.437  0.1986 -0.3800  0.4769
10544TIP3    H153047   4.284   3.070   0.382  0.8509  0.2619  0.8456
10544TIP3    H253048   4.134   3.087   0.391  0.7695  0.7959 -1.1416
10545TIP3   OH253049   4.457   3.849  12.543 -0.4251  0.4452  0.4291
10545TIP3    H153050   4.505   3.772  12.512  1.6105  1.2723  1.4554
10545TIP3    H253051   4.411   3.881  12.465 -1.3328 -1.8188 -0.0023
10546TIP3   OH253052   3.714   3.889  10.450 -0.4830 -0.3205  0.0676
10546TIP3    H153053   3.801   3.917  10.423 -0.7464  0.1316 -0.3007
10546TIP3    H253054   3.669   3.969  10.474  0.4068 -0.8423  3.8674
10547TIP3   OH253055   1.321   1.435  13.263 -0.9905 -0.6215 -0.3454
10547TIP3    H153056   1.354   1.451  13.175 -0.3221 -2.4141 -0.4315
10547TIP3    H253057   1.280   1.349  13.259 -1.5428 -0.4322  0.9283
10548TIP3   OH253058   3.728   5.568  13.533  0.1049 -0.3766  0.1076
10548TIP3    H153059   3.814   5.547  13.568  0.3436 -2.3439 -1.5342
10548TIP3    H253060   3.736   5.657  13.500  1.8272 -0.9088 -0.9525
10549TIP3   OH253061   6.156   2.907   2.620  0.6135 -0.1195  0.4315
10549TIP3    H153062   6.110   2.854   2.686 -1.0511  1.0921  0.2789
10549TIP3    H253063   6.244   2.870   2.616 -0.0706 -1.8852  1.4328
10550TIP3   OH253064   2.509   0.159   3.013  0.0016 -0.0863  0.0701
10550TIP3    H153065   2.597   0.197   3.006  0.0769  0.0454  1.6463
10550TIP3    H253066   2.524   0.065   3.021  0.0097 -0.0515  0.4766
10551TIP3   OH253067   0.651   6.763   1.857 -0.3566  0.4067  0.1970
10551TIP3    H153068   0.687   6.726   1.777 -1.1958 -0.2084  0.0890
10551TIP3    H253069   0.703   6.725   1.927 -0.8070 -0.5131  0.0475
10552TIP3   OH253070   4.625   6.776  14.901 -0.3911 -0.2928  0.1494
10552TIP3    H153071   4.585   6.848  14.951  0.1477  0.2735 -0.2220
10552TIP3    H253072   4.566   6.702  14.913 -1.2066  0.3539  0.1485
10553TIP3   OH253073   4.470   6.031  17.136 -0.3901 -0.1544 -0.3023
10553TIP3    H153074   4.501   6.075  17.057  1.5290 -0.5179  0.2251
10553TIP3    H253075   4.436   6.103  17.190  1.0312  0.4920 -0.2253
10554TIP3   OH253076   0.757   6.782  13.028  0.5207  0.3168  0.2206
10554TIP3    H153077   0.774   6.876  13.034 -1.1179  0.5772  0.9353
10554TIP3    H253078   0.742   6.767  12.934 -2.7450  1.4367  0.4898
10555TIP3   OH253079   0.510   0.280  13.253  0.8830  0.4414  0.2240
10555TIP3    H153080   0.476   0.196  13.284 -0.1856 -0.2863 -2.7245
10555TIP3    H253081   0.456   0.345  13.296 -0.2308 -0.4969  0.2662
10556TIP3   OH253082   1.008   5.351   5.799 -0.1879 -0.1298 -0.3413
10556TIP3    H153083   0.992   5.292   5.872  0.5783 -1.1760 -1.0035
10556TIP3    H253084   0.920   5.375   5.768 -0.5164  0.4032  0.9645
10557TIP3   OH253085   1.149   6.106   2.934  0.9503 -0.0068  0.0385
10557TIP3    H153086   1.140   6.019   2.896 -1.8535  0.8808 -1.4953
10557TIP3    H253087   1.220   6.097   2.998  0.5487 -3.4323  0.1033
10558TIP3   OH253088   5.837   2.387   3.795 -0.7296  0.0028  0.2445
10558TIP3    H153089   5.905   2.389   3.863  0.1793  0.4123 -0.6541
10558TIP3    H253090   5.823   2.479   3.773  0.0455 -0.1972 -1.1483
10559TIP3   OH253091   2.366   2.643  12.918 -0.6473  0.3322 -0.2880
10559TIP3    H153092   2.393   2.616  12.830 -1.0426 -0.1763 -0.2541
10559TIP3    H253093   2.424   2.595  12.976  0.6544  1.8410 -0.3030
10560TIP3   OH253094   4.367   2.044  10.949  0.3535 -0.4728  0.1603
10560TIP3    H153095   4.444   1.990  10.966  0.4623 -0.3416  0.0814
10560TIP3    H253096   4.308   2.025  11.022  0.1003 -1.2356 -0.2403
10561TIP3   OH253097   2.121   4.257  13.671  0.3051  0.0684 -0.6015
10561TIP3    H153098   2.159   4.199  13.737 -0.1099  1.9798  1.3452
10561TIP3    H253099   2.036   4.217  13.651  0.5119 -0.6205 -0.1465
10562TIP3   OH253100   0.434   0.079  13.425 -0.4723 -0.1429 -0.1807
10562TIP3    H153101   0.390   0.000  13.457  2.6529 -0.9840  2.4292
10562TIP3    H253102   0.470   0.119  13.504 -1.1728  3.4278 -1.5833
10563TIP3   OH253103   5.932   3.897   2.928 -0.2537  0.3171  0.2029
10563TIP3    H153104   5.899   3.940   2.850 -1.1851 -0.3600  0.2103
10563TIP3    H253105   5.857   3.894   2.988 -0.2372 -1.3154  0.1871
10564TIP3   OH253106   1.292   6.722  15.855 -0.0557 -0.0666 -0.5105
10564TIP3    H153107   1.202   6.703  15.880 -0.1214 -0.3999 -0.9973
10564TIP3    H253108   1.329   6.637  15.832  0.4216  0.0537 -0.1904
10565TIP3   OH253109   3.763   1.306   1.173 -0.5155 -0.5294  0.3658
10565TIP3    H153110   3.849   1.342   1.194 -0.2833 -1.8700  1.7457
10565TIP3    H253111   3.779   1.248   1.098 -0.5282  0.5570 -0.4905
10566TIP3   OH253112   0.761   3.150  10.998 -0.1909 -0.2428 -0.1867
10566TIP3    H153113   0.734   3.241  11.013  0.5028 -0.0662 -0.0160
10566TIP3    H253114   0.681   3.106  10.969 -1.2053 -0.2162  2.4550
10567TIP3   OH253115   2.040   1.854   3.009 -0.0421 -0.0524 -0.0866
10567TIP3    H153116   2.088   1.772   3.017 -0.0546 -0.1710 -1.1610
10567TIP3    H253117   2.041   1.873   2.916 -0.3697  0.9760  0.1160
10568TIP3   OH253118   6.660   0.748  15.017 -0.9246  0.0612 -0.6440
10568TIP3    H153119   6.647   0.843  15.025 -1.2379 -0.0508  0.1199
10568TIP3    H253120   6.600   0.710  15.081  0.9870 -0.5581  0.8116
10569TIP3   OH253121   1.960   0.110  10.774  0.7625 -0.1563  0.1054
10569TIP3    H153122   1.990   0.046  10.838 -0.4427 -0.8659 -0.0206
10569TIP3    H253123   1.870   0.131  10.801  0.3313 -0.2813 -1.1860
10570TIP3   OH253124   6.781   2.737   2.247  0.1345 -0.1410 -0.1615
10570TIP3    H153125   6.773   2.726   2.152  0.8533 -1.0727 -0.1137
10570TIP3    H253126   6.695   2.768   2.274  0.4237  1.8106 -1.3475
10571TIP3   OH253127   0.237   6.004   4.554  0.1514  0.2992 -0.2354
10571TIP3    H153128   0.242   6.093   4.589  1.2037  0.8706 -1.7859
10571TIP3    H253129   0.291   5.952   4.613 -0.6764  0.6383  0.8282
10572TIP3   OH253130   2.728   4.746   0.051 -0.0719 -0.0945  0.0616
10572TIP3    H153131   2.682   4.704  -0.022 -0.0821 -1.1186  0.6434
10572TIP3    H253132   2.689   4.708   0.130 -1.2380  2.2405  0.6561
10573TIP3   OH253133   4.803   2.796  14.352  0.0273 -0.2891 -0.2474
10573TIP3    H153134   4.733   2.859  14.334 -0.0971 -0.7190 -1.3031
10573TIP3    H253135   4.863   2.842  14.410 -2.2760 -0.6596  2.5417
10574TIP3   OH253136   1.862   1.342  12.833  0.3457 -0.0392  0.4366
10574TIP3    H153137   1.823   1.381  12.755 -1.3510 -1.1176  0.7212
10574TIP3    H253138   1.794   1.349  12.900  1.6672  0.5819  1.7467
10575TIP3   OH253139   6.601   1.559  13.712 -0.2510 -0.7096 -0.2614
10575TIP3    H153140   6.657   1.608  13.772  2.2937 -1.0186 -2.3518
10575TIP3    H253141   6.566   1.625  13.652 -0.0080 -0.8973 -0.6093
10576TIP3   OH253142   3.355   1.474  14.497 -0.0960  0.0730 -0.1939
10576TIP3    H153143   3.362   1.567  14.474  1.3357 -0.1808 -0.8214
10576TIP3    H253144   3.276   1.469  14.551 -1.1271  1.3839 -1.5233
10577TIP3   OH253145   3.436   1.070  12.753  0.1562  0.1394 -0.3910
10577TIP3    H153146   3.384   1.065  12.673 -3.2184  0.9487  1.6490
10577TIP3    H253147   3.476   0.983  12.763 -2.8881 -1.3312 -0.7055
10578TIP3   OH253148   2.486   0.062  14.769  0.3140 -0.2030 -0.7955
10578TIP3    H153149   2.493  -0.013  14.828 -0.0654 -0.3920 -0.9869
10578TIP3    H253150   2.425   0.034  14.701 -0.4333  0.5423 -0.4479
10579TIP3   OH253151   4.163   4.804  15.310 -0.0996  0.3287 -0.2766
10579TIP3    H153152   4.232   4.813  15.244  1.6006 -1.0088  1.2790
10579TIP3    H253153   4.146   4.893  15.340  0.8734  0.6738 -0.7537
10580TIP3   OH253154   5.781   1.321  16.934 -0.6713  0.0546 -0.6539
10580TIP3    H153155   5.692   1.348  16.957 -0.6087  0.5100 -0.9395
10580TIP3    H253156   5.838   1.381  16.982 -0.5128 -0.2300 -0.4780
10581TIP3   OH253157   5.532   6.673   0.573 -0.6281 -0.3689  0.6766
10581TIP3    H153158   5.531   6.721   0.490 -1.8594  0.2983  1.0588
10581TIP3    H253159   5.622   6.681   0.604 -0.7325  1.4552  0.5678
10582TIP3   OH253160   5.803   5.254  10.939 -0.6572 -0.6518 -0.2948
10582TIP3    H153161   5.837   5.183  10.886  0.8374 -0.4647  0.3770
10582TIP3    H253162   5.864   5.326  10.925 -1.7306  0.2574 -0.3857
10583TIP3   OH253163   6.506   2.588   3.370 -0.3054 -0.3789  0.3104
10583TIP3    H153164   6.569   2.520   3.394 -0.1033  0.0213  0.9319
10583TIP3    H253165   6.552   2.641   3.305 -1.2411 -2.1035 -1.8458
10584TIP3   OH253166   2.780   6.711  10.828 -0.0962 -0.9549  0.1511
10584TIP3    H153167   2.853   6.649  10.837  0.0958 -0.6855  0.4596
10584TIP3    H253168   2.704   6.662  10.858 -0.1958 -1.5375 -1.0246
10585TIP3   OH253169   2.948   5.031  15.753 -0.5004  0.2143 -0.6994
10585TIP3    H153170   3.037   5.055  15.727 -0.1664  0.3224  0.5234
10585TIP3    H253171   2.958   4.989  15.838 -1.6005  0.0337 -0.6506
10586TIP3   OH253172   3.363   2.396  12.297 -0.4258 -0.4008 -0.9805
10586TIP3    H153173   3.433   2.349  12.342 -0.0386  0.7827 -0.3197
10586TIP3    H253174   3.330   2.334  12.232 -0.6293 -1.9394  0.5689
10587TIP3   OH253175   3.694   5.105  14.017 -0.3011  0.2432 -0.2569
10587TIP3    H153176   3.611   5.117  14.063  0.2276  0.3220  0.6997
10587TIP3    H253177   3.681   5.146  13.932 -0.7006  1.7231  0.4996
10588TIP3   OH253178   1.312   3.941  14.489 -0.4198  0.0549  0.0015
10588TIP3    H153179   1.371   3.961  14.561 -0.2367 -0.9816  0.1518
10588TIP3    H253180   1.229   3.919  14.532 -0.1314 -1.1984 -0.0491
10589TIP3   OH253181   2.751   4.768   4.295 -0.3922 -0.6511  0.3516
10589TIP3    H153182   2.691   4.782   4.221 -1.7810 -2.6264  1.0444
10589TIP3    H253183   2.712   4.818   4.367 -1.7687 -2.6212  1.0420
10590TIP3   OH253184   2.357   6.314   0.186  0.6621 -0.1204 -0.0168
10590TIP3    H153185   2.284   6.264   0.151  2.0788 -1.0662 -1.6839
10590TIP3    H253186   2.358   6.394   0.134 -0.3787  0.7953  1.3293
10591TIP3   OH253187   3.251   4.892   6.133  0.3087 -0.6167  0.0719
10591TIP3    H153188   3.243   4.941   6.215 -1.2497  1.1806 -1.1381
10591TIP3    H253189   3.307   4.817   6.156  1.2414  0.7304  2.3773
10592TIP3   OH253190   1.183   5.795   6.099 -0.0639  0.9211  0.4125
10592TIP3    H153191   1.155   5.808   6.009 -1.4760  1.3909  0.9077
10592TIP3    H253192   1.217   5.880   6.127  1.1802  0.5479  0.0513
10593TIP3   OH253193   1.870   4.224   1.710 -0.2373  0.0504  0.1533
10593TIP3    H153194   1.962   4.221   1.681 -0.1972  3.0433 -0.2377
10593TIP3    H253195   1.825   4.163   1.652  1.6470 -2.2340  1.0080
10594TIP3   OH253196   4.091   0.838   6.043 -0.1787  0.3650  0.1286
10594TIP3    H153197   4.089   0.742   6.043  0.6782  0.3406 -0.1296
10594TIP3    H253198   4.021   0.864   6.102  0.3804 -0.4392  1.1569
10595TIP3   OH253199   0.453   4.939   6.572  0.6599  0.0950 -0.0202
10595TIP3    H153200   0.548   4.926   6.569  0.6927 -0.1327  1.5785
10595TIP3    H253201   0.430   4.965   6.483  2.3040  0.6722 -0.3004
10596TIP3   OH253202   5.396   4.631  16.551  0.5474  0.4950 -0.0268
10596TIP3    H153203   5.420   4.635  16.643  0.8264  2.1845 -0.1555
10596TIP3    H253204   5.447   4.701  16.510  2.8401 -2.2177 -2.0383
10597TIP3   OH253205   3.563   1.415  10.498  0.3057 -0.3130  0.1121
10597TIP3    H153206   3.489   1.475  10.508 -1.6065 -2.4770 -0.4947
10597TIP3    H253207   3.640   1.466  10.524 -1.3927  1.9994  0.7317
10598TIP3   OH253208   2.211   3.856  13.079 -0.1907  0.1087  0.1026
10598TIP3    H153209   2.152   3.929  13.096  0.5920  0.5331  1.0457
10598TIP3    H253210   2.272   3.857  13.153 -0.1107 -1.4407  0.0620
10599TIP3   OH253211   6.197   1.628  15.031 -0.3733  0.5963  0.0608
10599TIP3    H153212   6.263   1.644  14.963  1.0997  1.0711  1.5816
10599TIP3    H253213   6.151   1.549  15.001  1.7007 -0.4749 -0.4285
10600TIP3   OH253214   2.123   5.639  13.847  0.0762 -0.0806 -0.2649
10600TIP3    H153215   2.170   5.580  13.789 -0.9443 -1.2370  0.0701
10600TIP3    H253216   2.035   5.602  13.854 -0.7537  1.7611 -0.4794
10601TIP3   OH253217   3.304   4.266   5.435  1.1968  0.3556  0.1673
10601TIP3    H153218   3.274   4.334   5.374  0.2882  0.5097  0.7712
10601TIP3    H253219   3.229   4.208   5.446  1.7119 -0.3001  0.2810
10602TIP3   OH253220   2.721   0.327   0.989 -0.2488 -0.2456 -0.7833
10602TIP3    H153221   2.694   0.239   0.964  0.6341 -1.3068  1.8169
10602TIP3    H253222   2.651   0.360   1.045  0.8904 -0.5853  0.8919
10603TIP3   OH253223   3.687   2.999  15.489  0.1000 -0.2318 -0.1642
10603TIP3    H153224   3.780   2.978  15.494 -0.2456 -1.8853 -0.2700
10603TIP3    H253225   3.658   2.998  15.581  0.2231  0.4900 -0.1141
10604TIP3   OH253226   2.608   2.529  14.882 -0.2089 -0.1512 -0.1687
10604TIP3    H153227   2.693   2.521  14.838  0.6378  0.7295  1.2603
10604TIP3    H253228   2.560   2.450  14.855  1.4310 -1.1621 -0.2232
10605TIP3   OH253229   2.156   0.255  12.142 -0.0639 -0.1703 -0.5743
10605TIP3    H153230   2.217   0.231  12.072  0.2033 -2.8310  0.5283
10605TIP3    H253231   2.196   0.331  12.185  1.5632 -0.7943 -0.9785
10606TIP3   OH253232   6.457   5.551   1.453  0.3951  0.3661  0.4594
10606TIP3    H153233   6.435   5.515   1.539 -2.0732 -0.7196 -0.5838
10606TIP3    H253234   6.424   5.641   1.455  0.4775  0.3922  0.6824
10607TIP3   OH253235   3.416   6.637  15.535  0.6732 -0.4782 -0.2221
10607TIP3    H153236   3.469   6.715  15.553  1.5492 -0.9493 -0.6881
10607TIP3    H253237   3.431   6.580  15.610  0.1688 -0.2675  0.0385
10608TIP3   OH253238   5.100   2.907   2.372  0.0226 -0.5593  0.7469
10608TIP3    H153239   5.005   2.901   2.366  0.2213 -1.1428 -2.9307
10608TIP3    H253240   5.129   2.818   2.393 -0.1359 -0.7458  0.1683
10609TIP3   OH253241   1.472   4.143   2.790  0.3684  0.3582 -1.0987
10609TIP3    H153242   1.484   4.049   2.805  0.5813  0.1673 -2.4029
10609TIP3    H253243   1.381   4.160   2.812  0.5390  0.0096 -0.0862
10610TIP3   OH253244   0.378   6.099   0.203 -0.0719 -0.7607  0.1233
10610TIP3    H153245   0.435   6.168   0.168  0.0009 -1.6251 -1.5345
10610TIP3    H253246   0.291   6.139   0.204  0.2709 -0.0268  0.9549
10611TIP3   OH253247   4.883   1.622   0.724  0.2012  0.0313  0.0741
10611TIP3    H153248   4.937   1.699   0.740 -0.7692  0.8687 -0.6551
10611TIP3    H253249   4.821   1.620   0.798 -1.5471  1.5204 -1.2996
10612TIP3   OH253250   6.239   2.072   6.973 -0.7688 -0.0271  0.6311
10612TIP3    H153251   6.305   2.054   6.906 -1.1782 -2.8904  0.9303
10612TIP3    H253252   6.169   2.118   6.926  0.2843  0.7053 -0.2415
10613TIP3   OH253253   3.120   4.898   0.268 -0.2808 -0.5835  0.0412
10613TIP3    H153254   3.058   4.842   0.223 -1.7910  0.0534  1.2607
10613TIP3    H253255   3.097   4.890   0.361  1.8854 -0.8318  0.6008
10614TIP3   OH253256   6.695   3.678   2.420 -0.4279  0.2249 -0.9194
10614TIP3    H153257   6.626   3.616   2.397 -0.0708 -1.4256  2.1019
10614TIP3    H253258   6.649   3.748   2.466 -0.5343  1.0568 -2.2686
10615TIP3   OH253259   4.105   4.575  13.278 -0.2052 -0.1851  0.2883
10615TIP3    H153260   4.119   4.669  13.291  0.6526  0.0688 -2.2349
10615TIP3    H253261   4.024   4.556  13.326 -0.7707  1.9725  0.2347
10616TIP3   OH253262   3.101   6.628  11.651 -0.5145 -0.4022 -0.2599
10616TIP3    H153263   3.113   6.723  11.647  2.8724 -0.7178  0.4473
10616TIP3    H253264   3.134   6.603  11.738  1.2541 -2.5189 -1.4943
10617TIP3   OH253265   3.622   4.767  13.692 -0.0183 -0.1833 -0.5379
10617TIP3    H153266   3.563   4.693  13.675 -1.0619  0.7202 -0.9051
10617TIP3    H253267   3.659   4.789  13.606  0.9532 -0.8183 -0.2920
10618TIP3   OH253268   5.987   3.089  15.665 -0.1104  0.3117 -0.1227
10618TIP3    H153269   5.894   3.107  15.680 -0.3218 -0.5581 -0.3202
10618TIP3    H253270   6.002   3.114  15.574  0.0658  1.2767  0.1651
10619TIP3   OH253271   2.067   2.090  17.090 -0.3256  0.2137 -0.7436
10619TIP3    H153272   2.125   2.139  17.032  0.2788  0.4779  0.0828
10619TIP3    H253273   2.090   2.120  17.178 -1.4385  0.0321 -0.3807
10620TIP3   OH253274   4.762   6.355  13.766 -0.6635  0.2795 -0.2720
10620TIP3    H153275   4.787   6.353  13.858 -1.4005 -2.3813 -0.0846
10620TIP3    H253276   4.676   6.396  13.764 -0.9468 -0.2791  0.3217
10621TIP3   OH253277   0.399   2.431   4.372  0.0490 -0.2820 -0.3684
10621TIP3    H153278   0.432   2.358   4.319 -1.5340  0.2461 -2.1197
10621TIP3    H253279   0.431   2.510   4.328 -0.6947  0.1424 -0.1615
10622TIP3   OH253280   4.531   2.008   0.741 -0.1363  0.1895  0.2081
10622TIP3    H153281   4.505   1.920   0.768  0.6599  0.1995  1.0146
10622TIP3    H253282   4.586   2.040   0.812 -0.4793  1.3730 -0.0510
10623TIP3   OH253283   1.217   5.618  15.065 -0.0617  0.7500 -0.0938
10623TIP3    H153284   1.287   5.570  15.110  0.1631  1.3969  0.2434
10623TIP3    H253285   1.259   5.653  14.987 -0.7099 -1.3033 -1.4263
10624TIP3   OH253286   3.279   2.560  13.795  0.2872  0.4031 -0.4323
10624TIP3    H153287   3.191   2.532  13.823  0.0082  0.5835 -1.1058
10624TIP3    H253288   3.275   2.556  13.700  1.1670 -0.0457 -0.4541
10625TIP3   OH253289   2.989   6.641   0.839  0.4205 -0.2900 -0.7442
10625TIP3    H153290   2.896   6.661   0.843  0.4583 -0.2223 -0.1429
10625TIP3    H253291   3.009   6.603   0.925  0.5386 -2.0460 -1.5147
10626TIP3   OH253292   2.149   0.670   3.389 -0.1023  0.0456  0.2162
10626TIP3    H153293   2.088   0.695   3.458  0.6727 -0.0582  0.9542
10626TIP3    H253294   2.206   0.746   3.378  0.7311 -0.4818  0.7666
10627TIP3   OH253295   5.236   4.017  12.260 -0.1088 -0.6259 -0.0183
10627TIP3    H153296   5.171   4.082  12.287 -0.9513 -0.7407 -1.6999
10627TIP3    H253297   5.311   4.033  12.317 -1.3196  0.0029  1.4578
10628TIP3   OH253298   4.770   3.611   4.755 -0.4341  0.5697 -0.0486
10628TIP3    H153299   4.838   3.607   4.822 -0.7822  2.7528  0.4476
10628TIP3    H253300   4.798   3.679   4.695 -2.4530  1.9440  0.5018
10629TIP3   OH253301   5.790   2.944   6.033 -0.0336 -0.3509  0.2362
10629TIP3    H153302   5.734   2.872   6.064 -0.8860  0.4710  0.6309
10629TIP3    H253303   5.744   2.978   5.956  0.5600 -0.4543 -0.1701
10630TIP3   OH253304   0.248   0.029  11.151  0.2136  0.3985 -0.1200
10630TIP3    H153305   0.162   0.069  11.138  0.3224  1.5365  2.4675
10630TIP3    H253306   0.310   0.100  11.131  0.5467 -0.0453 -0.6981
10631TIP3   OH253307   1.615   1.322   3.616  0.2714  0.2976 -0.7117
10631TIP3    H153308   1.567   1.368   3.685  1.3572 -0.2383  0.4156
10631TIP3    H253309   1.707   1.339   3.635  0.6403 -1.2071 -1.0905
10632TIP3   OH253310   3.387   1.886  17.062 -0.2199 -0.6220  0.2868
10632TIP3    H153311   3.343   1.888  16.977 -0.4169 -0.3553  0.3897
10632TIP3    H253312   3.474   1.922  17.045  0.0799 -1.4732  0.0090
10633TIP3   OH253313   3.885   4.549  12.552 -0.0812  0.3488  0.6881
10633TIP3    H153314   3.978   4.560  12.571 -0.2892  0.4913  1.6558
10633TIP3    H253315   3.858   4.632  12.513  0.4367 -0.0748 -0.5895
10634TIP3   OH253316   2.192   4.578  11.292  0.3978 -0.5937  0.6343
10634TIP3    H153317   2.245   4.649  11.328  0.7036 -0.4061 -0.1843
10634TIP3    H253318   2.243   4.545  11.218 -0.5098 -0.5927  0.0076
10635TIP3   OH253319   2.220   3.280  16.046 -0.3144  0.1808  0.1316
10635TIP3    H153320   2.269   3.312  16.122  3.0109 -0.7378 -1.5449
10635TIP3    H253321   2.150   3.344  16.034  0.7223  1.7943  2.3600
10636TIP3   OH253322   0.313   0.201   1.790 -0.6596  0.0591 -0.3451
10636TIP3    H153323   0.242   0.199   1.727  0.9761 -1.8631 -2.2096
10636TIP3    H253324   0.379   0.258   1.751  1.1013 -2.5048 -1.2990
10637TIP3   OH253325   4.142   0.538  11.796  0.5944 -0.5273 -0.0354
10637TIP3    H153326   4.090   0.616  11.811 -0.1404 -1.1088  0.4669
10637TIP3    H253327   4.231   0.570  11.782  0.2595  0.4037 -0.0221
10638TIP3   OH253328   6.750   4.480  11.598  0.2181  0.6244 -0.0872
10638TIP3    H153329   6.788   4.566  11.584 -2.0170  1.3633 -1.9333
10638TIP3    H253330   6.674   4.495  11.653  0.8380 -0.4443  1.1093
10639TIP3   OH253331   4.062   0.733   5.707  0.5331 -0.6201 -0.0428
10639TIP3    H153332   4.068   0.828   5.713 -0.3708 -0.4670 -1.3560
10639TIP3    H253333   4.007   0.708   5.781 -2.0853  0.2374 -1.6171
10640TIP3   OH253334   1.979   6.609  15.010 -0.8039 -0.8454 -0.5593
10640TIP3    H153335   1.987   6.703  14.995  0.3261 -1.1503 -2.0561
10640TIP3    H253336   1.889   6.587  14.984 -1.6591  0.0953  1.5150
10641TIP3   OH253337   4.401   6.420  13.339  0.2903  0.3224 -0.3072
10641TIP3    H153338   4.463   6.491  13.319  0.1718  0.1091 -1.4686
10641TIP3    H253339   4.435   6.345  13.290  1.8887 -1.1786  2.9215
10642TIP3   OH253340   3.581   6.532  15.038  0.3786 -0.4324  0.2050
10642TIP3    H153341   3.531   6.485  15.105 -0.3824 -0.0082 -0.0685
10642TIP3    H253342   3.600   6.466  14.971 -2.4522  0.0900 -1.1727
10643TIP3   OH253343   1.609   2.492  15.174 -0.2839 -0.0890  0.6245
10643TIP3    H153344   1.648   2.475  15.088  0.0508 -0.5632  0.8694
10643TIP3    H253345   1.556   2.414  15.192 -0.5383  0.1113  0.7444
10644TIP3   OH253346   2.660   0.547  15.536 -0.1517  0.3133  0.1072
10644TIP3    H153347   2.740   0.552  15.589  0.3352  3.2090 -0.8465
10644TIP3    H253348   2.591   0.526  15.599  0.8576  0.9135  1.4311
10645TIP3   OH253349   4.972   2.645  12.088 -0.0372  0.0089 -0.0643
10645TIP3    H153350   5.010   2.558  12.101  0.1719 -0.2048 -1.9562
10645TIP3    H253351   4.905   2.632  12.021 -0.3261  1.2232 -0.0254
10646TIP3   OH253352   2.070   2.091  14.165  0.1446  0.1898  0.6831
10646TIP3    H153353   2.057   2.038  14.086  0.2989  1.6090 -0.3118
10646TIP3    H253354   2.055   2.181  14.137  2.9641  1.0216  1.6231
10647TIP3   OH253355   1.776   2.247   1.396  0.6653 -0.0493 -0.0450
10647TIP3    H153356   1.706   2.220   1.454 -1.0248  2.7564 -0.6907
10647TIP3    H253357   1.752   2.211   1.311 -0.7129  1.9256 -0.5378
10648TIP3   OH253358   5.534   0.460  13.302  0.2282  0.3144 -0.4938
10648TIP3    H153359   5.448   0.473  13.342  0.2060  0.9620 -0.7523
10648TIP3    H253360   5.514   0.434  13.212  0.2664 -1.6243  0.0305
10649TIP3   OH253361   2.438   5.345   4.110  0.1180 -0.1972 -0.3602
10649TIP3    H153362   2.482   5.430   4.112 -1.2491  0.5172  0.3216
10649TIP3    H253363   2.498   5.286   4.155  2.7374 -0.4607 -3.9808
10650TIP3   OH253364   0.210   5.761  13.818 -0.5237  0.2661  0.0255
10650TIP3    H153365   0.154   5.822  13.770  0.4793  1.4576  0.3683
10650TIP3    H253366   0.299   5.788  13.797 -0.0701  0.4917  2.1548
10651TIP3   OH253367   2.423   2.605   4.854 -0.2278  0.1452 -0.3510
10651TIP3    H153368   2.405   2.684   4.803 -0.6693 -2.0194 -3.7029
10651TIP3    H253369   2.517   2.592   4.846 -0.4519 -0.7866 -1.5321
10652TIP3   OH253370   5.303   3.128  12.655  0.2238  0.0829 -0.3503
10652TIP3    H153371   5.218   3.161  12.626 -0.8825  0.0913  2.7378
10652TIP3    H253372   5.346   3.204  12.694  1.2414 -0.1564 -1.0062
10653TIP3   OH253373   1.953   6.603   0.072  0.5407  0.2671  0.5345
10653TIP3    H153374   1.927   6.670   0.009  2.1236  1.1313  0.7523
10653TIP3    H253375   1.894   6.530   0.056 -1.4489  1.8313  0.4919
10654TIP3   OH253376   4.000   4.292   1.901 -0.7703  0.5758 -0.4752
10654TIP3    H153377   3.912   4.283   1.937 -1.1598 -0.7052 -1.6660
10654TIP3    H253378   3.990   4.354   1.829 -0.4613  1.3708  0.1748
10655TIP3   OH253379   5.201   2.493   6.007  0.7588 -0.4320 -0.6913
10655TIP3    H153380   5.197   2.587   5.990  1.7522 -0.4272 -0.9082
10655TIP3    H253381   5.205   2.486   6.103  3.2136 -0.1338 -0.7340
10656TIP3   OH253382   3.407   1.101  12.266 -0.3757  0.0930 -0.0412
10656TIP3    H153383   3.328   1.089  12.318  0.1902  2.4317  1.4076
10656TIP3    H253384   3.377   1.143  12.185 -0.9471 -1.4739 -0.6595
10657TIP3   OH253385   5.633   3.429   0.720 -0.0197  0.4723  0.3312
10657TIP3    H153386   5.559   3.372   0.740 -0.0935  0.1006 -0.9363
10657TIP3    H253387   5.602   3.517   0.741 -0.3842  0.1968  0.9804
10658TIP3   OH253388   0.091   0.952  13.729 -0.0379  0.0485 -0.3403
10658TIP3    H153389   0.006   0.909  13.736  0.0397  0.0858  1.1027
10658TIP3    H253390   0.121   0.958  13.820  0.3911  2.2510 -0.6035
10659TIP3   OH253391   5.032   3.352   3.780 -0.0658 -0.2344 -0.4890
10659TIP3    H153392   5.060   3.395   3.861 -0.2920  1.4113 -1.2671
10659TIP3    H253393   5.047   3.258   3.796 -3.3924 -0.3354  2.7723
10660TIP3   OH253394   6.541   0.811   0.563  0.0163  0.2509 -0.1931
10660TIP3    H153395   6.587   0.879   0.612  0.1150  1.0425 -1.3524
10660TIP3    H253396   6.611   0.755   0.529 -0.0422 -0.1916  0.4042
10661TIP3   OH253397   1.264   3.324  14.986 -0.4380 -0.0484  0.2207
10661TIP3    H153398   1.278   3.315  15.080  1.3480 -1.7549 -0.1910
10661TIP3    H253399   1.207   3.401  14.978  0.3551  0.8419  2.6088
10662TIP3   OH253400   6.404   1.543   4.293  0.0055 -0.3122  0.2151
10662TIP3    H153401   6.485   1.573   4.336  0.4836 -1.6214  0.2635
10662TIP3    H253402   6.353   1.623   4.279  0.7426  0.3765  1.3667
10663TIP3   OH253403   5.842   4.239   3.549 -0.0388 -0.3604  0.3279
10663TIP3    H153404   5.904   4.236   3.476  0.2146  1.0570  0.4782
10663TIP3    H253405   5.896   4.222   3.626  0.4205  2.1200  0.5953
10664TIP3   OH253406   2.714   4.815   1.683  0.6003  0.2105  0.1028
10664TIP3    H153407   2.717   4.819   1.779  0.3988 -0.7335  0.1552
10664TIP3    H253408   2.658   4.739   1.664 -2.1273  2.3847 -0.7964
10665TIP3   OH253409   5.479   3.495  15.003 -0.2010 -0.1909  0.1340
10665TIP3    H153410   5.422   3.519  14.931  0.2465  1.1222  0.2014
10665TIP3    H253411   5.567   3.501  14.967  0.1883  3.1061  1.4798
10666TIP3   OH253412   0.124   2.594   5.985 -0.2956 -0.1662  0.2311
10666TIP3    H153413   0.084   2.516   6.024 -1.1240  0.2309  0.1738
10666TIP3    H253414   0.071   2.667   6.016 -1.6287  0.0780 -2.5042
10667TIP3   OH253415   2.968   4.170   5.723  0.5349 -0.8337  0.1717
10667TIP3    H153416   2.974   4.254   5.767  0.7348 -1.4457  1.3171
10667TIP3    H253417   3.002   4.187   5.635 -0.8781  0.6355 -0.1083
10668TIP3   OH253418   4.290   5.920  14.209  0.4455  0.0606 -0.8983
10668TIP3    H153419   4.342   5.840  14.217  1.4071  0.7626  0.1596
10668TIP3    H253420   4.342   5.986  14.255 -1.0857  0.9256 -0.3893
10669TIP3   OH253421   5.030   4.672  14.045  0.5102 -0.7017  0.1599
10669TIP3    H153422   5.032   4.579  14.024 -0.4460 -0.6413 -0.2187
10669TIP3    H253423   4.956   4.681  14.105  0.9878 -0.2876  0.6917
10670TIP3   OH253424   1.961   2.481  15.632 -0.3880 -0.1560 -0.1629
10670TIP3    H153425   2.019   2.406  15.620  0.5915  0.7890 -1.5164
10670TIP3    H253426   1.994   2.524  15.711 -0.2619 -0.5203 -0.0154
10671TIP3   OH253427   2.442   6.432  11.981  0.3351 -0.4522 -0.4122
10671TIP3    H153428   2.460   6.521  11.951 -0.0810 -0.2824 -0.1667
10671TIP3    H253429   2.457   6.435  12.075 -0.0821 -0.5341 -0.3391
10672TIP3   OH253430   0.378   4.269   2.364  0.0726 -0.4657 -0.1545
10672TIP3    H153431   0.284   4.263   2.382  0.5956 -2.8367  1.9885
10672TIP3    H253432   0.399   4.361   2.378 -1.6491 -0.2029  0.8493
10673TIP3   OH253433   6.045   1.347  14.204  0.3346  0.1693  0.7253
10673TIP3    H153434   5.999   1.286  14.147 -1.2399  0.9524  1.1184
10673TIP3    H253435   5.996   1.345  14.287  1.0039  1.0056  1.1548
10674TIP3   OH253436   4.105   5.606   4.997 -0.1152  0.0745 -0.1983
10674TIP3    H153437   4.150   5.680   4.954  3.1136 -2.6608 -1.7283
10674TIP3    H253438   4.071   5.554   4.924  0.0055 -1.3682  0.7754
10675TIP3   OH253439   1.081   0.701  15.924  0.0826 -0.1268  0.2066
10675TIP3    H153440   1.073   0.685  15.830 -0.2531 -1.3399  0.4283
10675TIP3    H253441   1.060   0.794  15.935  2.2534  0.5476 -1.1649
10676TIP3   OH253442   2.982   3.535  13.723 -0.3633  0.2294  0.5011
10676TIP3    H153443   2.942   3.590  13.790  0.1197 -0.3416  1.2696
10676TIP3    H253444   3.076   3.551  13.732 -0.4118  1.8468 -1.5465
10677TIP3   OH253445   4.929   4.312   2.511  0.2674  0.8083  0.3511
10677TIP3    H153446   4.905   4.392   2.465  0.7062  0.5890 -0.2733
10677TIP3    H253447   4.960   4.253   2.442  0.1498  0.1797  0.8290
10678TIP3   OH253448   5.582   5.662   2.586  0.6526 -0.5877 -0.2971
10678TIP3    H153449   5.637   5.738   2.603 -1.3204  0.3991  2.1309
10678TIP3    H253450   5.534   5.684   2.507 -1.4457  1.7018  1.5192
10679TIP3   OH253451   0.086   3.398   4.813 -0.4275  0.2266  0.1343
10679TIP3    H153452   0.089   3.465   4.745 -0.9111  0.8351  0.7101
10679TIP3    H253453   0.010   3.421   4.866 -0.6638 -0.8428  0.2707
10680TIP3   OH253454   2.315   1.785  12.687 -0.1225 -0.2668 -0.4787
10680TIP3    H153455   2.411   1.782  12.683 -0.1170  0.1780 -0.7369
10680TIP3    H253456   2.294   1.757  12.776  0.2421 -0.4466 -0.4449
10681TIP3   OH253457   0.671   1.285  16.544 -0.1906 -0.0168  0.0481
10681TIP3    H153458   0.646   1.264  16.634 -1.0125  1.8296  0.2702
10681TIP3    H253459   0.593   1.326  16.506  1.0403  1.7520 -0.6389
10682TIP3   OH253460   5.200   5.167  11.067 -0.2936 -0.0662  0.7835
10682TIP3    H153461   5.182   5.178  10.973 -0.9434 -1.0582  0.7853
10682TIP3    H253462   5.248   5.246  11.091 -0.1091  0.1972 -0.3911
10683TIP3   OH253463   2.315   3.347  13.214  0.2194 -0.3530  0.0700
10683TIP3    H153464   2.328   3.260  13.177  0.3133  0.1647 -1.1268
10683TIP3    H253465   2.392   3.361  13.270 -0.9615 -1.9928  2.1805
10684TIP3   OH253466   0.815   1.473   1.980 -0.4281  0.1837 -0.2103
10684TIP3    H153467   0.907   1.459   1.956  0.0112  1.2453  0.8323
10684TIP3    H253468   0.818   1.508   2.069 -1.8977 -0.7255  0.2163
10685TIP3   OH253469   0.901   1.142  10.554 -0.0446 -0.6416 -0.4308
10685TIP3    H153470   0.929   1.119  10.465 -0.0401 -0.2689 -0.5240
10685TIP3    H253471   0.927   1.066  10.607 -0.2574 -0.9666 -0.7858
10686TIP3   OH253472   4.693   5.908  14.335 -1.0444 -0.3732  0.1015
10686TIP3    H153473   4.731   5.823  14.311  0.0991  0.2318 -0.2693
10686TIP3    H253474   4.700   5.961  14.255 -0.6622  0.4471  0.6713
10687TIP3   OH253475   0.845   5.837  12.337 -0.3729  0.2931  0.2677
10687TIP3    H153476   0.835   5.867  12.246 -1.1997 -0.9024 -0.0505
10687TIP3    H253477   0.770   5.874  12.382  0.0589  0.9195  0.4854
10688TIP3   OH253478   5.009   2.909   6.613 -0.1275  0.1473 -0.1316
10688TIP3    H153479   4.993   2.816   6.629  0.4770  0.2972  1.4807
10688TIP3    H253480   4.976   2.924   6.525 -1.3604 -1.3193  0.0533
10689TIP3   OH253481   6.359   6.153  16.021 -0.0404  0.2898 -0.5731
10689TIP3    H153482   6.435   6.104  15.992  1.3651  1.8926  0.2916
10689TIP3    H253483   6.285   6.096  16.003  1.4086 -1.5280 -0.9054
10690TIP3   OH253484   6.395   1.409  12.171 -0.5534 -0.3295  0.2011
10690TIP3    H153485   6.431   1.471  12.234 -0.2311 -0.2085 -0.1009
10690TIP3    H253486   6.312   1.448  12.144 -0.5854 -0.2727  0.3800
10691TIP3   OH253487   1.113   4.178  13.958  0.1513 -0.1311  0.2064
10691TIP3    H153488   1.174   4.108  13.982 -0.1090  0.5209  2.8631
10691TIP3    H253489   1.028   4.147  13.989 -0.8217 -0.7790 -2.9792
10692TIP3   OH253490   2.204   5.967   2.945  0.2616  0.1637  0.0166
10692TIP3    H153491   2.127   6.025   2.939 -0.4873 -0.7046  1.1080
10692TIP3    H253492   2.181   5.904   3.013  0.8238 -1.8092 -1.5674
10693TIP3   OH253493   2.198   6.189  12.119  0.1165 -0.3834  0.2285
10693TIP3    H153494   2.172   6.110  12.166 -0.3459 -0.0393  0.5584
10693TIP3    H253495   2.143   6.258  12.156  3.9550  1.1099  3.4910
10694TIP3   OH253496   5.810   3.763   0.379 -0.0091  0.2781  0.3303
10694TIP3    H153497   5.843   3.808   0.301 -1.1155  0.3825 -0.0958
10694TIP3    H253498   5.888   3.734   0.425  0.6611  0.2160 -0.8251
10695TIP3   OH253499   5.590   6.071  11.686  0.1016 -0.0405  0.0919
10695TIP3    H153500   5.595   6.015  11.763 -0.3317  0.0965  0.2215
10695TIP3    H253501   5.673   6.058  11.641 -0.1672 -1.1079 -0.1028
10696TIP3   OH253502   1.944   2.971   2.948 -0.5791  0.0530 -0.2808
10696TIP3    H153503   1.912   3.061   2.937 -3.8282 -0.9648  0.5121
10696TIP3    H253504   1.948   2.958   3.042  1.7250 -0.0615 -0.3581
10697TIP3   OH253505   1.698   1.644   2.872  0.4328  0.5582  0.5889
10697TIP3    H153506   1.602   1.648   2.872  0.4005 -0.1323 -0.2006
10697TIP3    H253507   1.725   1.716   2.815  0.3910  0.7307  0.7833
10698TIP3   OH253508   6.645   3.321   0.852  0.5582 -0.2334  0.2982
10698TIP3    H153509   6.597   3.244   0.880 -1.3161  0.9866  0.5182
10698TIP3    H253510   6.729   3.287   0.820 -0.6819 -2.4450 -0.6695
10699TIP3   OH253511   1.143   1.636   3.465 -0.2667  0.2509 -0.1634
10699TIP3    H153512   1.061   1.595   3.436 -0.2279  0.8522 -1.1313
10699TIP3    H253513   1.135   1.638   3.561 -0.2759 -1.9941 -0.0712
10700TIP3   OH253514   4.478   1.923   1.539 -0.2177 -0.4735 -0.1448
10700TIP3    H153515   4.557   1.890   1.497 -0.7832  0.3499 -1.9120
10700TIP3    H253516   4.423   1.845   1.551 -0.2527 -0.6401 -1.3862
10701TIP3   OH253517   3.817   3.026   4.997  0.5571  0.0255  0.1973
10701TIP3    H153518   3.731   3.052   5.029  0.3873 -1.0920  0.6792
10701TIP3    H253519   3.877   3.092   5.034 -0.2332  1.5937 -1.2603
10702TIP3   OH253520   0.493   3.771   0.478  0.0912 -0.3361  0.3853
10702TIP3    H153521   0.398   3.769   0.461  0.3327  0.3300 -1.1871
10702TIP3    H253522   0.525   3.844   0.424  1.4741 -0.4206  1.0672
10703TIP3   OH253523   1.405   2.690  15.256 -0.2111 -0.2102  0.4636
10703TIP3    H153524   1.367   2.721  15.173  0.1909  1.2471  0.8114
10703TIP3    H253525   1.473   2.629  15.229  1.5354  2.0369 -0.3968
10704TIP3   OH253526   3.612   2.095   1.834 -0.0987  0.2916 -0.1508
10704TIP3    H153527   3.522   2.096   1.801 -0.0937 -0.4690 -0.2080
10704TIP3    H253528   3.660   2.044   1.768  0.1657 -0.1606  0.3881
10705TIP3   OH253529   6.277   3.668   0.875 -0.1475 -0.1184 -0.3379
10705TIP3    H153530   6.287   3.655   0.781  0.4544  0.5370 -0.3674
10705TIP3    H253531   6.190   3.635   0.895 -0.7842  0.9454 -1.3485
10706TIP3   OH253532   4.845   4.894   1.113  0.0380  0.8527  0.5569
10706TIP3    H153533   4.789   4.920   1.186  2.0867  1.2897  2.0333
10706TIP3    H253534   4.918   4.957   1.115  1.2806 -0.5123 -0.4571
10707TIP3   OH253535   4.840   4.253  10.873 -0.0797 -0.4143 -0.1790
10707TIP3    H153536   4.762   4.257  10.817  0.1370 -0.5926 -0.4933
10707TIP3    H253537   4.854   4.160  10.888 -1.3222 -0.2908  1.8438
10708TIP3   OH253538   0.669   6.390  13.737  0.0560  0.5647  0.2226
10708TIP3    H153539   0.574   6.389  13.724 -0.0459 -0.5328  1.0128
10708TIP3    H253540   0.705   6.374  13.650 -0.5102 -0.5458  0.1859
10709TIP3   OH253541   6.371   5.817   1.034 -0.1254 -0.3637  0.5274
10709TIP3    H153542   6.325   5.803   0.951 -0.2357 -1.8859  0.8310
10709TIP3    H253543   6.394   5.910   1.034  0.1509 -0.4217 -1.3524
10710TIP3   OH253544   1.152   0.065  11.878 -0.0517 -0.4597  0.4099
10710TIP3    H153545   1.244   0.086  11.891  0.2010  0.4394 -2.4638
10710TIP3    H253546   1.145  -0.027  11.902  1.2120 -0.0973  2.2819
10711TIP3   OH253547   3.475   4.867  11.638  0.1670  0.0688 -0.4308
10711TIP3    H153548   3.531   4.945  11.646  0.7670 -0.4403  0.4186
10711TIP3    H253549   3.437   4.856  11.725  2.9728 -2.7346  0.5269
10712TIP3   OH253550   2.932   6.619  14.440 -0.5575  0.3165 -0.4765
10712TIP3    H153551   2.987   6.656  14.509 -0.5082 -0.0255 -0.3330
10712TIP3    H253552   2.992   6.602  14.368 -0.2978 -1.0180  0.0503
10713TIP3   OH253553   1.876   5.800  14.121 -0.0466 -0.4108  0.0600
10713TIP3    H153554   1.809   5.732  14.113  0.9440 -1.5425  1.0987
10713TIP3    H253555   1.921   5.780  14.203 -0.9854  2.6862  1.4172
10714TIP3   OH253556   4.206   5.178   3.795  0.4196  0.0519  0.2345
10714TIP3    H153557   4.184   5.098   3.842 -1.7112  0.3338 -0.2271
10714TIP3    H253558   4.132   5.237   3.813  0.7826  1.0342 -1.4244
10715TIP3   OH253559   6.628   6.063  16.004  0.0673 -0.3139 -0.0743
10715TIP3    H153560   6.717   6.098  16.001  0.3610 -1.0478 -0.1089
10715TIP3    H253561   6.639   5.970  15.984 -0.7730 -0.2878 -0.6697
10716TIP3   OH253562   6.517   6.693  12.061 -0.1508 -0.6607 -0.0051
10716TIP3    H153563   6.537   6.758  11.993  0.3459  0.7143  1.4437
10716TIP3    H253564   6.429   6.714  12.089 -1.1590 -2.5298 -1.6409
10717TIP3   OH253565   4.094   4.684   5.419 -0.4490  0.0756  0.0616
10717TIP3    H153566   4.023   4.644   5.368 -1.9584  0.6777  1.6366
10717TIP3    H253567   4.173   4.639   5.389 -1.5119 -0.8051 -1.5398
10718TIP3   OH253568   3.870   6.136  11.119  0.2538 -0.8395 -0.4886
10718TIP3    H153569   3.873   6.115  11.213 -0.3531 -2.3228 -0.7758
10718TIP3    H253570   3.777   6.143  11.099  0.4405  2.2105 -0.4298
10719TIP3   OH253571   5.726   4.936   4.368  0.1973  0.0080  0.2838
10719TIP3    H153572   5.794   4.998   4.340  1.3352 -1.2631  0.1959
10719TIP3    H253573   5.671   4.923   4.291  0.5086  0.1892  0.0311
10720TIP3   OH253574   5.694   3.372  12.800 -0.0593 -0.5144 -0.3091
10720TIP3    H153575   5.729   3.441  12.743  2.3850 -0.9925  0.5803
10720TIP3    H253576   5.728   3.393  12.886  0.4655 -2.6784  0.0365
10721TIP3   OH253577   6.407   0.228  12.646 -0.3020  0.3954 -0.2072
10721TIP3    H153578   6.330   0.205  12.594 -0.0266  0.7641 -0.7901
10721TIP3    H253579   6.413   0.160  12.713 -0.5448 -0.2026 -0.7931
10722TIP3   OH253580   1.732   5.016  11.386  0.3739  0.4472  0.0132
10722TIP3    H153581   1.638   5.002  11.388  0.5037 -0.3043  1.9085
10722TIP3    H253582   1.769   4.935  11.423  1.7768  0.6057 -0.9948
10723TIP3   OH253583   3.005   2.429   3.761  0.7505  0.3996 -0.7577
10723TIP3    H153584   2.982   2.456   3.673  1.4329  0.5665 -0.8859
10723TIP3    H253585   3.086   2.476   3.781  1.1631 -0.4256 -0.4370
10724TIP3   OH253586   5.715   1.771  12.807  0.0958 -0.3431 -0.1109
10724TIP3    H153587   5.659   1.815  12.744  1.7085 -1.6835 -2.5812
10724TIP3    H253588   5.798   1.819  12.803  0.4426 -0.8967  0.4279
10725TIP3   OH253589   4.471   5.235   2.110  0.1729  0.4935 -0.9134
10725TIP3    H153590   4.404   5.293   2.145  1.4517  0.7351  1.1699
10725TIP3    H253591   4.552   5.285   2.116  1.1587 -1.1976  0.1268
10726TIP3   OH253592   2.135   5.449   3.949  0.2256  0.2311  0.1885
10726TIP3    H153593   2.111   5.429   3.858 -0.6376  1.4974  0.1319
10726TIP3    H253594   2.230   5.464   3.946  0.6113 -2.0473 -0.0742
10727TIP3   OH253595   0.508   1.466   0.842  0.0471  0.5787 -0.0749
10727TIP3    H153596   0.508   1.420   0.759  0.9989 -2.0658  1.3432
10727TIP3    H253597   0.600   1.491   0.856 -0.1719  1.3604  0.0059
10728TIP3   OH253598   4.876   0.374   1.166  0.3453 -0.5273 -0.0149
10728TIP3    H153599   4.811   0.310   1.195 -1.9300  1.8581  0.4149
10728TIP3    H253600   4.955   0.353   1.215 -1.5098 -0.6024  3.0692
10729TIP3   OH253601   0.446   6.128   1.677  0.2350  0.8010 -0.2110
10729TIP3    H153602   0.361   6.150   1.640 -0.8062 -1.4380  0.7465
10729TIP3    H253603   0.444   6.033   1.686  2.1703  0.8826  1.3912
10730TIP3   OH253604   2.862   1.542   2.050 -0.0262 -0.0266  0.2314
10730TIP3    H153605   2.900   1.500   1.973 -0.0417 -2.9354  1.7515
10730TIP3    H253606   2.924   1.524   2.121 -0.8075  1.2354  1.2741
10731TIP3   OH253607   0.440   1.197   3.149 -0.3223 -0.0017 -0.4621
10731TIP3    H153608   0.496   1.221   3.223 -2.1522 -0.5750  1.1634
10731TIP3    H253609   0.352   1.191   3.187 -1.1297 -1.4091 -2.4609
10732TIP3   OH253610   1.578   1.923   3.947  0.3292 -0.5006 -0.4401
10732TIP3    H153611   1.661   1.948   3.989 -0.0415  0.5702 -0.3410
10732TIP3    H253612   1.537   2.006   3.924 -1.1557 -1.0155  0.3406
10733TIP3   OH253613   0.402   2.614  12.100  0.0424 -0.0204  0.2594
10733TIP3    H153614   0.380   2.654  12.016 -0.2191 -1.3187 -0.2989
10733TIP3    H253615   0.349   2.534  12.104 -1.2145  0.8730  2.4004
10734TIP3   OH253616   5.236   4.294   0.548 -0.4135  0.1467  0.2429
10734TIP3    H153617   5.325   4.321   0.571 -0.9522  1.1259  1.2630
10734TIP3    H253618   5.213   4.230   0.614 -0.9111  0.8150  0.7241
10735TIP3   OH253619   3.458   6.572   3.020 -0.2252  0.1804  0.1468
10735TIP3    H153620   3.392   6.512   3.055 -0.2959  0.1940  0.0336
10735TIP3    H253621   3.525   6.575   3.088 -0.6035  0.5981  0.5048
10736TIP3   OH253622   3.784   2.253  16.882  0.1026 -0.2838  0.1340
10736TIP3    H153623   3.713   2.205  16.839 -0.1424 -1.1165  1.4317
10736TIP3    H253624   3.848   2.186  16.904  1.2415  0.4455 -0.8841
10737TIP3   OH253625   6.595   5.169   0.189 -0.7311  0.0111 -1.0960
10737TIP3    H153626   6.608   5.079   0.219  0.9430  0.4312 -0.4996
10737TIP3    H253627   6.682   5.199   0.162 -0.7607  2.3043  1.1285
10738TIP3   OH253628   0.160   3.961   5.870  0.0631  0.1702 -0.1155
10738TIP3    H153629   0.249   3.997   5.873 -0.7495  2.1568  1.3510
10738TIP3    H253630   0.147   3.922   5.957 -0.5161 -0.0870 -0.3137
10739TIP3   OH253631   4.363   3.989  11.714  0.1451  0.8696  0.2284
10739TIP3    H153632   4.402   3.972  11.628 -1.3193 -2.2536  0.1008
10739TIP3    H253633   4.270   4.006  11.695 -1.0366 -3.5855  1.3670
10740TIP3   OH253634   0.610   4.111   1.174 -0.5761 -0.5891  0.1408
10740TIP3    H153635   0.535   4.059   1.146 -1.7135  0.9028  0.3637
10740TIP3    H253636   0.572   4.186   1.220  1.0553  0.0616  0.4656
10741TIP3   OH253637   6.568   3.677  16.097 -0.2057 -0.6218  0.3629
10741TIP3    H153638   6.530   3.736  16.162 -0.0980  0.3013 -0.4082
10741TIP3    H253639   6.578   3.731  16.019  0.8879 -1.3753 -0.0241
10742TIP3   OH253640   0.983   0.969   4.418 -0.4746 -0.3616 -0.2665
10742TIP3    H153641   1.053   0.947   4.479  0.8165  2.1316 -0.7770
10742TIP3    H253642   0.973   0.890   4.364  2.2683 -0.6072 -0.4890
10743TIP3   OH253643   6.203   3.472   4.044  0.1998  0.2071 -0.2350
10743TIP3    H153644   6.143   3.545   4.026 -0.5054 -0.4206 -0.4458
10743TIP3    H253645   6.158   3.420   4.110  1.9642  1.4854  2.0509
10744TIP3   OH253646   5.343   3.644   0.424 -0.7782 -0.2003 -0.4371
10744TIP3    H153647   5.327   3.727   0.379 -0.9312  0.0061  0.0016
10744TIP3    H253648   5.438   3.632   0.418 -0.8331 -0.3524 -1.1270
10745TIP3   OH253649   3.140   2.504  15.575  0.2269 -0.4654 -0.1518
10745TIP3    H153650   3.100   2.446  15.640  0.1392  0.3968  0.5811
10745TIP3    H253651   3.209   2.550  15.623  0.6854 -0.3825 -0.8727
10746TIP3   OH253652   1.819   3.675   2.697  0.4300  0.2254  0.6929
10746TIP3    H153653   1.885   3.608   2.677 -0.1308 -0.4441  1.0337
10746TIP3    H253654   1.830   3.741   2.630  0.3968 -0.6603 -0.1949
10747TIP3   OH253655   3.561   3.374   1.611  0.4712  0.1382 -0.2589
10747TIP3    H153656   3.486   3.337   1.566  0.0479  0.3818  0.2310
10747TIP3    H253657   3.595   3.441   1.552 -1.6098  2.2195  0.8217
10748TIP3   OH253658   1.035   4.789   4.032  0.2945 -0.7148 -0.1191
10748TIP3    H153659   1.046   4.869   3.981  0.2696 -0.4518  0.2881
10748TIP3    H253660   0.954   4.802   4.080  1.6726  0.1602  2.0396
10749TIP3   OH253661   5.958   3.938   4.508  0.9790  0.2047 -0.1908
10749TIP3    H153662   5.980   4.031   4.515  0.8343  0.4535 -2.7633
10749TIP3    H253663   5.877   3.928   4.558  1.8104  1.1424  1.3762
10750TIP3   OH253664   3.706   2.229   0.937  0.0190  0.2617  0.0047
10750TIP3    H153665   3.782   2.278   0.903  0.2623 -0.8687 -1.0892
10750TIP3    H253666   3.724   2.138   0.914 -0.4379 -0.3766  2.0313
10751TIP3   OH253667   4.105   4.127   3.120  0.2173 -0.1358 -0.2334
10751TIP3    H153668   4.130   4.140   3.211  0.7049 -0.9536 -0.2509
10751TIP3    H253669   4.062   4.209   3.095  1.5267  0.6929  0.2378
10752TIP3   OH253670   3.756   0.212  17.059 -0.5128  0.7394 -0.2802
10752TIP3    H153671   3.690   0.269  17.019  0.0032  1.8147  0.3688
10752TIP3    H253672   3.766   0.246  17.148 -1.4177 -1.4436  0.6641
10753TIP3   OH253673   2.470   0.283  11.401 -0.0253 -0.2140  0.0987
10753TIP3    H153674   2.462   0.238  11.486  0.6816 -0.8589 -0.1665
10753TIP3    H253675   2.447   0.216  11.337 -0.4994  0.2587 -0.2270
10754TIP3   OH253676   0.197   4.572  12.600  0.3934 -0.3196 -0.6147
10754TIP3    H153677   0.127   4.548  12.662  0.5692  0.2822 -0.1868
10754TIP3    H253678   0.226   4.658  12.629 -0.2325  0.4322 -2.1594
10755TIP3   OH253679   6.237   0.539   1.389  0.0347  0.1409 -0.5756
10755TIP3    H153680   6.196   0.586   1.462 -0.7168 -1.7619  0.2406
10755TIP3    H253681   6.217   0.447   1.405  1.7866 -0.5074 -1.9842
10756TIP3   OH253682   4.021   1.928  16.643 -0.0338 -0.3677 -0.0366
10756TIP3    H153683   4.005   2.021  16.625  1.0362  0.0701  1.1676
10756TIP3    H253684   4.113   1.915  16.620  0.2517 -0.7434  1.2839
10757TIP3   OH253685   0.110   5.964   4.057  1.1624  0.2979  0.4972
10757TIP3    H153686   0.087   5.954   4.149  1.1062  0.8455  0.5454
10757TIP3    H253687   0.155   5.882   4.034 -0.9000 -0.8136  0.3653
10758TIP3   OH253688   1.086   1.835   4.280 -0.2505  0.0711  0.3622
10758TIP3    H153689   1.047   1.913   4.321 -0.0847  0.7500 -0.7415
10758TIP3    H253690   1.015   1.799   4.226  0.7489  1.5772 -2.0237
10759TIP3   OH253691   1.167   2.689   5.111 -0.0922 -0.9287 -0.0524
10759TIP3    H153692   1.243   2.720   5.160  0.4124  0.9113 -1.9251
10759TIP3    H253693   1.114   2.768   5.097 -0.2223 -1.3929 -2.3973
10760TIP3   OH253694   3.675   3.494  11.802 -0.1363 -0.1393  0.0924
10760TIP3    H153695   3.647   3.528  11.886 -0.1535  0.4950 -0.1707
10760TIP3    H253696   3.610   3.528  11.740 -0.4301 -1.0330 -0.1049
10761TIP3   OH253697   1.855   3.061  16.697  0.0563 -0.3036  0.0162
10761TIP3    H153698   1.846   3.139  16.752  1.6333  0.6282 -0.9945
10761TIP3    H253699   1.943   3.028  16.717  0.4225 -0.2925 -1.4735
10762TIP3   OH253700   3.196   6.179  12.945  0.4771 -0.0287 -0.0354
10762TIP3    H153701   3.184   6.272  12.968 -0.9585 -0.5177  1.3532
10762TIP3    H253702   3.142   6.167  12.867  0.9093  0.3856 -0.3971
10763TIP3   OH253703   3.184   5.029   5.589 -0.3771 -0.4755 -0.1813
10763TIP3    H153704   3.137   5.082   5.525  0.5469 -1.2070 -1.4877
10763TIP3    H253705   3.183   4.940   5.552 -0.2045 -0.9920  1.0279
10764TIP3   OH253706   0.773   1.640   2.612 -0.5981  0.1666 -0.3433
10764TIP3    H153707   0.694   1.633   2.666  0.4012 -1.6256  0.9474
10764TIP3    H253708   0.804   1.730   2.626 -0.7283 -0.0724  1.5454
10765TIP3   OH253709   1.897   1.535  13.515  0.1269 -1.0393 -0.3740
10765TIP3    H153710   1.874   1.502  13.428 -2.3736 -2.6455  0.8140
10765TIP3    H253711   1.922   1.456  13.564 -0.6880 -0.4742  0.9845
10766TIP3   OH253712   6.082   0.594  12.743  0.1152 -0.2241  0.4925
10766TIP3    H153713   6.095   0.681  12.781  1.3698 -0.0088 -0.3932
10766TIP3    H253714   6.096   0.607  12.649  0.0202 -1.3238  0.3233
10767TIP3   OH253715   2.839   5.869  16.585 -0.3124  0.3328 -0.2155
10767TIP3    H153716   2.744   5.853  16.590 -0.5984  1.0618 -2.5803
10767TIP3    H253717   2.846   5.956  16.544  1.3888 -0.1554 -0.9849
10768TIP3   OH253718   2.442   5.730   3.739  0.1863  0.0868  0.1140
10768TIP3    H153719   2.392   5.782   3.802  0.5098 -0.9362  1.2163
10768TIP3    H253720   2.532   5.762   3.748 -0.0351  1.0480 -0.9724
10769TIP3   OH253721   2.063   1.990  15.039 -0.0151 -0.2221  0.1259
10769TIP3    H153722   2.076   1.895  15.031  0.4908 -0.2049  0.6451
10769TIP3    H253723   1.968   2.002  15.039 -0.0718 -0.5187 -2.1043
10770TIP3   OH253724   4.678   5.359  11.277 -0.5889  0.5161  0.0551
10770TIP3    H153725   4.614   5.288  11.281 -0.7769  0.6550 -0.4283
10770TIP3    H253726   4.729   5.342  11.198 -1.2992  1.4664 -0.6240
10771TIP3   OH253727   3.361   1.828   3.074  0.6818  0.0003 -0.4337
10771TIP3    H153728   3.432   1.865   3.125  0.3541  0.4773 -0.3208
10771TIP3    H253729   3.303   1.788   3.140  0.1522  0.7978 -0.4075
10772TIP3   OH253730   4.421   2.986   3.579  0.3950 -0.2305 -0.7176
10772TIP3    H153731   4.438   2.896   3.605 -1.4195  0.0041  1.4147
10772TIP3    H253732   4.378   2.979   3.494  0.2785 -1.3584 -0.5717
10773TIP3   OH253733   0.084   5.836  13.152 -0.2156  0.6413  0.2757
10773TIP3    H153734   0.165   5.846  13.102  0.0298 -3.2696 -0.2289
10773TIP3    H253735   0.019   5.811  13.087 -0.5015 -1.8296  1.4327
10774TIP3   OH253736   2.582   4.542   5.754  0.3149  0.1016  0.0680
10774TIP3    H153737   2.559   4.595   5.678 -0.5950 -0.1068  0.1921
10774TIP3    H253738   2.674   4.519   5.741  0.6680  1.5482 -0.0827
10775TIP3   OH253739   2.209   5.192  13.217 -0.1501 -0.4882 -0.1473
10775TIP3    H153740   2.158   5.205  13.137 -1.4664 -2.0208  0.4145
10775TIP3    H253741   2.249   5.105  13.207  0.0263 -0.5090  0.6737
10776TIP3   OH253742   2.701   2.189  15.176  0.3612  0.1004  0.4369
10776TIP3    H153743   2.710   2.282  15.195  2.3401  0.0437 -0.1361
10776TIP3    H253744   2.768   2.147  15.229  0.1947 -0.8983 -0.1258
10777TIP3   OH253745   6.036   6.712  11.001 -0.0280  0.1991  0.3945
10777TIP3    H153746   6.028   6.676  10.912 -0.5969 -0.2505  0.6228
10777TIP3    H253747   6.003   6.643  11.058 -1.4269  1.1829  0.8208
10778TIP3   OH253748   3.013   4.715   3.918 -0.6655 -0.6201 -0.3137
10778TIP3    H153749   2.976   4.677   3.998 -1.5201  1.9605  0.5977
10778TIP3    H253750   3.107   4.698   3.924 -0.6399  0.0250  1.5812
10779TIP3   OH253751   3.325   4.776   5.828 -0.0254  0.7006 -0.1217
10779TIP3    H153752   3.366   4.767   5.742 -2.1287  0.7972 -1.1540
10779TIP3    H253753   3.357   4.860   5.861  0.9120  0.5894 -0.7264
10780TIP3   OH253754   4.632   6.695   5.075  0.0161 -0.1726 -0.2625
10780TIP3    H153755   4.703   6.638   5.104  0.3030  1.2583  1.9208
10780TIP3    H253756   4.566   6.635   5.041  0.7614 -1.7493  1.0231
10781TIP3   OH253757   1.933   3.293  15.872 -0.1857 -0.3890  0.0598
10781TIP3    H153758   1.883   3.225  15.917  1.4612 -0.8453  1.2575
10781TIP3    H253759   1.979   3.339  15.942 -1.0110  1.7656 -0.7704
10782TIP3   OH253760   1.572   5.299   1.437  0.0865 -0.7494  0.0960
10782TIP3    H153761   1.534   5.291   1.350 -1.5109 -1.9167  0.8865
10782TIP3    H253762   1.502   5.336   1.491  0.5871 -1.3761  1.2024
10783TIP3   OH253763   1.234   1.923   5.177 -0.3687  0.3299 -0.0129
10783TIP3    H153764   1.248   1.874   5.258  1.1790 -1.1518 -1.1433
10783TIP3    H253765   1.314   1.974   5.166 -0.8224  0.9852 -0.3239
10784TIP3   OH253766   6.336   3.519  11.995 -0.0950  0.7552 -0.1519
10784TIP3    H153767   6.286   3.595  12.024  0.0950  1.3152 -1.2636
10784TIP3    H253768   6.383   3.489  12.073 -0.1364  1.8038  0.2740
10785TIP3   OH253769   1.668   1.992   1.722  0.4072 -0.2846 -0.6387
10785TIP3    H153770   1.625   2.037   1.649 -1.6272 -0.3755  0.4794
10785TIP3    H253771   1.736   1.938   1.681  0.2938  0.8189 -2.3194
10786TIP3   OH253772   0.738   3.211   4.636  0.4881  0.1497 -0.3278
10786TIP3    H153773   0.678   3.285   4.650  0.9434  0.3350  0.6536
10786TIP3    H253774   0.773   3.192   4.723  0.3119 -1.2746 -0.5651
10787TIP3   OH253775   6.106   4.766  15.985  0.1170  0.5118 -0.5053
10787TIP3    H153776   6.029   4.711  15.973  0.2507  0.5853 -1.7700
10787TIP3    H253777   6.172   4.708  16.022 -0.4463  0.3824  0.3162
10788TIP3   OH253778   2.094   6.453   1.902  0.6077  0.2317  0.0743
10788TIP3    H153779   2.091   6.485   1.993 -3.7530 -1.2640  0.5669
10788TIP3    H253780   2.051   6.522   1.851  0.7940 -0.0608 -0.4768
10789TIP3   OH253781   1.484   6.301   0.907  0.2329 -0.2433 -0.3932
10789TIP3    H153782   1.533   6.273   0.830 -0.8044 -1.7510 -0.5401
10789TIP3    H253783   1.496   6.229   0.970  0.5365  0.6759  0.6144
10790TIP3   OH253784   0.264   6.451   3.597  0.0476  0.0203 -0.0268
10790TIP3    H153785   0.181   6.475   3.554 -0.7503 -1.7693  0.4764
10790TIP3    H253786   0.247   6.461   3.690 -0.0516 -1.7101  0.1482
10791TIP3   OH253787   3.855   4.142   2.808  0.1312 -0.1098 -0.0399
10791TIP3    H153788   3.838   4.225   2.852 -0.5589  0.3969 -1.2275
10791TIP3    H253789   3.828   4.075   2.870 -1.0383  0.5939  0.2144
10792TIP3   OH253790   2.275   0.263  14.154 -0.5763  0.1342 -0.0526
10792TIP3    H153791   2.294   0.222  14.238  1.4599  1.1065 -0.0198
10792TIP3    H253792   2.288   0.194  14.090 -0.3431 -0.1275  0.2751
10793TIP3   OH253793   5.471   6.581   3.321 -0.0141  0.3087 -0.3824
10793TIP3    H153794   5.561   6.556   3.298 -0.4468 -0.6860 -1.0243
10793TIP3    H253795   5.473   6.676   3.323  1.1640  0.2901  0.0469
10794TIP3   OH253796   0.639   3.208   5.318  0.2018  0.2374 -0.4914
10794TIP3    H153797   0.574   3.140   5.334  0.8053 -0.3562 -0.5388
10794TIP3    H253798   0.589   3.280   5.278 -0.5697  0.1270  0.2631
10795TIP3   OH253799   6.731   4.911  12.377  0.0333 -0.2398  0.0349
10795TIP3    H153800   6.680   4.887  12.300 -0.4801  1.0909 -0.0505
10795TIP3    H253801   6.820   4.882  12.357  0.0470  0.7045 -1.3552
10796TIP3   OH253802   6.008   1.895  11.186 -0.2270  0.0241 -0.3522
10796TIP3    H153803   5.926   1.912  11.138 -0.2414 -1.9893 -1.0557
10796TIP3    H253804   6.077   1.925  11.126 -0.3783  0.2028 -0.4373
10797TIP3   OH253805   0.703   0.278   0.582 -0.0852 -0.4338 -0.5621
10797TIP3    H153806   0.700   0.275   0.678  0.1207 -1.7659 -0.5769
10797TIP3    H253807   0.674   0.191   0.555  0.2773 -0.2099 -1.6965
10798TIP3   OH253808   2.913   3.550  15.122  0.2903  0.5234 -0.1345
10798TIP3    H153809   2.846   3.501  15.075  0.0361  0.7247  0.0208
10798TIP3    H253810   2.868   3.590  15.196  0.6756  0.2769  0.2349
10799TIP3   OH253811   5.498   4.911  14.994  0.2878  0.3437  0.0359
10799TIP3    H153812   5.554   4.846  15.037 -0.5755  0.2157  0.9689
10799TIP3    H253813   5.526   4.995  15.031 -0.4988  0.2277  0.9091
10800TIP3   OH253814   1.881   5.620   5.236 -0.1108 -0.4721 -0.2167
10800TIP3    H153815   1.846   5.667   5.161  0.6673  0.6487  0.1142
10800TIP3    H253816   1.967   5.658   5.250 -0.1473 -0.8542  1.0877
10801TIP3   OH253817   2.065   3.405   3.721 -0.1040  0.3821 -0.2010
10801TIP3    H153818   2.114   3.371   3.796 -1.1997  1.4691  1.0359
10801TIP3    H253819   2.012   3.476   3.757 -1.1558  0.4864 -1.8816
10802TIP3   OH253820   0.821   5.402  11.514  0.0870  0.0225 -0.2458
10802TIP3    H153821   0.850   5.348  11.441  1.3469  0.8499 -0.3899
10802TIP3    H253822   0.901   5.416  11.567 -0.1595  1.8512 -0.3153
10803TIP3   OH253823   5.311   5.177  16.697  0.1671  0.3522  0.4970
10803TIP3    H153824   5.219   5.171  16.672  0.5229 -0.2589 -0.6992
10803TIP3    H253825   5.323   5.269  16.723 -0.7512  0.4627  0.5364
10804TIP3   OH253826   1.898   5.789  11.891 -0.1171  0.3162  0.3880
10804TIP3    H153827   1.917   5.882  11.885  1.6391 -0.0469  0.1760
10804TIP3    H253828   1.888   5.773  11.985  0.7424  0.4833  0.5059
10805TIP3   OH253829   6.437   4.028  11.198  0.2467 -0.8586  0.0526
10805TIP3    H153830   6.529   4.049  11.211 -0.2964  2.9385 -1.4307
10805TIP3    H253831   6.399   4.029  11.286  1.2899 -0.8176  0.5090
10806TIP3   OH253832   4.681   1.607   2.604  0.4707 -0.0260 -0.3828
10806TIP3    H153833   4.652   1.520   2.576  0.0631 -0.5501  1.6096
10806TIP3    H253834   4.729   1.592   2.685 -1.4530  1.8062  1.1581
10807TIP3   OH253835   2.851   0.773   5.166  0.1781 -0.1919  0.6320
10807TIP3    H153836   2.899   0.763   5.084  0.9766 -0.5089  1.1350
10807TIP3    H253837   2.768   0.728   5.150  0.5012 -0.6171  0.1421
10808TIP3   OH253838   6.358   6.195   2.885  0.5464  0.1121 -0.0766
10808TIP3    H153839   6.319   6.197   2.972 -1.1604  0.9807 -0.8211
10808TIP3    H253840   6.452   6.197   2.900  0.2584  2.1126  1.7281
10809TIP3   OH253841   3.980   2.032  14.334 -0.1635 -0.3099 -0.3784
10809TIP3    H153842   3.926   2.070  14.403 -1.7587  0.6806 -2.1327
10809TIP3    H253843   4.035   2.104  14.303 -1.8420  0.1683 -2.3990
10810TIP3   OH253844   1.854   2.383  11.955 -0.3470 -0.5319  0.5004
10810TIP3    H153845   1.927   2.438  11.983  0.2179 -0.0485 -1.8473
10810TIP3    H253846   1.828   2.336  12.035  1.7024  0.2024  1.6488
10811TIP3   OH253847   0.730   1.855  14.428 -0.2482  0.1251  0.1266
10811TIP3    H153848   0.654   1.860  14.370 -0.4061 -1.6582  0.1540
10811TIP3    H253849   0.772   1.772  14.405  1.2344  0.6964  0.6844
10812TIP3   OH253850   4.157   2.299   0.164 -0.4946 -0.2059  0.2132
10812TIP3    H153851   4.186   2.219   0.207 -0.2480  0.3905  1.1840
10812TIP3    H253852   4.118   2.351   0.234 -0.5680  0.5561 -0.3888
10813TIP3   OH253853   5.986   2.308  15.196  0.3212 -0.5196 -0.4344
10813TIP3    H153854   5.969   2.235  15.137 -0.4441  0.6494 -1.6912
10813TIP3    H253855   5.899   2.340  15.220  0.6443 -0.4746  0.6912
10814TIP3   OH253856   2.368   2.298  11.717  0.7634 -0.0220  0.1754
10814TIP3    H153857   2.424   2.232  11.758 -0.1981 -1.4078 -0.6861
10814TIP3    H253858   2.410   2.316  11.632  0.2097 -0.6432 -0.2300
10815TIP3   OH253859   3.335   3.873  11.484  0.5359  0.5470 -0.2733
10815TIP3    H153860   3.404   3.909  11.540  0.8255 -2.4612  1.3875
10815TIP3    H253861   3.309   3.792  11.527 -2.6543  0.5933 -1.9607
10816TIP3   OH253862   5.537   4.517   1.730  0.5671  0.1098  0.2064
10816TIP3    H153863   5.568   4.436   1.771 -1.3192 -1.2798 -1.0254
10816TIP3    H253864   5.617   4.566   1.712  1.7404 -1.4172  1.1228
10817TIP3   OH253865   4.974   4.406   0.642 -0.1863  0.2952 -0.2844
10817TIP3    H153866   5.065   4.388   0.619 -0.1663  0.8192 -0.6299
10817TIP3    H253867   4.922   4.361   0.576 -0.1162  2.3915 -1.8112
10818TIP3   OH253868   4.025   6.235  16.425 -0.5093  0.4523  0.0967
10818TIP3    H153869   3.983   6.309  16.467 -0.5583 -0.2252  1.2459
10818TIP3    H253870   4.119   6.255  16.427 -0.6508  1.2510 -1.0928
10819TIP3   OH253871   2.140   3.270   4.809 -0.3922 -0.2251 -0.1453
10819TIP3    H153872   2.083   3.330   4.856  0.1892 -0.4829  0.9032
10819TIP3    H253873   2.216   3.323   4.785 -0.9340  0.0450 -1.2831
10820TIP3   OH253874   4.412   4.833  13.212 -0.5387  0.5954 -0.2484
10820TIP3    H153875   4.420   4.833  13.117 -0.6835  1.3380 -0.2641
10820TIP3    H253876   4.319   4.848  13.228 -0.5539  0.2360  0.0109
10821TIP3   OH253877   3.784   0.367  14.965  0.4265 -0.1375 -0.6739
10821TIP3    H153878   3.792   0.463  14.964  3.3643 -0.3087  1.2131
10821TIP3    H253879   3.757   0.347  15.055 -0.0625 -1.1050 -1.0324
10822TIP3   OH253880   2.259   3.031  13.161 -0.9264  0.2331  0.0515
10822TIP3    H153881   2.167   3.033  13.134 -0.2224 -0.0688 -2.4439
10822TIP3    H253882   2.257   2.990  13.248 -3.1641  0.5494  0.1888
10823TIP3   OH253883   6.223   4.759   3.242  0.0337  0.6610 -0.3396
10823TIP3    H153884   6.152   4.695   3.247 -2.1221  2.9553 -0.6173
10823TIP3    H253885   6.179   4.844   3.232  2.8048  2.1926 -0.1948
10824TIP3   OH253886   3.461   4.241   1.622  0.6739 -0.0435  0.1003
10824TIP3    H153887   3.409   4.234   1.542  0.9536 -1.8671  0.0594
10824TIP3    H253888   3.549   4.263   1.592  0.5039  0.4913 -0.0068
10825TIP3   OH253889   5.743   3.330  16.913 -0.5540  0.4361 -0.0723
10825TIP3    H153890   5.738   3.317  17.008  0.7730  0.1075 -0.0367
10825TIP3    H253891   5.751   3.242  16.877 -1.0099  0.5649 -0.4853
10826TIP3   OH253892   4.837   2.363  16.473 -0.3850  0.5525 -0.6078
10826TIP3    H153893   4.814   2.413  16.552  0.7764  0.7494 -0.3812
10826TIP3    H253894   4.844   2.428  16.404  0.0808  0.5739 -0.5432
10827TIP3   OH253895   1.708   1.280   2.161 -0.2212 -0.3543 -0.1338
10827TIP3    H153896   1.758   1.317   2.088  1.2605  0.0394  1.0499
10827TIP3    H253897   1.618   1.309   2.146  0.1712  0.1824 -1.5036
10828TIP3   OH253898   1.152   5.246  16.132 -0.0598  0.2247  0.2304
10828TIP3    H153899   1.171   5.299  16.055  0.5671 -1.6145 -0.9161
10828TIP3    H253900   1.220   5.271  16.195  2.7950 -2.1456 -1.7798
10829TIP3   OH253901   2.433   1.628  13.986  0.8249  0.0163  0.2671
10829TIP3    H153902   2.525   1.616  13.966  0.2935 -1.1883 -1.6323
10829TIP3    H253903   2.413   1.557  14.048  1.3659  0.8115  1.3590
10830TIP3   OH253904   4.103   0.719   2.350  0.4284 -0.0456  0.1777
10830TIP3    H153905   4.154   0.699   2.429  1.4383 -1.6398 -0.8622
10830TIP3    H253906   4.020   0.673   2.363  0.8162 -0.7878  0.0570
10831TIP3   OH253907   0.859   2.001  13.952 -0.7166 -0.0707  0.0436
10831TIP3    H153908   0.862   2.096  13.964 -0.3057 -0.1789  0.8379
10831TIP3    H253909   0.932   1.982  13.893  0.2327 -0.0666  1.1827
10832TIP3   OH253910   2.401   3.547  15.011 -0.2144  0.1797 -0.2923
10832TIP3    H153911   2.313   3.513  15.023 -0.7787  0.8680 -2.4624
10832TIP3    H253912   2.452   3.471  14.982 -0.6500  0.3580 -1.5170
10833TIP3   OH253913   5.844   3.885  14.896 -0.0240  0.3326 -0.1773
10833TIP3    H153914   5.865   3.824  14.967  1.1046  0.1976 -0.6237
10833TIP3    H253915   5.927   3.901  14.852 -0.3035  2.1560 -0.1038
10834TIP3   OH253916   2.261   1.297  16.716  0.2329  0.3123 -0.0439
10834TIP3    H153917   2.348   1.325  16.687  0.4912 -0.2648  0.1535
10834TIP3    H253918   2.201   1.339  16.655  0.6633  0.6190 -0.2573
10835TIP3   OH253919   3.365   4.254  11.542  0.0121 -0.7258 -0.4334
10835TIP3    H153920   3.286   4.200  11.548 -0.2199 -0.1711  1.9115
10835TIP3    H253921   3.359   4.314  11.617  1.9255  0.3027 -1.0762
10836TIP3   OH253922   5.579   2.913   0.758 -0.0572  0.5264  0.0604
10836TIP3    H153923   5.656   2.884   0.808  0.6398  1.4956 -0.4195
10836TIP3    H253924   5.513   2.932   0.825  0.6230  1.0989  0.5889
10837TIP3   OH253925   2.372   1.049   4.299 -0.0372  0.1658  0.1656
10837TIP3    H153926   2.323   1.129   4.280 -0.3106  0.2087  1.0093
10837TIP3    H253927   2.340   0.985   4.235 -1.9836 -0.1028  1.3353
10838TIP3   OH253928   3.710   3.902  13.457 -0.5470 -0.5014  0.1847
10838TIP3    H153929   3.671   3.890  13.370 -2.8965 -0.7313  1.2232
10838TIP3    H253930   3.704   3.815  13.497  1.1203 -0.5445  0.3525
10839TIP3   OH253931   3.154   1.744   3.269  0.1726 -0.1036  0.3383
10839TIP3    H153932   3.151   1.818   3.329 -1.2253  0.5260 -0.4674
10839TIP3    H253933   3.070   1.699   3.283  0.0875 -0.2802 -0.7053
10840TIP3   OH253934   3.561   1.886  13.795  0.8010  0.1682 -0.0418
10840TIP3    H153935   3.572   1.956  13.859 -1.1995  1.1455 -0.7296
10840TIP3    H253936   3.541   1.931  13.713  1.6342 -1.1306 -0.9831
10841TIP3   OH253937   5.331   4.453  11.659  0.2063 -0.5665 -0.2469
10841TIP3    H153938   5.398   4.438  11.592 -0.9421 -0.7868 -1.3525
10841TIP3    H253939   5.251   4.415  11.623 -0.2233 -1.5568  1.6497
10842TIP3   OH253940   4.961   4.908  15.707  0.1153  0.1452  0.1229
10842TIP3    H153941   4.917   4.980  15.662 -0.2667  0.5747  1.1582
10842TIP3    H253942   5.050   4.940  15.722  0.2480 -0.0034 -0.3224
10843TIP3   OH253943   5.462   0.416  14.072 -0.0240 -0.2011  0.0295
10843TIP3    H153944   5.410   0.439  13.994  2.4685 -2.2332 -2.3536
10843TIP3    H253945   5.401   0.423  14.145 -2.4103  1.9578 -2.0980
10844TIP3   OH253946   4.364   3.541   1.408  0.2569 -0.5412  0.3191
10844TIP3    H153947   4.435   3.525   1.469  0.8964  1.5400  0.1752
10844TIP3    H253948   4.376   3.632   1.380 -1.2386 -0.7966 -1.2998
10845TIP3   OH253949   1.362   4.130   5.134  0.3684  0.3863 -0.1151
10845TIP3    H153950   1.305   4.095   5.065  1.4783  0.3107 -1.0128
10845TIP3    H253951   1.451   4.106   5.106  0.7335 -1.0523  2.1545
10846TIP3   OH253952   0.508   2.106  13.960  0.5464  0.3057 -0.1210
10846TIP3    H153953   0.494   2.013  13.944 -0.3018  0.3565  0.3281
10846TIP3    H253954   0.515   2.145  13.873 -1.9932  0.2617 -0.3721
10847TIP3   OH253955   4.469   1.296  14.466 -0.2928  0.0490 -0.5960
10847TIP3    H153956   4.458   1.203  14.485 -0.6797  0.3980  0.9303
10847TIP3    H253957   4.474   1.300  14.370 -0.5715 -1.5008 -0.6929
10848TIP3   OH253958   4.923   1.310  16.034  0.4023 -0.2060 -0.2040
10848TIP3    H153959   4.879   1.302  16.119 -0.1937  1.1841 -0.3744
10848TIP3    H253960   4.860   1.273  15.972 -0.7368  2.1661 -0.5030
10849TIP3   OH253961   5.033   5.498   4.484  0.5671 -0.5282 -0.1485
10849TIP3    H153962   5.059   5.455   4.566 -0.6394 -1.1060 -0.0590
10849TIP3    H253963   4.941   5.522   4.498  0.5081 -0.1784 -1.1484
10850TIP3   OH253964   5.904   6.698   3.404  0.3327  0.1936 -0.1998
10850TIP3    H153965   5.929   6.789   3.389 -1.4603  0.5325 -1.2571
10850TIP3    H253966   5.986   6.648   3.395  1.5317  1.7778  1.4377
10851TIP3   OH253967   5.237   2.681   4.174  0.1288  0.3836 -0.8503
10851TIP3    H153968   5.222   2.759   4.120 -1.1543  1.3160  0.8191
10851TIP3    H253969   5.315   2.703   4.225 -1.1558  1.2514  0.7867
10852TIP3   OH253970   0.106   5.158   3.632  0.3261 -0.4475  0.5545
10852TIP3    H153971   0.079   5.207   3.554 -1.0865  0.7303  1.7604
10852TIP3    H253972   0.147   5.079   3.597 -0.0368  0.1937 -1.3942
10853TIP3   OH253973   2.960   5.404   2.103 -0.2692 -0.2573 -0.4377
10853TIP3    H153974   2.981   5.360   2.021 -0.7030  1.2004 -1.3463
10853TIP3    H253975   3.045   5.435   2.135 -0.3896  1.5234 -1.7301
10854TIP3   OH253976   2.872   6.638   3.031 -0.1157  0.4596  0.1010
10854TIP3    H153977   2.850   6.585   2.955  1.1462  0.0751 -0.0209
10854TIP3    H253978   2.936   6.584   3.079  0.5253  1.4971  0.4262
10855TIP3   OH253979   0.146   6.444   2.142  0.2897  0.2396 -0.3391
10855TIP3    H153980   0.240   6.449   2.159  0.3900  0.3065 -0.8862
10855TIP3    H253981   0.107   6.506   2.204  0.8295  1.9997 -1.7302
10856TIP3   OH253982   5.267   0.529   3.067  0.2801  0.0730  0.3392
10856TIP3    H153983   5.283   0.524   3.161  1.9010 -0.5323  0.0636
10856TIP3    H253984   5.355   0.528   3.028 -0.3721  0.2444 -1.1744
10857TIP3   OH253985   6.072   3.066   5.541  0.1120 -0.8498  0.3490
10857TIP3    H153986   5.994   3.102   5.499 -0.8094 -2.5882  0.5028
10857TIP3    H253987   6.094   3.130   5.609 -1.4308 -0.5361  0.5816
10858TIP3   OH253988   2.320   2.823   0.731 -0.4506 -0.1826 -0.0352
10858TIP3    H153989   2.291   2.913   0.715 -2.0547  0.2354  4.5334
10858TIP3    H253990   2.250   2.768   0.697  0.1747  0.2660 -2.1275
10859TIP3   OH253991   0.830   6.117  13.717  0.1135 -0.1987  0.2000
10859TIP3    H153992   0.800   6.035  13.678  1.0474  0.1722 -1.3918
10859TIP3    H253993   0.828   6.179  13.644  2.3752  0.4180  0.6297
10860TIP3   OH253994   6.292   6.599   0.981  0.6531 -0.0907 -1.0138
10860TIP3    H153995   6.311   6.663   1.049 -1.7163 -0.7784  0.3858
10860TIP3    H253996   6.279   6.651   0.902 -1.4886  1.2608  0.1551
10861TIP3   OH253997   1.968   3.204   3.148  0.5229  0.4250  0.3700
10861TIP3    H153998   1.979   3.257   3.226 -0.3418  2.0530 -0.5865
10861TIP3    H253999   1.911   3.132   3.175 -0.8938  1.7347  0.9038
10862TIP3   OH254000   2.532   6.103  13.845  0.1349 -0.1956  0.1387
10862TIP3    H154001   2.480   6.159  13.788  0.0519  0.3266  0.7250
10862TIP3    H254002   2.606   6.075  13.791  0.6341  1.1642  0.1119
10863TIP3   OH254003   5.083   2.938  11.595 -0.2121 -0.1429 -0.3619
10863TIP3    H154004   5.101   2.900  11.509  0.7337  0.5352 -0.4707
10863TIP3    H254005   5.166   2.980  11.620 -0.7231  0.3438  0.5294
10864TIP3   OH254006   0.855   5.235  16.405  0.0340  0.1775 -0.1632
10864TIP3    H154007   0.923   5.301  16.391  1.9257 -1.7179 -0.0920
10864TIP3    H254008   0.845   5.230  16.500  2.9031 -2.5168  0.1074
10865TIP3   OH254009   4.947   0.680  11.862  0.5183  0.0028  0.6171
10865TIP3    H154010   4.991   0.765  11.860  0.1157  0.2044 -0.3343
10865TIP3    H254011   5.010   0.620  11.822 -0.2430  0.3893 -1.2113
10866TIP3   OH254012   2.132   1.597  14.507  0.6391  0.1243 -0.2155
10866TIP3    H154013   2.116   1.691  14.519  1.8621  0.3902 -0.6253
10866TIP3    H254014   2.047   1.561  14.483  0.9211  1.7664 -4.0614
10867TIP3   OH254015   0.671   3.147   0.877  0.6476 -0.1204  0.2314
10867TIP3    H154016   0.738   3.088   0.911  0.9961 -0.2680 -0.6969
10867TIP3    H254017   0.611   3.089   0.829  0.3958  0.1427  0.2283
10868TIP3   OH254018   4.243   0.527   2.074  0.2700  0.3867  0.2702
10868TIP3    H154019   4.228   0.622   2.083 -1.3246  0.0118  1.8512
10868TIP3    H254020   4.261   0.497   2.163  1.9670 -0.6397 -0.3829
10869TIP3   OH254021   1.498   0.211  12.660  0.2542  0.2798 -0.0933
10869TIP3    H154022   1.500   0.187  12.752  0.3268 -0.3840 -0.2617
10869TIP3    H254023   1.405   0.214  12.637  0.2877 -1.5310 -0.4966
10870TIP3   OH254024   3.262   1.751  15.400  0.0414  0.2639 -0.3485
10870TIP3    H154025   3.226   1.744  15.489  1.6094  1.3149  0.3934
10870TIP3    H254026   3.248   1.664  15.362 -1.6616  0.1344  0.5192
10871TIP3   OH254027   4.563   5.513   1.996  0.4493  0.4523  0.0261
10871TIP3    H154028   4.543   5.603   1.971 -1.5938  0.0745  0.1761
10871TIP3    H254029   4.478   5.468   1.993  1.2157 -1.1316  1.3248
10872TIP3   OH254030   4.558   0.641  12.942 -0.2787 -0.4257 -0.6304
10872TIP3    H154031   4.604   0.699  12.882  1.4333 -0.7748  0.3024
10872TIP3    H254032   4.582   0.673  13.029 -1.4534 -0.9074 -0.1204
10873TIP3   OH254033   0.389   1.906   6.214  0.3666  0.0573 -0.4205
10873TIP3    H154034   0.372   1.980   6.272  1.2555 -1.8873  2.3873
10873TIP3    H254035   0.451   1.940   6.149  0.9973  1.6703  0.9994
10874TIP3   OH254036   0.038   4.899   1.864  0.0138 -0.5664 -0.0217
10874TIP3    H154037   0.099   4.863   1.799  0.1334 -0.4769  0.0405
10874TIP3    H254038  -0.025   4.829   1.879 -0.8307 -0.1132 -1.2727
10875TIP3   OH254039   2.890   3.131  11.968  0.0331 -0.1710  0.2443
10875TIP3    H154040   2.826   3.102  12.033  0.9045 -3.0265 -0.1099
10875TIP3    H254041   2.930   3.209  12.007 -2.4819  0.6914  1.1903
10876TIP3   OH254042   5.029   0.575  17.198  0.4122  0.2495  0.0772
10876TIP3    H154043   5.082   0.655  17.204 -0.3362  0.9697 -2.3592
10876TIP3    H254044   5.093   0.504  17.200  1.1882  0.9508  0.9072
10877TIP3   OH254045   5.978   5.827  12.948 -0.3814 -0.1775 -0.4603
10877TIP3    H154046   5.898   5.817  12.999 -0.9566 -0.8547 -1.4705
10877TIP3    H254047   6.037   5.876  13.005 -1.2161 -0.4100  0.6158
10878TIP3   OH254048   0.082   3.492   5.830  0.6732  0.2745 -0.5627
10878TIP3    H154049   0.067   3.556   5.760  1.2132  2.3859  1.1949
10878TIP3    H254050  -0.000   3.491   5.879 -0.0486 -1.9283 -1.7531
10879TIP3   OH254051   0.267   0.398  16.567 -0.4058  0.3858 -0.7888
10879TIP3    H154052   0.301   0.317  16.530 -2.8354 -0.3735 -1.4246
10879TIP3    H254053   0.172   0.388  16.566 -0.7094  2.6592  0.4504
10880TIP3   OH254054   3.982   5.430  16.797 -0.0756  0.1889  0.1361
10880TIP3    H154055   3.936   5.422  16.714  0.7654  1.4186 -0.4724
10880TIP3    H254056   3.936   5.500  16.844  0.5171  0.7074 -0.0407
10881TIP3   OH254057   6.357   4.245   0.016  0.0524 -0.2744 -0.0995
10881TIP3    H154058   6.340   4.195  -0.063  2.8095 -1.4977  0.0101
10881TIP3    H254059   6.367   4.335  -0.014 -0.4328 -0.4936 -0.9356
10882TIP3   OH254060   0.851   0.711   3.257  0.3518  0.0478  0.3468
10882TIP3    H154061   0.901   0.715   3.175 -1.1573  0.3241 -0.5758
10882TIP3    H254062   0.834   0.617   3.269  0.6967 -0.0064  0.4227
10883TIP3   OH254063   5.292   1.855  14.613  0.3545 -0.2502 -0.3165
10883TIP3    H154064   5.330   1.940  14.589  1.1706  0.0628  1.9089
10883TIP3    H254065   5.365   1.793  14.606  0.4406 -0.2690  0.6545
10884TIP3   OH254066   6.640   1.878   5.496  0.7033  0.0408  0.8561
10884TIP3    H154067   6.606   1.873   5.407  1.6107  2.8887  0.2877
10884TIP3    H254068   6.731   1.848   5.489  1.2219  1.6454  0.5178
10885TIP3   OH254069   0.818   4.113  13.996  0.3012 -0.1488 -0.1929
10885TIP3    H154070   0.795   4.060  14.072  0.5645  0.9075  0.6386
10885TIP3    H254071   0.735   4.124  13.949  0.0602 -0.4984  0.1479
10886TIP3   OH254072   3.971   6.340   1.246 -0.0666  0.2922  0.2195
10886TIP3    H154073   4.044   6.280   1.235 -0.6880 -0.2257 -1.1156
10886TIP3    H254074   3.994   6.416   1.192 -1.4048 -0.7051 -1.8271
10887TIP3   OH254075   5.291   4.128  13.881 -0.1172  0.3631  0.4163
10887TIP3    H154076   5.293   4.180  13.962 -1.9698 -0.1187  0.7899
10887TIP3    H254077   5.250   4.046  13.906 -0.8227  0.2510 -1.0420
10888TIP3   OH254078   3.393   2.517   1.149 -0.2191  0.4361 -0.6458
10888TIP3    H154079   3.312   2.484   1.112 -0.5008  0.8521 -0.4010
10888TIP3    H254080   3.418   2.451   1.214  0.1132 -0.1378 -1.3446
10889TIP3   OH254081   6.309   1.115   0.232  0.2025 -0.2453  0.1228
10889TIP3    H154082   6.342   1.126   0.143 -0.5980  0.8573 -0.0502
10889TIP3    H254083   6.350   1.034   0.264 -0.0085 -0.9882 -1.4719
10890TIP3   OH254084   5.791   0.809   3.266 -0.1173  0.4403  0.0807
10890TIP3    H154085   5.834   0.757   3.197  0.4493 -1.7299  2.0044
10890TIP3    H254086   5.699   0.787   3.259  0.2933 -2.0492  1.8131
10891TIP3   OH254087   1.220   2.847   4.697 -0.1703 -0.0598  0.4301
10891TIP3    H154088   1.268   2.917   4.654 -0.7725 -1.2455 -2.2422
10891TIP3    H254089   1.160   2.892   4.757  0.9901  1.5974  0.3860
10892TIP3   OH254090   2.852   1.142   4.854 -0.0040  0.0090  0.0081
10892TIP3    H154091   2.857   1.235   4.876  0.6963 -1.1042  5.1746
10892TIP3    H254092   2.772   1.111   4.896 -0.5479 -1.6130 -2.1745
10893TIP3   OH254093   1.063   5.719   4.600 -0.2641 -0.2120 -0.1187
10893TIP3    H154094   1.138   5.717   4.661 -0.4672  0.3151  0.1586
10893TIP3    H254095   1.095   5.676   4.521  0.2090 -0.3414  0.1413
10894TIP3   OH254096   0.293   6.079  14.710  0.0591  0.8570  0.3252
10894TIP3    H154097   0.314   6.140  14.780 -1.5978  0.0737  1.5282
10894TIP3    H254098   0.359   6.010  14.717 -0.7106  0.2642  1.7594
10895TIP3   OH254099   6.245   3.391   3.086  0.4014 -0.0546 -0.3856
10895TIP3    H154100   6.282   3.475   3.111 -1.4569  0.5556  0.3839
10895TIP3    H254101   6.159   3.412   3.050  0.2185 -1.5653 -0.8829
10896TIP3   OH254102   2.951   6.354   0.038  0.1389  0.4749  0.2120
10896TIP3    H154103   2.901   6.338   0.118 -1.6435 -2.6884 -1.4466
10896TIP3    H254104   3.019   6.286   0.039  0.1641  0.4817 -0.9327
10897TIP3   OH254105   3.549   0.261  11.095 -0.4456  0.0683  0.0393
10897TIP3    H154106   3.507   0.347  11.091 -0.9133 -0.0901  1.3523
10897TIP3    H254107   3.513   0.213  11.020 -0.8402  0.7182 -0.1951
10898TIP3   OH254108   5.706   2.668  12.283 -0.1419  0.7455 -0.0232
10898TIP3    H154109   5.627   2.655  12.230  0.1583 -1.2024 -0.0212
10898TIP3    H254110   5.718   2.763  12.285 -2.1164  1.0263 -0.5578
10899TIP3   OH254111   4.799   5.499   3.006  0.1117  0.4781 -0.5267
10899TIP3    H154112   4.707   5.475   3.005 -0.4147  2.3857 -0.3973
10899TIP3    H254113   4.831   5.479   2.918 -0.2588 -0.7226 -0.4004
10900TIP3   OH254114   2.328   1.127   3.570  0.1543  0.1639  0.1145
10900TIP3    H154115   2.389   1.130   3.497  0.0455  1.0205  0.0505
10900TIP3    H254116   2.360   1.194   3.630 -0.5423  0.4015  0.2243
10901TIP3   OH254117   3.119   5.355  15.388 -0.3677  0.4496  0.5549
10901TIP3    H154118   3.203   5.324  15.422  1.0253  2.2791 -1.1721
10901TIP3    H254119   3.122   5.335  15.295 -1.5253  1.2635  0.3367
10902TIP3   OH254120   2.684   3.750   1.666  0.1462 -0.2250 -0.1882
10902TIP3    H154121   2.734   3.736   1.746 -0.0144 -0.8497 -0.1904
10902TIP3    H254122   2.697   3.670   1.615 -1.3916 -0.6858  0.1064
10903TIP3   OH254123   4.963   5.948  15.283  0.1094  0.3561  0.2502
10903TIP3    H154124   4.909   5.893  15.226 -1.9935  0.5036  2.0401
10903TIP3    H254125   4.932   6.037  15.267  0.4314  0.5463  0.6731
10904TIP3   OH254126   6.762   2.345  16.053  0.0103 -0.2888  0.2811
10904TIP3    H154127   6.737   2.362  15.962  1.8797 -0.7174 -0.3351
10904TIP3    H254128   6.721   2.261  16.074  0.8116 -0.9262 -0.6685
10905TIP3   OH254129   2.521   2.159  14.986 -0.2191  0.6030  0.0058
10905TIP3    H154130   2.586   2.170  15.056 -1.1235 -0.2426  0.9983
10905TIP3    H254131   2.483   2.073  15.002 -1.0082  0.7402 -1.0566
10906TIP3   OH254132   2.095   3.821  13.742  0.2852 -0.2275  0.2378
10906TIP3    H154133   2.143   3.877  13.803  0.9728  0.6548 -1.0791
10906TIP3    H254134   2.120   3.732  13.766  0.8661  0.1292  0.9826
10907TIP3   OH254135   4.500   2.243  11.668  0.6689 -0.1766 -0.0441
10907TIP3    H154136   4.499   2.305  11.595  1.3306  0.4810  0.5017
10907TIP3    H254137   4.577   2.188  11.651  1.0191  0.1931  0.3305
10908TIP3   OH254138   2.046   0.002   1.485  0.2454 -0.5480  0.0007
10908TIP3    H154139   1.986  -0.071   1.472  0.6164 -0.5842 -1.6863
10908TIP3    H254140   2.003   0.076   1.441  2.8907 -1.3521 -4.2295
10909TIP3   OH254141   6.072   0.772   2.559 -0.3720 -0.0838  0.1476
10909TIP3    H154142   5.993   0.728   2.529 -0.4734 -1.2228  2.0040
10909TIP3    H254143   6.043   0.859   2.586 -1.0897 -0.6437  1.2269
10910TIP3   OH254144   0.237   6.554   3.853 -0.1702 -0.3794  0.8101
10910TIP3    H154145   0.147   6.570   3.882 -0.8025 -0.7709 -0.8503
10910TIP3    H254146   0.289   6.556   3.933 -1.7584 -0.8557  1.8747
10911TIP3   OH254147   2.280   0.476  12.315  0.1002  0.1633  0.2585
10911TIP3    H154148   2.244   0.556  12.276  3.8028  1.2287 -1.1782
10911TIP3    H254149   2.341   0.506  12.381  0.3759 -1.5344  0.8064
10912TIP3   OH254150   3.989   3.895  16.236 -0.1308 -0.8765 -0.9800
10912TIP3    H154151   4.044   3.848  16.299  1.0845  0.8525 -0.7193
10912TIP3    H254152   4.025   3.872  16.151  0.0436 -0.9285 -0.8935
10913TIP3   OH254153   4.835   6.512   5.150 -0.3659 -0.2723 -0.1871
10913TIP3    H154154   4.831   6.419   5.174  0.5132  0.0108  1.0757
10913TIP3    H254155   4.927   6.534   5.158 -0.0599 -0.0984 -3.6209
10914TIP3   OH254156   0.118   0.850  11.348  0.5206 -0.0826  0.5273
10914TIP3    H154157   0.153   0.836  11.436 -0.4594 -2.5532  0.5614
10914TIP3    H254158   0.164   0.928  11.316  0.8484  0.8720  3.2353
10915TIP3   OH254159   0.681   5.582   0.342  0.2588  0.2685  0.2360
10915TIP3    H154160   0.614   5.647   0.361  0.4665  0.3605  0.6522
10915TIP3    H254161   0.762   5.619   0.377  0.1753 -0.7185  1.4866
10916TIP3   OH254162   0.306   1.599  11.509 -0.2889 -0.0677  0.4379
10916TIP3    H154163   0.356   1.656  11.567 -0.6664  0.2059  0.5016
10916TIP3    H254164   0.371   1.552  11.458  0.0491 -0.3955  1.1699
10917TIP3   OH254165   5.841   4.948  16.613 -0.3866 -0.4640  0.0709
10917TIP3    H154166   5.917   4.907  16.654  1.1999  1.0368 -1.3036
10917TIP3    H254167   5.864   5.041  16.607 -3.1250  0.3417  1.3630
10918TIP3   OH254168   6.540   6.221  16.923  0.0724 -0.7597 -0.1399
10918TIP3    H154169   6.508   6.309  16.904  1.4186 -0.4843 -1.2779
10918TIP3    H254170   6.487   6.163  16.868  0.7061 -0.4153 -1.1465
10919TIP3   OH254171   1.583   4.116  13.153 -0.0313 -0.5497  0.1947
10919TIP3    H154172   1.564   4.023  13.151 -1.4360 -0.2539 -2.2616
10919TIP3    H254173   1.504   4.156  13.190  0.0677 -0.2572  0.0942
10920TIP3   OH254174   1.350   6.425  15.380  0.1292 -0.2809 -0.2439
10920TIP3    H154175   1.420   6.391  15.325  0.7842  0.3498  0.2067
10920TIP3    H254176   1.341   6.360  15.450  2.2068  1.0223  1.3032
10921TIP3   OH254177   6.614   0.864  11.795 -0.1899  0.5060 -0.3112
10921TIP3    H154178   6.574   0.868  11.708 -0.9975  1.1045  0.0713
10921TIP3    H254179   6.700   0.903  11.784  0.2449 -0.6650 -1.1254
10922TIP3   OH254180   4.963   1.616  13.676 -0.6552  0.4426  0.3739
10922TIP3    H154181   5.028   1.667  13.724  0.9407 -1.4750  0.3214
10922TIP3    H254182   4.990   1.622  13.585  0.0172 -1.0902  0.4481
10923TIP3   OH254183   3.927   5.330  12.574  0.0540  0.0125  0.3916
10923TIP3    H154184   3.849   5.297  12.529 -0.6198 -0.7471  2.0846
10923TIP3    H254185   3.992   5.260  12.566  0.0396  0.0072  0.3258
10924TIP3   OH254186   2.264   4.889  16.180  0.3925 -0.0875 -0.3830
10924TIP3    H154187   2.260   4.969  16.127 -1.8002 -1.6229 -2.6265
10924TIP3    H254188   2.357   4.877  16.198  0.7084  3.5240  0.9465
10925TIP3   OH254189   0.424   4.321  16.249 -0.3102 -0.1564  0.1369
10925TIP3    H154190   0.329   4.331  16.263 -0.5391 -1.3211 -0.5417
10925TIP3    H254191   0.438   4.349  16.159  0.0019  0.0040  0.2346
10926TIP3   OH254192   2.202   3.449   1.335 -0.0945  0.4345 -1.1527
10926TIP3    H154193   2.271   3.400   1.379  0.1720 -1.1591 -3.2311
10926TIP3    H254194   2.120   3.408   1.363  0.0170  0.0978 -1.3162
10927TIP3   OH254195   4.830   1.378  16.822  0.1463  0.2057 -0.1306
10927TIP3    H154196   4.883   1.415  16.893 -0.4904 -0.5909  0.7863
10927TIP3    H254197   4.881   1.304  16.790 -0.7940 -1.1691  1.4086
10928TIP3   OH254198   2.435   0.500  10.963 -0.5353  0.0160 -0.7611
10928TIP3    H154199   2.466   0.555  10.891  0.3673 -0.5236 -0.8008
10928TIP3    H254200   2.450   0.552  11.042 -2.6164  1.0783 -1.0494
10929TIP3   OH254201   0.072   6.564   0.050  0.5327  0.2644  0.0399
10929TIP3    H154202   0.061   6.473   0.078 -0.1911 -0.0761 -1.2870
10929TIP3    H254203   0.100   6.610   0.128  0.0281 -0.9324  0.9468
10930TIP3   OH254204   4.551   4.354  16.563 -0.5450 -0.2347  0.3244
10930TIP3    H154205   4.478   4.348  16.624 -0.4694 -1.8577  0.2844
10930TIP3    H254206   4.583   4.264  16.555  0.6095  0.2488 -0.6837
10931TIP3   OH254207   5.104   5.585  16.272 -0.3256 -0.1595  0.0300
10931TIP3    H154208   5.118   5.496  16.303  2.0348  0.2220  0.1316
10931TIP3    H254209   5.012   5.603  16.292 -0.1852 -1.6921  2.2337
10932TIP3   OH254210   5.338   1.591  14.324  0.0827 -0.1533 -0.2039
10932TIP3    H154211   5.419   1.550  14.354  0.5474 -0.8630 -2.3786
10932TIP3    H254212   5.367   1.664  14.270 -0.6634 -2.0738 -3.2938
10933TIP3   OH254213   0.676   2.947  15.514 -0.3906 -0.1321 -0.2224
10933TIP3    H154214   0.633   3.017  15.563 -1.7569 -1.4557  0.4934
10933TIP3    H254215   0.745   2.916  15.573 -0.1114  0.2630 -0.3386
10934TIP3   OH254216   5.647   3.418  16.041 -0.4344 -0.0862 -0.3953
10934TIP3    H154217   5.690   3.333  16.048 -1.5984 -0.6135  0.4000
10934TIP3    H254218   5.582   3.406  15.972 -0.0107  0.4195 -0.8908
10935TIP3   OH254219   5.016   3.454   3.202 -0.1152 -0.0008 -0.3633
10935TIP3    H154220   5.052   3.466   3.290  0.1623  0.8245 -0.5897
10935TIP3    H254221   5.069   3.384   3.164  0.4987  0.4123 -0.2768
10936TIP3   OH254222   5.516   6.012   2.745 -0.0032 -0.1363  0.3033
10936TIP3    H154223   5.484   6.006   2.655 -1.0829  0.4550  0.6297
10936TIP3    H254224   5.610   6.024   2.737 -0.0098 -0.7119 -0.7322
10937TIP3   OH254225   0.193   1.494   0.881 -0.5052 -0.1094 -0.0640
10937TIP3    H154226   0.167   1.476   0.971  0.0069 -0.5097  0.0067
10937TIP3    H254227   0.287   1.514   0.886 -0.9438  2.0405 -0.2151
10938TIP3   OH254228   4.138   5.051   6.364 -0.1023  0.2448  0.3395
10938TIP3    H154229   4.183   5.134   6.350  1.8142 -0.9199 -0.6799
10938TIP3    H254230   4.054   5.060   6.319 -0.5447  2.1310  1.4936
10939TIP3   OH254231   4.719   1.408   5.377 -0.4999 -0.4376  0.3778
10939TIP3    H154232   4.715   1.500   5.402  0.9578 -0.7491  1.8517
10939TIP3    H254233   4.799   1.400   5.325 -0.1812 -1.0402  0.9588
10940TIP3   OH254234   1.325   0.123   5.575 -0.6589 -0.0917 -0.3240
10940TIP3    H154235   1.294   0.213   5.587  0.3490  0.5562 -2.2812
10940TIP3    H254236   1.406   0.119   5.625 -0.8400  0.0022 -0.0204
10941TIP3   OH254237   0.341   5.618  11.748  0.0391 -0.0819 -0.4102
10941TIP3    H154238   0.310   5.643  11.660  1.5074  1.3223 -0.5426
10941TIP3    H254239   0.433   5.596  11.736  0.8409  2.2504  1.1485
10942TIP3   OH254240   6.149   2.745  15.247 -0.7169 -0.3113  0.6650
10942TIP3    H154241   6.215   2.762  15.315 -0.8312  0.8219  0.5064
10942TIP3    H254242   6.170   2.807  15.178 -1.0575 -0.9665 -0.0233
10943TIP3   OH254243   1.332   2.956  16.197 -0.2598  0.2249  0.3165
10943TIP3    H154244   1.353   2.869  16.163  1.1671  1.1666 -1.3013
10943TIP3    H254245   1.245   2.975  16.161 -0.0057  0.0110 -0.4098
10944TIP3   OH254246   4.399   4.729  16.843 -0.3404  0.2132 -0.5702
10944TIP3    H154247   4.369   4.765  16.926  1.1275  0.0581  0.0383
10944TIP3    H254248   4.363   4.787  16.776  2.9524  3.5403  0.4191
10945TIP3   OH254249   5.003   6.359  14.249  0.4790  0.7899  0.2141
10945TIP3    H154250   4.947   6.291  14.212 -1.1597  1.5431  1.2596
10945TIP3    H254251   5.048   6.397  14.174 -0.2574  0.0265 -0.6219
10946TIP3   OH254252   5.748   4.173  16.178 -0.0971 -0.1318 -0.0259
10946TIP3    H154253   5.730   4.213  16.263 -0.5138  1.4906 -0.8408
10946TIP3    H254254   5.769   4.082  16.197 -0.2813  0.1961  1.7961
10947TIP3   OH254255   1.520   2.044  16.849 -0.2005 -0.1029 -0.1570
10947TIP3    H154256   1.593   2.106  16.855 -0.5784  0.4201 -0.7917
10947TIP3    H254257   1.556   1.960  16.877  0.5977  0.1932 -0.3035
10948TIP3   OH254258   3.834   6.677  11.837 -0.2827  0.2704  0.0284
10948TIP3    H154259   3.922   6.677  11.875  0.1371 -1.4875 -0.8699
10948TIP3    H254260   3.844   6.718  11.751 -0.3010 -0.0840 -0.1446
10949TIP3   OH254261   4.228   1.745  14.444 -0.2337  0.2498 -0.3143
10949TIP3    H154262   4.137   1.740  14.414 -0.9207 -0.5267  1.8190
10949TIP3    H254263   4.238   1.836  14.474 -0.1350  0.4811 -1.0366
10950TIP3   OH254264   0.575   5.953  15.292  0.2191  0.1533  0.5176
10950TIP3    H154265   0.596   5.893  15.363 -0.7344 -0.9896 -0.1608
10950TIP3    H254266   0.657   6.001  15.276  0.6866 -0.2095  1.7629
10951TIP3   OH254267   2.840   4.401   3.058  0.3102 -0.1769 -0.2740
10951TIP3    H154268   2.796   4.382   3.140  1.5689 -0.7039  0.2993
10951TIP3    H254269   2.778   4.454   3.008 -0.9788 -0.9743  0.4771
10952TIP3   OH254270   3.659   2.558   1.323 -0.0867 -0.2251  0.0341
10952TIP3    H154271   3.715   2.587   1.252 -1.2927  1.1508 -0.3780
10952TIP3    H254272   3.610   2.484   1.287  1.3761 -1.3935  0.3777
10953TIP3   OH254273   6.213   1.643  17.125 -0.1999 -0.3210  0.1870
10953TIP3    H154274   6.131   1.606  17.092  1.2534 -2.1684 -1.4643
10953TIP3    H254275   6.206   1.737  17.108 -1.4055 -0.6525 -1.2209
10954TIP3   OH254276   5.380   5.795  12.597  0.0862 -0.3189  0.5835
10954TIP3    H154277   5.411   5.803  12.507 -1.8287  1.3379  0.0350
10954TIP3    H254278   5.348   5.705  12.604  0.6920 -0.5991 -0.2362
10955TIP3   OH254279   1.271   4.813   1.004  0.1971 -0.4324 -0.0338
10955TIP3    H154280   1.192   4.862   0.984  0.6833  0.6723  0.6888
10955TIP3    H254281   1.264   4.733   0.953 -1.1157 -0.0835 -0.4013
10956TIP3   OH254282   3.833   1.479  17.071 -0.5941  0.6274 -0.1246
10956TIP3    H154283   3.904   1.462  17.009 -1.1802  1.5566 -1.0722
10956TIP3    H254284   3.831   1.574  17.080 -2.4404  0.6942 -0.9786
10957TIP3   OH254285   2.216   2.211  16.066  0.1180  0.3076  0.4134
10957TIP3    H154286   2.210   2.174  16.154  0.8100  0.2493  0.4375
10957TIP3    H254287   2.252   2.140  16.013  0.5306  0.6276  0.2630
10958TIP3   OH254288   2.069   1.814  11.900 -0.6431  0.3224  0.8383
10958TIP3    H154289   2.100   1.847  11.985  0.0914 -0.1944  0.7799
10958TIP3    H254290   2.125   1.857  11.836 -2.8425  2.6666  0.4067
10959TIP3   OH254291   3.598   2.718  15.621 -0.2943  0.4502 -0.5358
10959TIP3    H154292   3.512   2.678  15.614  0.0681 -0.1200 -1.9707
10959TIP3    H254293   3.581   2.811  15.636 -1.1791  0.6805 -2.8097
10960TIP3   OH254294   3.239   5.848  15.188 -0.0335 -0.1026 -0.0559
10960TIP3    H154295   3.326   5.822  15.161 -0.3267 -1.2107  0.0244
10960TIP3    H254296   3.244   5.852  15.284 -0.2571 -0.8718 -0.0099
10961TIP3   OH254297   6.015   0.063   3.885 -0.4210  0.5798 -0.0826
10961TIP3    H154298   5.967   0.145   3.873 -0.2591  0.6639 -0.1541
10961TIP3    H254299   5.997   0.038   3.976 -0.3382  0.7806 -0.0086
10962TIP3   OH254300   5.050   5.073  16.052 -0.2445 -0.1678 -0.0053
10962TIP3    H154301   4.968   5.040  16.014  0.2817 -1.5770  0.0589
10962TIP3    H254302   5.084   4.999  16.102 -0.5950  1.4179  2.7122
10963TIP3   OH254303   4.048   4.920   3.794  0.1549 -0.1883  0.3248
10963TIP3    H154304   4.005   4.889   3.874 -1.7308 -2.2236 -1.3986
10963TIP3    H254305   4.121   4.860   3.781  0.4406  0.1218  0.4989
10964TIP3   OH254306   3.601   3.682  15.736  0.5492  0.2324 -0.1305
10964TIP3    H154307   3.581   3.590  15.718  0.5085 -0.1378  1.6649
10964TIP3    H254308   3.693   3.692  15.713  0.3578 -0.0475 -1.0538
10965TIP3   OH254309   2.453   2.100   2.034  0.6367  0.4873  0.7040
10965TIP3    H154310   2.425   2.062   1.951  1.5165  3.6255 -1.1174
10965TIP3    H254311   2.548   2.093   2.033  0.6794  0.9673  1.2306
10966TIP3   OH254312   2.867   5.347   1.516 -0.2726  0.2245  0.3498
10966TIP3    H154313   2.799   5.414   1.522 -0.8777 -0.3049 -0.4393
10966TIP3    H254314   2.942   5.384   1.561 -0.5823  1.4666 -0.1423
10967TIP3   OH254315   2.117   3.989   5.047 -0.5118 -0.2691 -0.5075
10967TIP3    H154316   2.064   3.915   5.018 -0.3921 -0.3104 -0.6207
10967TIP3    H254317   2.115   3.984   5.143  0.7956 -1.3444 -0.5263
10968TIP3   OH254318   1.991   1.127  12.664  0.3289  0.1624 -0.6329
10968TIP3    H154319   1.976   1.206  12.717  0.4378 -0.5422  0.4720
10968TIP3    H254320   2.043   1.158  12.589  0.7563  1.0671  0.0233
10969TIP3   OH254321   4.675   3.834   3.015 -0.0602 -0.1233 -0.9106
10969TIP3    H154322   4.683   3.763   3.079 -0.5243  1.4065  0.8728
10969TIP3    H254323   4.586   3.825   2.981 -0.5420  0.3206  0.2032
10970TIP3   OH254324   0.974   4.858   0.534  0.1703 -0.0444  0.4817
10970TIP3    H154325   0.931   4.819   0.611 -1.9364  1.9372  0.3782
10970TIP3    H254326   1.054   4.898   0.569 -0.0446 -0.3942  1.3989
10971TIP3   OH254327   1.050   1.227  11.321 -0.0029  0.2543 -0.3737
10971TIP3    H154328   1.091   1.237  11.407  0.9876  0.1667 -0.8278
10971TIP3    H254329   1.023   1.316  11.298 -1.2876  0.0996  0.5206
10972TIP3   OH254330   0.720   1.975  11.312  0.1431  0.2892 -0.1297
10972TIP3    H154331   0.749   1.998  11.223  0.3939  0.2685 -0.0538
10972TIP3    H254332   0.752   2.047  11.367 -1.1257  0.9555 -0.2440
10973TIP3   OH254333   4.642   4.115  10.527 -0.2704  0.3249 -0.0567
10973TIP3    H154334   4.597   4.146  10.606 -0.6939 -0.6864  0.1034
10973TIP3    H254335   4.709   4.054  10.559 -0.8752 -0.5929 -0.5191
10974TIP3   OH254336   3.010   1.618   0.660  0.4646 -0.7004 -0.0112
10974TIP3    H154337   3.009   1.620   0.564  0.2728 -3.5534 -0.1116
10974TIP3    H254338   2.919   1.603   0.684  0.0742  2.5440  0.7626
10975TIP3   OH254339   5.447   3.925   0.517  0.3171  0.0876  0.2793
10975TIP3    H154340   5.375   3.919   0.580  0.2985 -0.5368  0.2002
10975TIP3    H254341   5.406   3.962   0.438  0.1142 -0.1235  0.2833
10976TIP3   OH254342   5.858   1.560   4.158  0.0556 -0.0437 -0.0754
10976TIP3    H154343   5.818   1.566   4.071 -1.2748 -2.4405  0.3333
10976TIP3    H254344   5.902   1.475   4.159  2.8941  1.3689  0.4759
10977TIP3   OH254345   5.280   0.685   0.839  0.0938 -0.1016  0.1167
10977TIP3    H154346   5.374   0.696   0.825  0.0801 -1.1366 -0.8533
10977TIP3    H254347   5.262   0.596   0.809 -0.8045 -0.7027  2.3688
10978TIP3   OH254348   2.311   2.053  15.165 -0.1479 -0.5466  0.0152
10978TIP3    H154349   2.315   1.958  15.172 -2.3232 -0.7550 -1.0109
10978TIP3    H254350   2.269   2.069  15.080  0.5179  1.3315  0.0077
10979TIP3   OH254351   5.217   6.108   5.177  0.1554 -0.2999 -0.2570
10979TIP3    H154352   5.258   6.127   5.261 -0.5183 -1.4486  0.3381
10979TIP3    H254353   5.213   6.013   5.172  2.9326 -0.3457 -2.9484
10980TIP3   OH254354   3.912   5.772   3.641  0.3127 -0.5561 -1.0548
10980TIP3    H154355   3.858   5.784   3.563  0.3316 -2.9087 -1.4628
10980TIP3    H254356   4.001   5.762   3.607  0.4217 -0.8394 -0.6864
10981TIP3   OH254357   3.275   3.110   5.987  0.1613  0.2170 -0.3896
10981TIP3    H154358   3.229   3.181   6.032  1.0936  0.7146 -0.2086
10981TIP3    H254359   3.270   3.132   5.894  1.1372  0.9482 -0.2786
10982TIP3   OH254360   3.072   5.329  14.311  0.2965  0.3225 -0.0932
10982TIP3    H154361   3.099   5.287  14.229  0.4437  1.7292 -0.7793
10982TIP3    H254362   3.059   5.420  14.287 -1.4178  0.3887  1.0683
10983TIP3   OH254363   5.973   1.099   5.154 -0.1118 -0.0559  0.2105
10983TIP3    H154364   6.043   1.144   5.202 -0.3576  0.2973  0.2376
10983TIP3    H254365   5.958   1.019   5.203  1.3227 -0.8709 -0.6292
10984TIP3   OH254366   5.613   3.778   1.258  0.6024  0.4900 -0.1016
10984TIP3    H154367   5.518   3.777   1.248  0.5322  2.0780  0.1733
10984TIP3    H254368   5.640   3.862   1.219  1.9917 -0.3982 -1.1052
10985TIP3   OH254369   1.922   4.116  13.264 -0.3039  0.4879  0.2173
10985TIP3    H154370   1.861   4.042  13.259 -0.6851  0.7532  0.8719
10985TIP3    H254371   1.977   4.097  13.340  0.4678  0.2257 -0.4014
10986TIP3   OH254372   5.326   4.462   0.855 -0.2970 -0.0738  0.0888
10986TIP3    H154373   5.361   4.492   0.939 -0.6143  1.4330 -0.3120
10986TIP3    H254374   5.260   4.527   0.832 -0.3935 -0.6263 -1.2105
10987TIP3   OH254375   6.613   1.772   5.960 -0.3633 -0.0169 -0.5095
10987TIP3    H154376   6.684   1.818   5.915  0.2477  0.4214  0.8936
10987TIP3    H254377   6.571   1.839   6.014 -0.3310 -0.7910  0.4985
10988TIP3   OH254378   3.598   2.414  14.718 -0.3992 -0.3989  0.2041
10988TIP3    H154379   3.678   2.457  14.688 -0.1530 -0.7105  0.4148
10988TIP3    H254380   3.545   2.402  14.639 -0.8664  1.1268  0.2701
10989TIP3   OH254381   4.385   0.752   0.689  0.0430 -0.1430 -0.0472
10989TIP3    H154382   4.324   0.824   0.671  1.4164  0.5558 -2.0316
10989TIP3    H254383   4.472   0.791   0.681  0.8061 -1.0819  2.9685
10990TIP3   OH254384   4.241   6.004   2.644  0.0286 -0.1115  0.0950
10990TIP3    H154385   4.188   6.053   2.580  1.5311  0.2610 -0.8875
10990TIP3    H254386   4.182   5.990   2.718 -0.9058  1.8772 -0.2360
10991TIP3   OH254387   0.705   6.529   1.263  0.4143 -0.5013  0.3284
10991TIP3    H154388   0.788   6.537   1.310 -0.0426 -1.5770  1.3468
10991TIP3    H254389   0.719   6.458   1.201 -0.3064 -1.9004  1.7492
10992TIP3   OH254390   2.484   3.199   5.037  0.3018 -0.5344  0.4660
10992TIP3    H154391   2.492   3.290   5.008 -3.1926 -0.6555 -1.1301
10992TIP3    H254392   2.515   3.199   5.127  1.7029  1.9505  0.0177
10993TIP3   OH254393   4.037   3.028  12.671 -0.2706  1.0468 -0.6453
10993TIP3    H154394   3.970   2.980  12.622  0.3012 -1.9566  1.3469
10993TIP3    H254395   4.001   3.035  12.760  0.5863  2.5170 -0.3957
10994TIP3   OH254396   4.610   1.278   6.304 -0.8146 -0.7307  0.0284
10994TIP3    H154397   4.656   1.343   6.357  0.4609 -1.6570  0.0809
10994TIP3    H254398   4.602   1.318   6.218 -3.5261  1.0769  1.0584
10995TIP3   OH254399   0.708   5.456  15.575 -0.4531  0.1115  0.2670
10995TIP3    H154400   0.694   5.543  15.612 -1.5749  0.2885 -0.5626
10995TIP3    H254401   0.652   5.398  15.626 -1.1354  0.1752 -0.4092
10996TIP3   OH254402   5.484   5.038   3.850  0.7584 -0.3031  0.4284
10996TIP3    H154403   5.498   5.061   3.941 -3.1830 -0.4438  1.1595
10996TIP3    H254404   5.451   4.948   3.852 -0.4333  0.0749 -1.0382
10997TIP3   OH254405   6.104   6.174   4.472  0.7186 -0.6778  0.3824
10997TIP3    H154406   6.044   6.128   4.413  0.3152 -1.0912  1.1066
10997TIP3    H254407   6.190   6.138   4.453  0.6064 -0.7286 -0.0308
10998TIP3   OH254408   2.502   2.895   5.360 -0.3101  0.3599  0.1790
10998TIP3    H154409   2.498   2.826   5.294  0.4396  2.0998 -1.7432
10998TIP3    H254410   2.416   2.893   5.402 -0.3804 -1.5437 -0.0515
10999TIP3   OH254411   4.046   6.560   2.430 -0.3257 -0.0331 -0.0828
10999TIP3    H154412   4.134   6.559   2.468 -0.5206  2.2657  0.4999
10999TIP3    H254413   3.989   6.533   2.502 -0.2910  0.3869  0.1040
11000TIP3   OH254414   0.184   2.907  17.108 -0.2740  0.2791 -0.0500
11000TIP3    H154415   0.114   2.936  17.167 -0.8099 -1.8841  0.4307
11000TIP3    H254416   0.138   2.864  17.036  0.5332 -0.6822 -0.0046
11001TIP3   OH254417   1.591   0.178  13.580  0.5208 -0.3379  0.4621
11001TIP3    H154418   1.552   0.220  13.657 -0.9375 -1.4038  0.3259
11001TIP3    H254419   1.588   0.244  13.512  1.7018  0.5746  1.2868
11002TIP3   OH254420   5.192   5.032  15.435  0.3520  0.2310 -0.2496
11002TIP3    H154421   5.278   5.004  15.466 -0.2927 -1.1172  0.4026
11002TIP3    H254422   5.161   5.094  15.501  0.1530 -0.5108  0.3596
11003TIP3   OH254423   1.178   6.065  11.745 -0.0443  0.1001  0.2590
11003TIP3    H154424   1.154   6.048  11.836  0.5769 -2.1079  0.0354
11003TIP3    H254425   1.095   6.057  11.697 -0.2531  0.5634  0.5449
11004TIP3   OH254426   1.496   4.073   2.300 -0.3235 -0.0861 -0.1318
11004TIP3    H154427   1.535   4.036   2.378 -0.5279  0.6156  0.3125
11004TIP3    H254428   1.479   4.165   2.323 -1.4585 -0.1753 -0.6016
11005TIP3   OH254429   6.164   5.576  17.056 -0.3665 -0.0749 -0.2843
11005TIP3    H154430   6.170   5.631  16.979  2.3862  1.8349  1.2050
11005TIP3    H254431   6.175   5.487  17.023 -0.6709  0.5972 -2.2430
11006TIP3   OH254432   0.475   2.275  11.325 -0.4998 -0.0768  0.0417
11006TIP3    H154433   0.509   2.332  11.394  0.0545 -1.4007  0.8869
11006TIP3    H254434   0.488   2.324  11.244 -0.2917  1.1069  0.7830
11007TIP3   OH254435   4.304   2.699   2.676 -0.2197  0.2280  0.3889
11007TIP3    H154436   4.276   2.612   2.705 -0.0038  0.1846  0.4734
11007TIP3    H254437   4.263   2.759   2.737 -0.3582  0.1827  0.3403
11008TIP3   OH254438   0.134   4.421  15.367  0.0518 -0.6443 -0.2574
11008TIP3    H154439   0.074   4.447  15.297 -1.2410 -0.1603  1.0187
11008TIP3    H254440   0.092   4.450  15.447 -0.0416 -4.0446  0.9989
11009TIP3   OH254441   6.026   4.575   2.414 -0.5545  0.4177  0.0751
11009TIP3    H154442   5.963   4.577   2.342 -0.9745 -1.6378  0.3397
11009TIP3    H254443   6.105   4.537   2.376 -0.5250  0.0406  0.5059
11010TIP3   OH254444   2.940   6.594   0.491 -0.3884 -0.2881  0.0354
11010TIP3    H154445   3.016   6.605   0.547  0.3467 -2.2764 -0.5278
11010TIP3    H254446   2.963   6.639   0.409 -0.1964 -0.0989  0.1950
11011TIP3   OH254447   5.578   2.817   2.574 -0.2118  0.1027 -0.8004
11011TIP3    H154448   5.557   2.910   2.586  0.1353 -0.1105  1.8521
11011TIP3    H254449   5.673   2.814   2.575 -0.1549 -0.0189 -3.4718
11012TIP3   OH254450   5.560   1.480   5.755 -0.1324 -0.8821  0.5984
11012TIP3    H154451   5.514   1.495   5.673  0.8156  0.1983  0.2505
11012TIP3    H254452   5.521   1.400   5.790 -2.1645 -0.0821  0.2505
11013TIP3   OH254453   2.539   4.643  15.575  0.2152  0.7196  0.1966
11013TIP3    H154454   2.553   4.716  15.515 -0.1287  0.8942  0.3245
11013TIP3    H254455   2.543   4.565  15.519 -0.7893  0.9251 -0.1714
11014TIP3   OH254456   2.748   4.523  13.073  0.3773 -0.0733 -0.6799
11014TIP3    H154457   2.768   4.429  13.083 -0.5386 -0.1886  0.1300
11014TIP3    H254458   2.830   4.567  13.095  0.1090 -0.5920  1.5290
11015TIP3   OH254459   0.267   1.009   2.198 -0.3182  0.0485  0.0518
11015TIP3    H154460   0.251   1.097   2.233  0.5772 -0.2078  1.1395
11015TIP3    H254461   0.179   0.971   2.189 -0.7142  1.0740 -0.4973
11016TIP3   OH254462   4.582   4.301  17.159  0.3493  0.1306 -0.5395
11016TIP3    H154463   4.609   4.289  17.069  0.5991  1.0296 -0.5877
11016TIP3    H254464   4.545   4.389  17.162  1.1865  0.4615  0.4359
11017TIP3   OH254465   5.927   4.268  16.897  0.3798 -0.1917  0.1064
11017TIP3    H154466   5.884   4.260  16.983  0.3429  0.6125  0.1647
11017TIP3    H254467   5.855   4.284  16.836  0.4666 -0.1506  0.0161
11018TIP3   OH254468   6.032   1.794   1.267  0.2220 -0.0185  0.1110
11018TIP3    H154469   6.113   1.825   1.308 -0.5321  0.3431  1.3603
11018TIP3    H254470   5.998   1.871   1.220  0.0044  0.1642  0.5623
11019TIP3   OH254471   0.619   1.581  13.697  0.2569  0.2008  0.2930
11019TIP3    H154472   0.525   1.570  13.713 -0.4275  2.3091 -1.8380
11019TIP3    H254473   0.635   1.532  13.617  0.8253  0.3308  0.3293
11020TIP3   OH254474   1.872   3.777   4.127  0.0656  0.1383  0.1517
11020TIP3    H154475   1.947   3.724   4.155 -0.1352 -1.7463 -2.6750
11020TIP3    H254476   1.905   3.826   4.051 -1.0891  0.5730 -0.0767
11021TIP3   OH254477   6.201   3.033  16.582  0.1450  0.2525 -0.1930
11021TIP3    H154478   6.289   3.005  16.557 -0.3767 -0.6269 -1.0728
11021TIP3    H254479   6.191   3.004  16.672  0.6784  0.1859 -0.1530
11022TIP3   OH254480   1.538   4.359   6.360  0.1176  0.3561 -0.6037
11022TIP3    H154481   1.579   4.308   6.429 -0.3464 -0.5702 -1.0101
11022TIP3    H254482   1.445   4.364   6.385 -0.1515 -0.4317 -1.4293
11023TIP3   OH254483   0.358   3.147  16.144 -0.2266 -0.2559  0.1186
11023TIP3    H154484   0.369   3.085  16.216  1.4775 -1.0076 -0.7451
11023TIP3    H254485   0.325   3.227  16.185  0.8330 -0.6320  1.7442
11024TIP3   OH254486   4.202   2.731  11.580 -0.1688 -0.4767 -0.5547
11024TIP3    H154487   4.281   2.711  11.630  0.2583 -1.7720 -1.7204
11024TIP3    H254488   4.225   2.809  11.530  0.0803 -0.3488 -0.2441
11025TIP3   OH254489   5.610   5.195   1.438 -0.0323  0.3346 -0.4066
11025TIP3    H154490   5.640   5.225   1.524 -1.8268 -1.7888  1.0295
11025TIP3    H254491   5.688   5.157   1.397  0.7107  0.8835  0.4707
11026TIP3   OH254492   0.707   0.190  11.594 -0.1091 -0.0386  0.0479
11026TIP3    H154493   0.655   0.189  11.513 -3.3821  1.9989  2.0159
11026TIP3    H254494   0.657   0.137  11.655  0.9446  0.6636  1.5508
11027TIP3   OH254495   1.377   3.358   4.195 -0.4243  0.1085  0.1168
11027TIP3    H154496   1.298   3.410   4.203 -0.8320 -0.5910  0.7029
11027TIP3    H254497   1.360   3.300   4.120  0.3663  1.3822 -1.0823
11028TIP3   OH254498   0.140   2.640  15.154 -0.2452  0.7335  0.2307
11028TIP3    H154499   0.164   2.732  15.144 -0.3659  0.9086  1.4710
11028TIP3    H254500   0.083   2.638  15.231 -0.0843 -0.4121  0.3286
11029TIP3   OH254501   4.319   3.814  14.172  0.3625  0.4896 -0.0723
11029TIP3    H154502   4.334   3.740  14.114  0.8515 -0.7382  1.5863
11029TIP3    H254503   4.263   3.779  14.242  0.5669  1.6923  0.7145
11030TIP3   OH254504   2.898   4.813   5.419 -0.2734 -0.5263 -0.8005
11030TIP3    H154505   2.848   4.732   5.413 -1.0215 -0.0892 -0.6067
11030TIP3    H254506   2.869   4.853   5.501 -0.0019 -0.0109 -0.9540
11031TIP3   OH254507   6.387   5.893  12.458 -0.0319  0.8426  0.0353
11031TIP3    H154508   6.455   5.854  12.404  0.9113  2.6792 -0.1512
11031TIP3    H254509   6.347   5.959  12.402  0.1080  1.8894  1.1534
11032TIP3   OH254510   2.807   6.190  14.029 -0.0456 -0.2948  0.4905
11032TIP3    H154511   2.793   6.103  13.992 -0.3506 -0.7442  1.6390
11032TIP3    H254512   2.802   6.249  13.954  0.0642 -1.2534 -0.2867
11033TIP3   OH254513   6.686   4.804  10.932 -0.2177  0.7780 -0.0098
11033TIP3    H154514   6.683   4.737  10.864  0.1936  1.2152 -0.4555
11033TIP3    H254515   6.651   4.883  10.891  1.0164  1.3149 -0.0312
11034TIP3   OH254516   2.197   6.682   5.220  0.4006  0.2039 -0.1491
11034TIP3    H154517   2.289   6.707   5.228  0.8825 -1.3049 -0.7194
11034TIP3    H254518   2.149   6.753   5.261  1.7368  1.8008 -1.2620
11035TIP3   OH254519   0.238   3.582  13.777 -0.1025 -0.0723  0.0654
11035TIP3    H154520   0.241   3.504  13.833 -1.8917 -0.7579 -0.7643
11035TIP3    H254521   0.309   3.637  13.809  0.2469 -1.3987  1.6280
11036TIP3   OH254522   6.731   3.748   0.369  0.8444  0.0953 -0.3528
11036TIP3    H154523   6.684   3.692   0.307  1.6730 -0.0377 -0.8669
11036TIP3    H254524   6.677   3.747   0.448  0.5614 -0.9588 -0.5584
11037TIP3   OH254525   5.187   5.972   3.767 -0.4850 -0.0629 -0.1719
11037TIP3    H154526   5.152   5.888   3.737 -0.9142 -0.0973  0.4195
11037TIP3    H254527   5.196   6.024   3.687 -0.8341 -0.4494 -0.4638
11038TIP3   OH254528   0.171   0.642   2.416 -0.1979 -0.4677 -0.3659
11038TIP3    H154529   0.088   0.648   2.369  0.3842  1.2985 -1.1998
11038TIP3    H254530   0.201   0.552   2.401 -0.7935 -0.4020 -2.0715
11039TIP3   OH254531   4.390   4.710   5.089 -0.2142  0.3983 -0.2923
11039TIP3    H154532   4.410   4.727   5.181  0.9108  1.1754 -0.6607
11039TIP3    H254533   4.309   4.759   5.072 -0.0619  0.7992  0.1207
11040TIP3   OH254534   0.592   5.416  14.167  0.3502  0.6029 -0.6749
11040TIP3    H154535   0.686   5.432  14.176  0.7808 -2.4841  0.6575
11040TIP3    H254536   0.585   5.335  14.117 -1.6138  0.2820  0.0739
11041TIP3   OH254537   4.160   1.493   0.129  0.2221 -0.4199 -0.2286
11041TIP3    H154538   4.168   1.515   0.221  1.2849  0.0393 -0.4188
11041TIP3    H254539   4.103   1.416   0.127  0.0796 -0.3479  0.7864
11042TIP3   OH254540   6.025   1.638   5.523  0.1091  0.3696 -0.7712
11042TIP3    H154541   5.970   1.711   5.493 -1.0773 -0.1867  0.0074
11042TIP3    H254542   6.111   1.677   5.536 -0.2805  1.4289 -1.2554
11043TIP3   OH254543   0.251   5.828   5.241 -0.7211 -0.0388  0.0097
11043TIP3    H154544   0.216   5.799   5.156  0.3375 -0.2012 -0.3826
11043TIP3    H254545   0.181   5.810   5.303 -1.3156 -0.4022 -0.7508
11044TIP3   OH254546   2.864   2.319   4.724  0.2822 -0.0113 -0.2604
11044TIP3    H154547   2.907   2.284   4.646 -1.1677  0.0172 -1.0828
11044TIP3    H254548   2.918   2.289   4.796  1.6140 -0.0902 -1.2714
11045TIP3   OH254549   4.044   1.645  14.754 -0.3106 -0.1047  0.6103
11045TIP3    H154550   3.981   1.621  14.686 -0.7225 -1.2796  1.3894
11045TIP3    H254551   4.075   1.561  14.789 -0.5968  0.4719  2.3147
11046TIP3   OH254552   4.360   1.433   2.597  0.1483  0.4042  0.3925
11046TIP3    H154553   4.416   1.459   2.525  0.8911  0.8906  1.1312
11046TIP3    H254554   4.316   1.353   2.567  1.2968 -0.0190 -0.1598
11047TIP3   OH254555   3.838   0.462  13.853 -0.5653 -0.5510  1.0097
11047TIP3    H154556   3.836   0.414  13.935 -0.2122  0.2657  1.5034
11047TIP3    H254557   3.911   0.425  13.804  0.0319 -0.1642  1.6078
11048TIP3   OH254558   0.034   5.833   1.193 -0.5169  0.0193  0.1827
11048TIP3    H154559  -0.040   5.786   1.154 -0.9470  1.4910 -0.8189
11048TIP3    H254560   0.103   5.767   1.203 -1.5047 -1.0622 -0.1246
11049TIP3   OH254561   2.591   4.538   0.512 -0.9425 -0.0339  0.0356
11049TIP3    H154562   2.618   4.453   0.477  2.2775  0.8881  0.0452
11049TIP3    H254563   2.649   4.601   0.469 -1.2026  1.8063  2.2624
11050TIP3   OH254564   5.086   4.782  17.167  0.0929  0.4859  0.7887
11050TIP3    H154565   5.164   4.806  17.217 -0.1055  0.4849  1.1019
11050TIP3    H254566   5.035   4.863  17.162 -0.1041  0.3733  0.9823
11051TIP3   OH254567   0.063   3.625  11.287 -0.1750 -0.9708 -0.4001
11051TIP3    H154568   0.113   3.620  11.206 -0.8176  0.1240 -0.8836
11051TIP3    H254569   0.129   3.632  11.356  0.3603 -1.2213 -0.8875
11052TIP3   OH254570   3.039   1.552  16.579  0.7356  0.8895 -0.5448
11052TIP3    H154571   2.976   1.496  16.624  0.3048  2.0688  0.3434
11052TIP3    H254572   2.992   1.583  16.501  0.2883  1.5894 -0.0005
11053TIP3   OH254573   6.303   3.686  15.752  0.3551 -0.9948  0.2066
11053TIP3    H154574   6.214   3.709  15.725  1.3612  2.2191 -0.6401
11053TIP3    H254575   6.316   3.597  15.719 -1.5341 -0.4126 -2.2759
11054TIP3   OH254576   6.778   4.944  17.201 -0.0793  0.3012 -0.1778
11054TIP3    H154577   6.828   4.880  17.252 -0.2304 -0.1500 -0.5965
11054TIP3    H254578   6.778   4.910  17.112 -0.7075  0.5566 -0.2788
11055TIP3   OH254579   1.809   1.428   5.984  0.2613  0.4092 -0.4451
11055TIP3    H154580   1.892   1.385   5.964  0.4755  1.2615 -1.4153
11055TIP3    H254581   1.798   1.416   6.078  1.1906 -0.2349 -0.4144
11056TIP3   OH254582   4.966   3.680  12.921 -0.3815  0.2023  0.0799
11056TIP3    H154583   4.950   3.586  12.912 -1.3018  0.2876  0.7991
11056TIP3    H254584   5.061   3.686  12.930 -0.0661 -0.4424 -2.3912
11057TIP3   OH254585   5.440   4.709   2.401  0.4177  0.2905  0.4219
11057TIP3    H154586   5.523   4.733   2.360  1.6712 -1.0695  2.0870
11057TIP3    H254587   5.376   4.713   2.330  1.6267  2.7316 -0.5799
11058TIP3   OH254588   5.787   3.499   2.387 -0.1181 -0.0220 -0.2631
11058TIP3    H154589   5.788   3.419   2.440  0.1783  2.2729  3.3281
11058TIP3    H254590   5.879   3.524   2.380 -0.3314  0.8473 -0.0223
11059TIP3   OH254591   6.233   2.133   6.189  0.2156  0.2123  0.4724
11059TIP3    H154592   6.317   2.178   6.179 -0.0693  0.9714  1.4605
11059TIP3    H254593   6.168   2.197   6.163 -0.0815 -0.3521 -0.2139
11060TIP3   OH254594   6.782   3.289  12.760 -0.1903  0.6092 -0.1332
11060TIP3    H154595   6.876   3.271  12.751 -0.3615  0.6776 -2.5746
11060TIP3    H254596   6.764   3.278  12.853  2.0840 -0.1871  0.2524
11061TIP3   OH254597   0.887   4.719  17.166  0.2976  0.2357  0.2074
11061TIP3    H154598   0.936   4.789  17.123 -2.4975  2.1867  0.0603
11061TIP3    H254599   0.932   4.639  17.141  1.8192  1.7619 -2.0667
11062TIP3   OH254600   5.341   4.469   5.382  0.1326 -0.6710  0.1614
11062TIP3    H154601   5.387   4.456   5.465 -1.7781 -1.4960  1.1050
11062TIP3    H254602   5.269   4.528   5.403  0.0389 -0.3270 -1.0746
11063TIP3   OH254603   0.566   1.884   5.310  0.1882  0.1355 -0.5322
11063TIP3    H154604   0.500   1.894   5.241 -0.2588  1.0825  0.0298
11063TIP3    H254605   0.566   1.790   5.330 -0.0115 -0.0700 -1.4943
11064TIP3   OH254606   6.245   2.473  16.890 -0.1813  0.8499  0.2505
11064TIP3    H154607   6.302   2.399  16.869  0.4306  1.0458  1.1928
11064TIP3    H254608   6.158   2.446  16.860  0.4256  0.6093 -1.3190
11065TIP3   OH254609   6.418   5.937  13.403 -0.0352 -0.0382 -0.2034
11065TIP3    H154610   6.375   5.910  13.321 -0.0122 -1.5451  0.2651
11065TIP3    H254611   6.478   5.865  13.423 -0.1338  0.2688  1.2176
11066TIP3   OH254612   4.486   4.562  13.838 -0.3784 -0.1959  0.4473
11066TIP3    H154613   4.396   4.532  13.831 -0.6853  0.4431  1.4427
11066TIP3    H254614   4.481   4.637  13.897  0.7672  0.0031  0.2985
11067TIP3   OH254615   3.757   4.618   0.532  0.0109  0.0955  0.0373
11067TIP3    H154616   3.832   4.630   0.590  0.0139  0.5389 -0.0532
11067TIP3    H254617   3.696   4.565   0.582  0.8958 -1.2920 -0.3334
11068TIP3   OH254618   0.038   2.719  12.608 -0.1940  0.3647  0.3215
11068TIP3    H154619   0.121   2.677  12.630  0.2802  1.7751  1.2816
11068TIP3    H254620   0.001   2.745  12.692 -1.7184 -0.4403 -0.0877
11069TIP3   OH254621   4.174   5.221  12.094  0.1952  0.1132  0.4422
11069TIP3    H154622   4.188   5.252  12.004 -1.5161 -0.6781 -0.1128
11069TIP3    H254623   4.214   5.289  12.149  1.0295  0.7396 -0.9077
11070TIP3   OH254624   2.220   5.282  17.000  0.1053  0.0128 -0.0932
11070TIP3    H154625   2.146   5.253  16.946  1.0856 -0.1679 -1.3742
11070TIP3    H254626   2.180   5.339  17.066 -1.5426 -2.4071  1.0552
11071TIP3   OH254627   2.133   3.593  14.841 -0.3799  0.3724 -0.8190
11071TIP3    H154628   2.070   3.652  14.799 -0.5944  0.2572 -0.6543
11071TIP3    H254629   2.218   3.624  14.809 -0.4446  1.1985 -0.2107
11072TIP3   OH254630   6.526   0.534   5.292 -0.3980  0.4959 -0.6458
11072TIP3    H154631   6.463   0.603   5.274  0.0201  1.3849  1.1997
11072TIP3    H254632   6.501   0.501   5.379  0.5337 -0.4178 -0.7180
11073TIP3   OH254633   2.474   2.358   6.049 -0.3319  0.1377 -0.5759
11073TIP3    H154634   2.383   2.385   6.039 -0.2711  1.1409  1.4846
11073TIP3    H254635   2.489   2.357   6.143  2.1229  1.0805 -0.9220
11074TIP3   OH254636   5.122   4.715   3.689 -0.4705  1.2005  0.5095
11074TIP3    H154637   5.069   4.785   3.652 -1.6860 -0.2542 -0.5941
11074TIP3    H254638   5.071   4.682   3.763 -0.8193  0.2581 -0.1319
11075TIP3   OH254639   6.045   0.844   4.307 -0.1748  0.0509  0.0511
11075TIP3    H154640   5.976   0.857   4.372  0.4059 -0.4164  0.7706
11075TIP3    H254641   6.125   0.834   4.359  0.4557  0.7375 -0.7813
11076TIP3   OH254642   4.695   5.478   0.354 -0.2973  0.2052 -0.4687
11076TIP3    H154643   4.668   5.435   0.273 -0.9054 -0.3396  0.0159
11076TIP3    H254644   4.788   5.498   0.341  0.7936 -3.9101  0.4163
11077TIP3   OH254645   4.645   6.438   6.142  0.2034 -0.1047 -0.2298
11077TIP3    H154646   4.651   6.520   6.190 -0.3921 -1.0128  1.4585
11077TIP3    H254647   4.641   6.464   6.050  0.5606  1.7175  0.2480
11078TIP3   OH254648   6.087   5.658  15.359  0.1461  0.1702  0.1798
11078TIP3    H154649   6.049   5.745  15.359  1.5449  0.7909 -0.1873
11078TIP3    H254650   6.056   5.618  15.440  0.1349  1.2752  0.7179
11079TIP3   OH254651   3.605   4.161  15.243 -0.2422 -0.0068  0.1542
11079TIP3    H154652   3.637   4.247  15.217 -0.5003  0.4878  1.4524
11079TIP3    H254653   3.683   4.113  15.271 -0.3968  0.6306  1.7218
11080TIP3   OH254654   0.574   1.586  11.664  0.4621 -0.2648  0.2139
11080TIP3    H154655   0.488   1.559  11.695 -0.0173  0.4794 -0.4502
11080TIP3    H254656   0.624   1.505  11.656 -1.3953 -1.1662 -3.1115
11081TIP3   OH254657   6.467   4.681   0.969 -0.0084 -0.1211  0.0507
11081TIP3    H154658   6.510   4.651   0.888  0.5727  0.8763 -0.0140
11081TIP3    H254659   6.539   4.713   1.023 -0.4462 -0.4131  0.8091
11082TIP3   OH254660   6.053   1.096   6.111 -0.3769  0.1741 -0.2863
11082TIP3    H154661   6.094   1.019   6.071 -1.2024  0.8027 -2.4259
11082TIP3    H254662   5.979   1.061   6.160  0.4979 -0.5818  0.5339
11083TIP3   OH254663   2.143   4.209   1.293 -0.3807  0.1949 -0.1038
11083TIP3    H154664   2.234   4.206   1.264 -0.5003 -1.9574 -0.3301
11083TIP3    H254665   2.128   4.124   1.335 -1.2385  1.8900  3.2076
11084TIP3   OH254666   6.778   0.423  12.224 -0.3112 -0.5959 -0.1564
11084TIP3    H154667   6.831   0.403  12.301  0.4788 -1.0092 -0.8069
11084TIP3    H254668   6.805   0.359  12.158 -1.2064 -0.4465 -0.6799
11085TIP3   OH254669   4.901   4.839   2.933  0.4408  0.0959  0.2680
11085TIP3    H154670   4.954   4.772   2.889  0.3535  0.6214 -0.6562
11085TIP3    H254671   4.856   4.792   3.003  1.3687 -0.5551  0.4367
11086TIP3   OH254672   4.534   5.359   5.634 -0.2873 -0.1296  0.8140
11086TIP3    H154673   4.483   5.422   5.684 -2.4174 -1.2707  0.1163
11086TIP3    H254674   4.523   5.385   5.543  0.9946  0.0447  0.6912
11087TIP3   OH254675   3.427   5.323   0.811 -0.4554  0.5015 -0.4421
11087TIP3    H154676   3.364   5.361   0.872 -0.8432  2.2789 -1.8981
11087TIP3    H254677   3.401   5.357   0.725  2.0576  0.7163 -1.1631
11088TIP3   OH254678   5.675   2.299  13.436 -0.6217 -0.2690  0.1482
11088TIP3    H154679   5.677   2.297  13.532  0.7715 -0.5574  0.1229
11088TIP3    H254680   5.582   2.293  13.414 -0.9397 -0.4272  1.4766
11089TIP3   OH254681   4.983   0.084  14.166 -0.4133 -0.1016  0.3216
11089TIP3    H154682   4.970   0.142  14.240  1.2797  1.6956 -0.7359
11089TIP3    H254683   5.074   0.055  14.174 -0.6907 -1.1406 -0.1849
11090TIP3   OH254684   0.533   1.506   0.027  0.0938 -0.2727 -0.3718
11090TIP3    H154685   0.446   1.501   0.067  0.4543 -0.2066  0.4408
11090TIP3    H254686   0.561   1.596   0.043  0.9429 -0.7216  0.7276
11091TIP3   OH254687   2.122   5.858   0.143 -0.1065  0.4077  0.2695
11091TIP3    H154688   2.067   5.799   0.195 -0.5606 -0.4481 -1.1572
11091TIP3    H254689   2.064   5.890   0.074  0.6805  1.0105 -0.1252
11092TIP3   OH254690   0.369   1.423  11.762  0.2391  0.3616  0.4493
11092TIP3    H154691   0.311   1.383  11.828 -0.1273  0.8623  0.4338
11092TIP3    H254692   0.323   1.409  11.679  0.0670  0.8866  0.4534
11093TIP3   OH254693   5.212   5.835   5.250 -0.4339 -0.0213 -0.2540
11093TIP3    H154694   5.298   5.802   5.224  0.2892  1.1637  0.5772
11093TIP3    H254695   5.157   5.757   5.256  0.7524 -0.8636 -0.1521
11094TIP3   OH254696   5.409   1.358   3.564 -0.3295  0.0934  0.1817
11094TIP3    H154697   5.499   1.330   3.581  0.4118  2.0816 -0.2917
11094TIP3    H254698   5.397   1.435   3.619 -1.5400  0.2048 -0.2246
11095TIP3   OH254699   1.338   1.426  15.621  0.4595 -0.1913  0.0702
11095TIP3    H154700   1.282   1.417  15.698  0.6245  1.5362  0.4027
11095TIP3    H254701   1.422   1.390  15.648 -0.0115 -1.3523  0.0627
11096TIP3   OH254702   1.368   5.641  13.375 -0.2439  0.0607  0.5737
11096TIP3    H154703   1.407   5.661  13.460  1.0348  1.8287 -0.3858
11096TIP3    H254704   1.351   5.726  13.335  0.3601 -0.7293 -1.4608
11097TIP3   OH254705   3.252   2.817  16.465 -0.1474  0.2190 -0.5360
11097TIP3    H154706   3.223   2.904  16.493  0.4115 -0.1496  1.3008
11097TIP3    H254707   3.347   2.824  16.459 -0.0130 -0.4763  0.5087
11098TIP3   OH254708   3.487   4.492  13.089  0.5055 -0.1073 -0.0455
11098TIP3    H154709   3.436   4.435  13.030  1.4632 -0.8284 -0.1956
11098TIP3    H254710   3.443   4.485  13.173 -0.6062  0.5649 -0.5531
11099TIP3   OH254711   2.993   5.589   4.717 -0.1272 -0.7149  0.0240
11099TIP3    H154712   2.977   5.668   4.770  2.1895  0.4482 -0.9048
11099TIP3    H254713   2.981   5.618   4.627 -0.2661 -1.7041 -0.2776
11100TIP3   OH254714   3.696   4.687  11.256 -0.1315 -0.2408  0.2763
11100TIP3    H154715   3.791   4.688  11.269  0.0267  0.5521 -0.8198
11100TIP3    H254716   3.684   4.654  11.167 -0.7147  2.2130 -0.6172
11101TIP3   OH254717   1.651   1.883  13.946  0.3407  0.5182 -0.0944
11101TIP3    H154718   1.659   1.898  14.040  0.4052  0.7245 -0.1318
11101TIP3    H254719   1.742   1.879  13.915  0.3193  0.4987 -0.1546
11102TIP3   OH254720   3.391   4.022  15.453  0.2360  0.7294  0.1057
11102TIP3    H154721   3.374   4.022  15.358 -0.9842  1.0893  0.3160
11102TIP3    H254722   3.340   3.948  15.486  1.8919 -0.3698  0.2903
11103TIP3   OH254723   4.580   1.287   5.615 -0.0702 -0.0523  0.1492
11103TIP3    H154724   4.487   1.266   5.613  0.1174 -0.9859  0.7781
11103TIP3    H254725   4.592   1.352   5.546 -0.7934 -1.5806 -1.4308
11104TIP3   OH254726   1.867   2.793   3.681 -0.6593  0.0552 -0.2169
11104TIP3    H154727   1.835   2.872   3.725 -2.4219 -0.7494  0.0094
11104TIP3    H254728   1.953   2.816   3.648 -0.3127  1.4281  1.6212
11105TIP3   OH254729   0.710   3.584   6.191 -0.4357 -0.4492 -0.1277
11105TIP3    H154730   0.777   3.522   6.221 -2.0083 -2.5584 -0.8752
11105TIP3    H254731   0.649   3.590   6.264  0.5114  1.4504  0.5386
11106TIP3   OH254732   3.321   5.733  14.781  0.5211 -0.0313  0.3748
11106TIP3    H154733   3.227   5.720  14.793  0.4232  0.8775  0.5953
11106TIP3    H254734   3.331   5.827  14.768  1.2151 -0.3285 -1.3956
11107TIP3   OH254735   2.252   2.164   2.953 -0.1802 -0.0002 -0.0466
11107TIP3    H154736   2.178   2.192   2.900 -0.2983 -0.2513 -0.0145
11107TIP3    H254737   2.212   2.123   3.030 -0.0176  1.2065  0.6863
11108TIP3   OH254738   2.658   5.606  11.696  0.0386 -0.0929  0.3726
11108TIP3    H154739   2.578   5.583  11.648 -1.2579  2.7493  1.0794
11108TIP3    H254740   2.716   5.644  11.630 -0.1037 -0.0052  0.2992
11109TIP3   OH254741   2.419   1.431  16.515  0.0527 -0.8140 -0.0230
11109TIP3    H154742   2.507   1.467  16.524  0.4686 -0.5083 -4.2981
11109TIP3    H254743   2.363   1.507  16.502 -0.5400 -1.1571  0.4923
11110TIP3   OH254744   6.771   3.708  13.791  0.4590  0.5456  0.0832
11110TIP3    H154745   6.718   3.633  13.763  0.2542 -0.9631  4.2228
11110TIP3    H254746   6.860   3.673  13.796  0.4060  0.6390  1.7574
11111TIP3   OH254747   0.302   1.181  13.143  0.0656  0.2275  0.3905
11111TIP3    H154748   0.384   1.212  13.182 -0.4995 -0.2456  1.9564
11111TIP3    H254749   0.330   1.123  13.072  1.1108  2.1239 -0.8293
11112TIP3   OH254750   1.137   2.759   1.433 -0.4702  0.6423  0.1806
11112TIP3    H154751   1.091   2.843   1.442 -1.5747 -0.1527  2.0259
11112TIP3    H254752   1.210   2.765   1.495 -1.2301 -0.2074  1.1669
11113TIP3   OH254753   5.312   4.671  15.173 -0.2628  0.3565 -0.2688
11113TIP3    H154754   5.404   4.693  15.190  0.1322 -0.9054 -0.7046
11113TIP3    H254755   5.300   4.587  15.217 -0.7876 -0.2212 -1.4993
11114TIP3   OH254756   1.300   6.439   1.435  0.3948  0.0846 -0.1891
11114TIP3    H154757   1.355   6.476   1.504 -0.5082 -1.7768  1.5946
11114TIP3    H254758   1.334   6.350   1.423 -0.4125 -0.1138 -1.0495
11115TIP3   OH254759   4.814   0.425   5.328  0.0141  0.5687 -0.5541
11115TIP3    H154760   4.762   0.346   5.340  0.7246 -0.1768 -2.2909
11115TIP3    H254761   4.826   0.459   5.416  0.6360 -1.8378  0.3146
11116TIP3   OH254762   3.937   5.232   3.793 -0.5210  0.9624  0.4355
11116TIP3    H154763   3.976   5.294   3.732 -1.8700  0.1504 -1.2825
11116TIP3    H254764   3.859   5.277   3.826 -1.7499  0.0349 -1.1541
11117TIP3   OH254765   3.593   1.871   3.941  0.4810 -0.6458  0.6913
11117TIP3    H154766   3.533   1.866   3.867  0.4329  1.2939  0.5951
11117TIP3    H254767   3.634   1.784   3.945  0.9862 -0.5563 -2.0102
11118TIP3   OH254768   5.470   3.977   3.236  0.0778 -0.0895 -0.3750
11118TIP3    H154769   5.434   4.063   3.215  1.9102  0.9276  0.5071
11118TIP3    H254770   5.402   3.936   3.290 -0.6880  0.9384 -0.5369
11119TIP3   OH254771   0.778   0.149  13.689 -0.5275 -0.3753  0.2043
11119TIP3    H154772   0.784   0.143  13.784 -0.5290 -0.8904  0.1718
11119TIP3    H254773   0.685   0.141  13.670 -0.5545  0.0081  0.1788
11120TIP3   OH254774   6.140   6.701   0.202  0.4026  0.0702 -0.3750
11120TIP3    H154775   6.110   6.612   0.221  1.9818 -0.2760  0.5744
11120TIP3    H254776   6.122   6.713   0.108  1.0637 -1.6191 -0.7330
11121TIP3   OH254777   2.777   3.608   2.200 -0.5578 -0.0818 -1.4990
11121TIP3    H154778   2.818   3.524   2.181 -2.7471 -0.7595 -3.3916
11121TIP3    H254779   2.700   3.612   2.143 -3.6522  0.7789  2.4770
11122TIP3   OH254780   1.979   2.095   2.418 -0.3146 -0.0804 -0.6785
11122TIP3    H154781   1.947   2.169   2.468 -1.2212 -0.8831 -0.0589
11122TIP3    H254782   2.040   2.133   2.355  0.4694  0.9970  0.7114
11123TIP3   OH254783   1.674   0.927  15.082  0.0690  0.4401  0.3411
11123TIP3    H154784   1.622   0.948  15.005 -0.6818  1.8897  1.2132
11123TIP3    H254785   1.657   0.835  15.099 -0.2248  0.2627 -0.8681
11124TIP3   OH254786   0.232   3.344   2.144  0.1821  0.4890  0.6090
11124TIP3    H154787   0.229   3.406   2.217  2.2629  2.2905 -0.7525
11124TIP3    H254788   0.257   3.398   2.069  0.0457 -1.6801 -1.0356
11125TIP3   OH254789   1.137   3.741  16.647 -0.3558  0.3081 -0.3344
11125TIP3    H154790   1.114   3.827  16.613  0.9343  0.8379  0.0746
11125TIP3    H254791   1.193   3.703  16.579 -0.3053  0.1030 -0.1800
11126TIP3   OH254792   2.237   5.323  12.707  0.2959 -0.1943 -0.2923
11126TIP3    H154793   2.194   5.320  12.621  0.8349  2.3390 -0.7148
11126TIP3    H254794   2.279   5.238  12.716 -0.2696 -0.7234 -2.2993
11127TIP3   OH254795   1.437   5.688  16.370 -0.0232 -0.5831 -0.3701
11127TIP3    H154796   1.492   5.766  16.376 -0.9474  0.0202  0.3510
11127TIP3    H254797   1.424   5.661  16.461 -3.2992  0.9820 -0.3028
11128TIP3   OH254798   2.582   3.132   5.283  0.0686  0.8903 -0.6468
11128TIP3    H154799   2.550   3.056   5.333  0.2012 -0.4322 -2.5463
11128TIP3    H254800   2.644   3.175   5.342  0.1772 -0.6152  0.3637
11129TIP3   OH254801   6.293   0.383  13.221 -0.1411 -0.1222 -0.4578
11129TIP3    H154802   6.384   0.358  13.232 -0.9588 -2.6624  1.2546
11129TIP3    H254803   6.265   0.340  13.140 -0.1669 -0.4534 -0.2724
11130TIP3   OH254804   1.086   2.906   4.459 -1.0895  0.2448  0.4214
11130TIP3    H154805   1.141   2.966   4.408 -1.9527 -0.5098 -1.4357
11130TIP3    H254806   1.136   2.891   4.539  0.2565  1.5362 -0.1467
11131TIP3   OH254807   1.222   6.071   1.415 -0.4679  0.4419 -0.8571
11131TIP3    H154808   1.171   6.056   1.494 -1.0343 -0.4602 -1.3907
11131TIP3    H254809   1.301   6.117   1.445 -0.2228 -0.7493  0.3586
11132TIP3   OH254810   5.814   4.376   2.228  0.0708 -0.2912  0.5408
11132TIP3    H154811   5.889   4.322   2.203 -0.8057 -1.1108 -0.3865
11132TIP3    H254812   5.814   4.447   2.163  0.5610  0.1947  1.0736
11133TIP3   OH254813   0.419   1.092   4.005  0.2376  0.2244 -0.2408
11133TIP3    H154814   0.376   1.027   4.060 -1.6946  0.7806 -1.0436
11133TIP3    H254815   0.461   1.152   4.067  0.2289 -0.5666  0.5461
11134TIP3   OH254816   1.027   0.723  14.514  0.3583 -0.5055  0.2187
11134TIP3    H154817   1.048   0.809  14.476 -1.7929  0.2522  0.7032
11134TIP3    H254818   0.966   0.683  14.451 -0.9469 -0.4448  1.4330
11135TIP3   OH254819   1.122   5.671  12.613  0.0500 -0.4665  0.1542
11135TIP3    H154820   1.094   5.595  12.664 -0.9346 -0.0254  0.2932
11135TIP3    H254821   1.048   5.732  12.618  1.2861  1.0095  1.0428
11136TIP3   OH254822   3.433   0.308   3.068 -0.1951 -0.3070 -0.8957
11136TIP3    H154823   3.508   0.359   3.038 -1.4868  0.9177 -2.1132
11136TIP3    H254824   3.457   0.217   3.051  1.8409 -0.0912  0.6215
11137TIP3   OH254825   3.020   2.906   0.176  0.0462 -0.2210 -0.0286
11137TIP3    H154826   2.939   2.888   0.129 -1.3534  3.6560  0.7262
11137TIP3    H254827   3.080   2.939   0.109 -0.8432  2.0800  0.2537
11138TIP3   OH254828   3.337   4.132   0.397  0.4972  1.0199  0.0577
11138TIP3    H154829   3.259   4.125   0.452 -0.6211 -0.6320 -1.6608
11138TIP3    H254830   3.409   4.106   0.454 -0.8882 -2.7901  0.2362
11139TIP3   OH254831   2.637   3.702   6.034  0.1432  0.0770 -0.7722
11139TIP3    H154832   2.631   3.654   6.116  0.1318  2.4904  0.6967
11139TIP3    H254833   2.731   3.713   6.019  0.1228  1.4469  0.0396
11140TIP3   OH254834   4.272   1.447  16.180 -0.1389  0.0647  0.2999
11140TIP3    H154835   4.185   1.485  16.166  1.1808  3.0856 -0.0225
11140TIP3    H254836   4.275   1.373  16.119 -2.1411  0.4857 -0.3572
11141TIP3   OH254837   6.656   2.574  16.870 -0.5721 -0.2378  0.0673
11141TIP3    H154838   6.674   2.514  16.942 -0.9588 -0.2840  0.1284
11141TIP3    H254839   6.586   2.631  16.904  0.3677  0.7913  0.3183
11142TIP3   OH254840   5.350   0.829   1.168  0.1520  0.0085  0.1907
11142TIP3    H154841   5.318   0.749   1.127  1.1223  0.0806 -0.7312
11142TIP3    H254842   5.272   0.882   1.184 -0.4856 -1.0912  0.7584
11143TIP3   OH254843   5.118   0.286   4.376 -0.3359  0.2491 -0.2118
11143TIP3    H154844   5.178   0.346   4.332  0.0032 -0.5721 -0.8825
11143TIP3    H254845   5.090   0.333   4.455 -0.6606  1.5820 -1.1154
11144TIP3   OH254846   6.351   5.274   0.077 -0.2044 -0.3291  0.5283
11144TIP3    H154847   6.438   5.237   0.095 -1.0028 -1.8056  1.3732
11144TIP3    H254848   6.309   5.281   0.163 -1.1061 -0.0628  0.0720
11145TIP3   OH254849   3.926   1.164   5.312 -0.1970  0.8003 -0.1504
11145TIP3    H154850   3.837   1.194   5.294  0.9159  2.8625 -2.5833
11145TIP3    H254851   3.949   1.110   5.237  0.9514  1.1410 -0.0591
11146TIP3   OH254852   6.371   0.868  14.399  0.2660 -0.4071 -0.5121
11146TIP3    H154853   6.327   0.789  14.430  1.8754 -0.9132  0.5478
11146TIP3    H254854   6.450   0.836  14.355  2.4700  0.6890  2.5012
11147TIP3   OH254855   4.074   3.764   0.673  0.4082  0.0600 -0.5983
11147TIP3    H154856   4.103   3.673   0.666 -1.3497 -0.3801 -2.9361
11147TIP3    H254857   4.094   3.801   0.587 -2.8024  0.6493 -1.1613
11148TIP3   OH254858   5.193   1.733  13.772  0.1305  0.5414  0.3936
11148TIP3    H154859   5.227   1.823  13.770 -1.1247  1.0514  1.8154
11148TIP3    H254860   5.272   1.678  13.774  0.9265  1.5584 -1.3174
11149TIP3   OH254861   5.915   3.399  14.012  0.4788  0.0168  0.6168
11149TIP3    H154862   5.927   3.364  13.924  0.8982 -2.1265  1.5076
11149TIP3    H254863   5.864   3.480  13.998  0.8713 -0.0689 -1.6020
11150TIP3   OH254864   3.711   1.170   1.902  0.6009  0.2604 -0.2639
11150TIP3    H154865   3.730   1.110   1.973 -0.3830  2.5977  2.0777
11150TIP3    H254866   3.794   1.213   1.883  0.6137  0.4799  0.2940
11151TIP3   OH254867   6.291   5.115  11.634  0.4792 -0.2582  0.0022
11151TIP3    H154868   6.332   5.035  11.602 -0.2168 -1.4968  2.1246
11151TIP3    H254869   6.199   5.107  11.611  0.8149  1.0577 -1.9082
11152TIP3   OH254870   4.650   6.512   5.880 -0.7221 -0.7053 -0.1254
11152TIP3    H154871   4.734   6.526   5.838 -0.8377 -0.5368 -0.2974
11152TIP3    H254872   4.616   6.600   5.897 -1.1807 -0.7695 -0.6879
11153TIP3   OH254873   3.052   5.762  12.526 -0.2406  0.3896  0.0187
11153TIP3    H154874   3.021   5.724  12.444 -0.5883  0.8385 -0.0567
11153TIP3    H254875   3.024   5.700  12.593  2.9747 -1.7478 -0.4795
11154TIP3   OH254876   2.342   0.463   5.978 -0.0048  0.1842  0.1556
11154TIP3    H154877   2.360   0.392   5.917  1.4353 -0.4533  1.2939
11154TIP3    H254878   2.262   0.435   6.023  0.2155 -0.4358  0.1746
11155TIP3   OH254879   5.253   0.077   2.553  0.1992 -0.0103  0.0699
11155TIP3    H154880   5.182   0.108   2.609 -1.0944  0.3798 -1.7480
11155TIP3    H254881   5.217   0.001   2.508  1.6872 -1.1449  0.7561
11156TIP3   OH254882   6.044   0.814   1.113  0.0318 -0.9167 -0.0941
11156TIP3    H154883   6.110   0.746   1.097  0.5844 -0.2328 -0.7587
11156TIP3    H254884   5.960   0.771   1.096  0.3586 -1.5161 -0.1971
11157TIP3   OH254885   0.657   3.056  11.540  0.1046 -0.3473 -0.0576
11157TIP3    H154886   0.624   3.127  11.596  2.2883  0.5277  0.2017
11157TIP3    H254887   0.587   3.040  11.476 -1.5254  0.1555  1.5621
11158TIP3   OH254888   0.516   4.900   3.424  0.0578  0.0613 -0.2794
11158TIP3    H154889   0.427   4.931   3.408  0.1513  0.4118 -0.1210
11158TIP3    H254890   0.538   4.849   3.346 -1.1158 -1.9388  0.6495
11159TIP3   OH254891   4.836   2.115  15.037  0.6104 -0.0979 -0.4195
11159TIP3    H154892   4.836   2.112  14.942  1.4013 -1.6104 -0.4010
11159TIP3    H254893   4.743   2.111  15.062  0.3536  1.4419 -1.1389
11160TIP3   OH254894   4.198   1.829   0.511 -0.7525 -0.0283 -0.4825
11160TIP3    H154895   4.283   1.868   0.490 -0.2562 -1.1048 -0.5648
11160TIP3    H254896   4.204   1.740   0.475 -0.8797 -1.0350  1.8652
11161TIP3   OH254897   3.018   1.052  13.851 -0.6036 -0.2812  0.2281
11161TIP3    H154898   2.950   1.040  13.917 -0.6239  1.0893  0.4865
11161TIP3    H254899   3.100   1.054  13.901 -0.8727  4.3417  0.7326
11162TIP3   OH254900   1.675   6.590  14.968  0.8277 -0.2142 -0.0648
11162TIP3    H154901   1.582   6.572  14.953  0.7165  0.6545 -0.4316
11162TIP3    H254902   1.676   6.679  15.003  1.4651 -0.4925  0.6358
11163TIP3   OH254903   6.516   0.013  11.192 -0.3241  0.3050  0.1435
11163TIP3    H154904   6.435   0.005  11.142 -0.1418  0.2036 -0.1342
11163TIP3    H254905   6.577  -0.046  11.149 -1.0101 -2.0049  2.2368
11164TIP3   OH254906   5.206   6.620   2.437  0.2271 -0.0769  0.0418
11164TIP3    H154907   5.204   6.556   2.365  1.8065 -0.7826  0.5943
11164TIP3    H254908   5.122   6.609   2.481 -0.5143 -0.0617 -1.3307
11165TIP3   OH254909   3.442   5.622   3.412 -1.2726 -0.4061  0.3132
11165TIP3    H154910   3.501   5.676   3.464 -0.2115  1.2774 -2.5505
11165TIP3    H254911   3.473   5.532   3.427  2.0864  0.4329 -1.1489
11166TIP3   OH254912   6.730   2.742   1.141 -0.4675 -0.2037 -0.1366
11166TIP3    H154913   6.751   2.800   1.068  0.3028 -1.4526 -0.9229
11166TIP3    H254914   6.783   2.773   1.214 -0.7735  0.6615 -0.2792
11167TIP3   OH254915   4.371   0.452  12.647  0.5939  0.0241  0.0156
11167TIP3    H154916   4.361   0.436  12.741  2.1835 -0.4853  0.1088
11167TIP3    H254917   4.465   0.466  12.634  0.3767  0.2248 -1.4823
11168TIP3   OH254918   1.475   0.413   4.596  0.1936  0.1166  0.3177
11168TIP3    H154919   1.419   0.460   4.658  1.2090  0.0876  1.2733
11168TIP3    H254920   1.517   0.344   4.648  2.5996  1.3390  0.0835
11169TIP3   OH254921   3.389   0.533  14.703  0.0573 -0.3376  0.3367
11169TIP3    H154922   3.460   0.482  14.742 -0.2574 -1.1878 -0.1860
11169TIP3    H254923   3.430   0.617  14.680  0.3727 -0.0268  1.9737
11170TIP3   OH254924   1.164   3.017  14.049  0.6285 -0.2137  0.1708
11170TIP3    H154925   1.112   3.027  14.129  0.0074  0.5707 -0.3178
11170TIP3    H254926   1.155   3.101  14.004  0.4451 -0.8645 -1.0368
11171TIP3   OH254927   6.569   1.750  15.407  0.6474 -0.7882 -0.6212
11171TIP3    H154928   6.541   1.678  15.463  2.1271 -1.0333 -0.1690
11171TIP3    H254929   6.519   1.826  15.438 -0.1076 -1.3783 -0.3836
11172TIP3   OH254930   3.324   2.137   1.094 -0.3852  0.1210  0.8056
11172TIP3    H154931   3.384   2.192   1.044 -0.2071 -1.2426 -0.5007
11172TIP3    H254932   3.251   2.195   1.114  1.0310  1.6074  1.8247
11173TIP3   OH254933   6.146   4.163   1.765 -0.4953 -0.1419  0.4035
11173TIP3    H154934   6.117   4.215   1.690  0.6665 -0.0231  0.0193
11173TIP3    H254935   6.068   4.153   1.819 -1.2990 -0.0513 -0.7172
11174TIP3   OH254936   2.655   5.665   4.582 -0.0224 -0.5258  0.1701
11174TIP3    H154937   2.649   5.671   4.677  1.5744 -2.0024  0.3746
11174TIP3    H254938   2.749   5.659   4.563 -0.3546 -1.0556 -1.4509
11175TIP3   OH254939   6.748   6.454  16.240 -0.2452  0.0765  0.2159
11175TIP3    H154940   6.732   6.375  16.292 -1.1616  0.5155  0.6030
11175TIP3    H254941   6.679   6.454  16.174 -0.9079  1.1453  0.9124
11176TIP3   OH254942   1.661   0.394  14.046  0.0231  0.1586 -0.3166
11176TIP3    H154943   1.691   0.430  14.130 -0.0005 -0.3366 -0.0941
11176TIP3    H254944   1.653   0.470  13.989 -0.5649  0.5738  0.3151
11177TIP3   OH254945   6.414   3.680   1.113  0.3048  0.2149  0.5109
11177TIP3    H154946   6.384   3.685   1.022 -1.5922  1.3900  1.1696
11177TIP3    H254947   6.505   3.652   1.107  0.6015  1.5580 -1.8366
11178TIP3   OH254948   0.639   3.868  12.628 -0.3242  0.2168 -0.2187
11178TIP3    H154949   0.726   3.882  12.665 -0.5742 -0.1667  0.5332
11178TIP3    H254950   0.609   3.955  12.603  0.5080  0.2824 -1.0217
11179TIP3   OH254951   4.146   4.770  15.979 -0.6759 -0.4985  0.0550
11179TIP3    H154952   4.063   4.753  15.935 -2.5652  0.4924  3.0682
11179TIP3    H254953   4.169   4.687  16.021 -1.5987 -0.0426  1.4967
11180TIP3   OH254954   6.216   2.464  16.558 -0.2005 -0.2481  0.8677
11180TIP3    H154955   6.309   2.481  16.578  0.2207  0.3685 -1.4653
11180TIP3    H254956   6.214   2.449  16.463 -2.8735  2.4813  0.4208
11181TIP3   OH254957   6.510   2.006   6.106 -0.1645 -0.6307 -0.2262
11181TIP3    H154958   6.588   2.036   6.152 -1.9166  1.5215  1.4804
11181TIP3    H254959   6.501   2.067   6.033 -0.2100 -0.8933 -0.4366
11182TIP3   OH254960   0.685   3.161  12.045  0.2314 -0.0303  0.3216
11182TIP3    H154961   0.652   3.071  12.046 -2.1170  0.7906  1.8826
11182TIP3    H254962   0.761   3.159  12.102 -0.0354 -0.9577  0.6598
11183TIP3   OH254963   5.749   2.449  13.675 -0.5246  0.5083  0.4737
11183TIP3    H154964   5.826   2.496  13.642  0.8095 -0.4096  2.2036
11183TIP3    H254965   5.741   2.476  13.766 -1.0281 -0.9306  0.8800
11184TIP3   OH254966   1.673   6.127  15.043 -0.4880  0.2399 -0.1891
11184TIP3    H154967   1.738   6.098  15.107 -1.1830  0.1267  0.4729
11184TIP3    H254968   1.707   6.210  15.010  0.7219 -0.5267 -0.9273
11185TIP3   OH254969   2.219   4.253   6.039 -0.2638  1.1228  0.0895
11185TIP3    H154970   2.154   4.210   6.095 -0.9014 -0.5006 -1.8146
11185TIP3    H254971   2.247   4.329   6.089 -1.2796  0.0886  2.3241
11186TIP3   OH254972   0.453   4.372  11.868 -0.0330 -0.0463 -0.0960
11186TIP3    H154973   0.370   4.400  11.906 -0.0563  1.0112 -0.9207
11186TIP3    H254974   0.450   4.276  11.872 -1.2059 -0.0049  0.0473
11187TIP3   OH254975   6.571   6.154  13.308  0.3787 -0.0127  0.5499
11187TIP3    H154976   6.555   6.061  13.323  2.0757 -0.2536  1.0324
11187TIP3    H254977   6.489   6.188  13.273 -0.2536 -1.6950  0.3722
11188TIP3   OH254978   1.142   1.938  11.710  0.0559 -0.5708 -0.5660
11188TIP3    H154979   1.172   1.963  11.623  0.4829  1.6480  0.1762
11188TIP3    H254980   1.222   1.920  11.759 -0.0690  0.1077 -0.0970
11189TIP3   OH254981   2.912   3.796  17.231  0.1742 -0.6621 -0.2050
11189TIP3    H154982   2.984   3.855  17.210 -1.2233  0.6619 -1.3927
11189TIP3    H254983   2.922   3.778  17.324  2.4090 -1.0062 -0.5075
11190TIP3   OH254984   0.872   4.445   3.873 -0.7564 -0.3512 -0.2807
11190TIP3    H154985   0.862   4.368   3.816  0.3918  0.6291 -1.8604
11190TIP3    H254986   0.954   4.485   3.844 -0.7186  0.7859  1.3613
11191TIP3   OH254987   1.064   0.239  12.137 -0.1806 -0.6826  0.0810
11191TIP3    H154988   0.975   0.267  12.117  0.7719  2.4503  0.0257
11191TIP3    H254989   1.105   0.224  12.051 -0.2871 -0.9365  0.0746
11192TIP3   OH254990   0.062   2.981   4.097  0.2711 -0.1487  0.2070
11192TIP3    H154991  -0.018   3.032   4.089  0.4959  0.6117  2.4927
11192TIP3    H254992   0.123   3.022   4.036 -0.0389  1.3764  0.9160
11193TIP3   OH254993   1.262   1.647  14.890  0.1834  0.3014 -0.3793
11193TIP3    H154994   1.222   1.610  14.812 -1.0945  0.9622 -0.0623
11193TIP3    H254995   1.188   1.675  14.944  0.9382 -2.7788  2.4007
11194TIP3   OH254996   1.368   3.757   4.372 -0.0121 -0.0014 -0.0140
11194TIP3    H154997   1.424   3.802   4.435  0.8204  0.0988 -0.8235
11194TIP3    H254998   1.429   3.713   4.313 -0.7816  0.5645 -1.2352
11195TIP3   OH254999   0.240   0.952   0.962 -0.0722  0.5037 -0.0948
11195TIP3    H155000   0.320   0.906   0.935  1.6040  2.7662  0.9174
11195TIP3    H255001   0.226   0.923   1.052  1.4065  2.4701  0.8011
11196TIP3   OH255002   3.972   5.809  12.698 -0.2767 -0.1109  0.3018
11196TIP3    H155003   3.973   5.882  12.636 -0.5820 -0.1821  0.2145
11196TIP3    H255004   4.006   5.735  12.649 -0.5679 -0.1799  0.2035
11197TIP3   OH255005   3.595   6.072  15.726  0.0751 -0.0394 -0.1585
11197TIP3    H155006   3.666   6.010  15.709  0.5837  0.2396  0.9441
11197TIP3    H255007   3.516   6.026  15.698  0.5854 -0.7131 -0.4997
11198TIP3   OH255008   2.647   6.589  15.143 -0.1922 -0.0646 -0.2272
11198TIP3    H155009   2.726   6.628  15.182 -0.4602  1.7195 -1.4010
11198TIP3    H255010   2.673   6.500  15.119  1.6717  0.6965 -1.1540
11199TIP3   OH255011   6.563   4.116  16.061  0.0793  0.3523 -0.0672
11199TIP3    H155012   6.548   4.030  16.024  0.8398  0.2052 -0.0334
11199TIP3    H255013   6.479   4.141  16.098 -0.2775 -0.1511 -0.5383
11200TIP3   OH255014   5.768   0.650  12.593 -0.4634  0.7110 -0.1342
11200TIP3    H155015   5.730   0.684  12.674  0.0285  1.1244 -0.0818
11200TIP3    H255016   5.813   0.724  12.553  1.6924 -0.1707  0.6108
11201TIP3   OH255017   5.199   5.063   3.126 -0.3331  0.6762  0.1096
11201TIP3    H155018   5.172   5.084   3.216 -2.6050  1.4824 -0.7398
11201TIP3    H255019   5.250   5.139   3.099  0.5924  0.3152  0.7907
11202TIP3   OH255020   3.540   6.266  16.233 -0.2719 -0.2437  0.5116
11202TIP3    H155021   3.588   6.252  16.152 -2.1059 -2.4452 -0.2366
11202TIP3    H255022   3.608   6.274  16.300  1.2070 -0.1524 -0.9712
11203TIP3   OH255023   6.636   2.616  13.915  0.5411 -0.0551 -0.1683
11203TIP3    H155024   6.605   2.687  13.972 -2.6156 -0.8259 -0.8100
11203TIP3    H255025   6.689   2.660  13.849  1.0520  1.3279  1.1233
11204TIP3   OH255026   2.721   4.275   0.480 -0.0698 -0.4690 -0.4531
11204TIP3    H155027   2.757   4.253   0.566 -2.1868 -0.3781  0.4775
11204TIP3    H255028   2.668   4.199   0.456  0.4822 -0.4852 -1.6791
11205TIP3   OH255029   1.390   0.324  11.125 -0.1698  0.0179  0.3433
11205TIP3    H155030   1.424   0.281  11.047 -0.7575 -0.0637  0.1315
11205TIP3    H255031   1.358   0.408  11.094 -0.1494  0.1009  0.5477
11206TIP3   OH255032   5.740   6.058  16.741 -0.5721 -0.4103  0.4142
11206TIP3    H155033   5.665   6.025  16.692  0.8277 -0.2432 -1.9019
11206TIP3    H255034   5.755   6.146  16.706  1.1648 -0.7378  0.2870
11207TIP3   OH255035   2.209   6.621   4.830 -0.3224  0.3240 -0.7619
11207TIP3    H155036   2.131   6.581   4.793 -1.3561 -0.2471  1.8936
11207TIP3    H255037   2.177   6.701   4.873  0.8394  0.9996 -1.1259
11208TIP3   OH255038   4.326   1.195  14.762  0.2192  0.0011  0.0694
11208TIP3    H155039   4.335   1.129  14.832 -1.8695  0.9638  1.3200
11208TIP3    H255040   4.414   1.231  14.751  0.3976  0.6648  3.0885
11209TIP3   OH255041   4.991   1.136  14.239  0.9674 -0.3393  0.5518
11209TIP3    H155042   4.978   1.128  14.145 -1.0662  0.4290  0.7321
11209TIP3    H255043   4.936   1.067  14.276  1.0343 -0.0431  1.2065
11210TIP3   OH255044   2.313   2.059  15.864  0.2463  0.0022  0.1800
11210TIP3    H155045   2.398   2.016  15.877  0.3239  0.0773 -0.0803
11210TIP3    H255046   2.291   2.040  15.773  0.2689  0.5002  0.0712
11211TIP3   OH255047   0.910   6.589  15.115  0.0422 -0.2908  0.5224
11211TIP3    H155048   0.942   6.673  15.148  1.8439 -0.9625  0.5245
11211TIP3    H255049   0.982   6.528  15.130 -1.2169 -1.8190  0.4218
11212TIP3   OH255050   5.878   5.970  15.612  0.1873  0.1962  0.1183
11212TIP3    H155051   5.879   5.951  15.518  0.2100 -0.3834  0.2345
11212TIP3    H255052   5.787   5.955  15.638  0.7010 -2.0969  0.6812
11213TIP3   OH255053   4.813   2.863  15.363 -0.2366  0.4261  0.9045
11213TIP3    H155054   4.750   2.879  15.433 -0.0960  0.2127  1.0829
11213TIP3    H255055   4.778   2.788  15.315  0.0708  0.0546  1.2440
11214TIP3   OH255056   2.504   3.583  11.734 -0.0895  0.4008  0.0825
11214TIP3    H155057   2.585   3.573  11.785 -0.7820  0.5178  1.2129
11214TIP3    H255058   2.473   3.671  11.756  0.5382  1.1558 -1.9180
11215TIP3   OH255059   1.407   2.301   4.095  0.5840  0.1933  0.5894
11215TIP3    H155060   1.450   2.268   4.174  1.5289  2.6675  1.1513
11215TIP3    H255061   1.317   2.321   4.123  1.0590  1.5422  1.1915
11216TIP3   OH255062   3.065   3.393   1.408 -0.0060 -0.4091  0.2264
11216TIP3    H155063   3.004   3.371   1.337  0.6974 -1.8728  0.0382
11216TIP3    H255064   3.112   3.470   1.376 -0.5415 -0.3245 -0.3759
11217TIP3   OH255065   1.633   3.308  11.900 -0.3780  0.0004  0.0444
11217TIP3    H155066   1.629   3.276  11.991 -0.0574  0.2905  0.1624
11217TIP3    H255067   1.721   3.284  11.871 -0.5482 -0.2590 -0.2550
11218TIP3   OH255068   3.043   4.695   0.034 -0.0102  0.3586  0.1179
11218TIP3    H155069   2.951   4.717   0.022 -0.2932 -0.2626  1.0725
11218TIP3    H255070   3.075   4.677  -0.054  0.0532  3.7644 -0.6019
11219TIP3   OH255071   2.938   2.746  14.019 -0.0891  0.2165 -0.3708
11219TIP3    H155072   2.962   2.839  14.024 -1.8995  0.6003  2.0743
11219TIP3    H255073   2.964   2.720  13.931  0.7954  2.9573 -0.9842
11220TIP3   OH255074   0.200   1.750   4.641  0.5309 -0.4493 -0.1242
11220TIP3    H155075   0.255   1.721   4.714  1.3932  1.9662  0.2296
11220TIP3    H255076   0.258   1.751   4.566  0.9833  1.9399  0.2144
11221TIP3   OH255077   5.089   6.000  15.531  0.5129 -0.0102 -0.1234
11221TIP3    H155078   5.096   5.931  15.598 -0.4633  0.5440  0.5504
11221TIP3    H255079   5.055   5.954  15.454  1.2385 -0.5638 -0.1336
11222TIP3   OH255080   0.712   5.008  12.997 -0.0747  0.1483 -0.6294
11222TIP3    H155081   0.709   5.058  12.915 -0.3262 -1.7262 -1.8030
11222TIP3    H255082   0.784   4.945  12.984  0.3820  0.3289  0.8947
11223TIP3   OH255083   6.254   3.069  17.128 -0.9304 -0.1898  0.9293
11223TIP3    H155084   6.272   3.123  17.204 -0.3695  0.6495  0.2133
11223TIP3    H255085   6.189   3.119  17.078 -0.2759 -0.0678  0.1714
11224TIP3   OH255086   1.292   4.750  15.647  0.0878 -0.4977  0.5525
11224TIP3    H155087   1.383   4.754  15.618 -0.6731 -0.1372 -1.9520
11224TIP3    H255088   1.264   4.661  15.625 -0.7664  0.0630 -0.7090
11225TIP3   OH255089   6.245   3.419  16.885 -0.1107  0.0075  0.3382
11225TIP3    H155090   6.301   3.348  16.917  0.1086  0.3749  0.7647
11225TIP3    H255091   6.156   3.393  16.910 -0.0253 -0.0887  0.5370
11226TIP3   OH255092   1.877   4.228  11.586  0.6015  0.1086  0.0980
11226TIP3    H155093   1.918   4.182  11.512 -3.2600 -1.3401 -1.2276
11226TIP3    H255094   1.834   4.303  11.546 -1.7176 -0.8102  0.8115
11227TIP3   OH255095   5.068   2.613   3.096  0.2330  0.4751  0.2081
11227TIP3    H155096   5.142   2.675   3.094  2.6409 -2.2169  2.0276
11227TIP3    H255097   5.058   2.585   3.005 -0.0955  2.6182 -0.4420
11228TIP3   OH255098   4.733   5.333  13.077 -0.1956  0.1883  0.2819
11228TIP3    H155099   4.648   5.344  13.034 -0.2486 -1.0096  0.0690
11228TIP3    H255100   4.781   5.413  13.055 -0.5084 -0.0559 -1.3899
11229TIP3   OH255101   3.851   2.904   5.538  0.4666  0.2468  0.1439
11229TIP3    H155102   3.845   2.809   5.544  1.3960  0.1220 -0.6858
11229TIP3    H255103   3.908   2.919   5.462 -0.6773  1.4800 -0.4805
11230TIP3   OH255104   0.845   0.114   5.204  0.7039  0.3506  0.0224
11230TIP3    H155105   0.805   0.197   5.179 -1.5482 -1.3304 -2.1232
11230TIP3    H255106   0.938   0.125   5.181  0.5372  2.4108  0.1949
11231TIP3   OH255107   0.005   4.510  14.214  0.1206 -0.4010 -0.1228
11231TIP3    H155108   0.009   4.576  14.282  1.4388  0.6610 -1.2003
11231TIP3    H255109  -0.086   4.482  14.212 -0.5248  1.6676  0.0888
11232TIP3   OH255110   4.555   1.246  11.291 -0.0984  0.2661 -0.0504
11232TIP3    H155111   4.519   1.188  11.358  2.8556 -1.6221 -0.0104
11232TIP3    H255112   4.621   1.193  11.246  0.6143  2.6823 -1.9759
11233TIP3   OH255113   4.604   2.540   3.389 -0.2772  0.0030 -0.2713
11233TIP3    H155114   4.601   2.569   3.480 -1.9705  1.8653 -0.8660
11233TIP3    H255115   4.662   2.603   3.346  2.0197 -1.9835 -0.1435
11234TIP3   OH255116   2.677   0.271  14.596  0.5191 -0.1571 -0.8021
11234TIP3    H155117   2.600   0.250  14.649  2.5724  1.2473  2.9679
11234TIP3    H255118   2.642   0.319  14.521 -2.2663  0.8958  1.0745
11235TIP3   OH255119   5.518   3.999  11.287 -0.0437  0.0259 -0.3701
11235TIP3    H155120   5.427   4.002  11.257 -0.5707  1.4646  1.2507
11235TIP3    H255121   5.559   4.075  11.245 -0.0883  0.4858  0.4214
11236TIP3   OH255122   1.683   4.015  15.184 -0.0863 -0.0605  0.2526
11236TIP3    H155123   1.633   4.079  15.134  1.3356  0.5735 -0.3957
11236TIP3    H255124   1.702   3.945  15.121  1.4670  0.6068 -0.0376
11237TIP3   OH255125   1.556   0.365  14.782  0.3889  0.5354  0.0028
11237TIP3    H155126   1.619   0.299  14.752 -1.1736 -1.4744  1.0012
11237TIP3    H255127   1.504   0.319  14.848 -1.4332  2.4845 -0.0519
11238TIP3   OH255128   0.921   0.839  14.245 -0.6108  0.2660 -0.6975
11238TIP3    H155129   0.865   0.778  14.291  0.7147  0.4915  1.2752
11238TIP3    H255130   0.873   0.922  14.245 -0.7188  0.1986  0.0618
11239TIP3   OH255131   4.461   1.815  13.343  0.3570  0.3866  0.4216
11239TIP3    H155132   4.431   1.902  13.372  0.8784  0.7537 -0.1450
11239TIP3    H255133   4.500   1.830  13.257  0.0106 -0.4933  0.1017
11240TIP3   OH255134   0.445   6.370   1.121 -0.2760 -0.2888 -0.2282
11240TIP3    H155135   0.444   6.370   1.216 -1.4239 -3.1955 -0.1841
11240TIP3    H255136   0.487   6.288   1.097  0.9242  0.8662 -2.2504
11241TIP3   OH255137   3.679   0.013   5.123  0.1326 -0.0936 -0.4557
11241TIP3    H155138   3.707   0.005   5.214  1.2838  0.0359 -0.7972
11241TIP3    H255139   3.586   0.037   5.128 -0.1473 -1.3879  0.6676
11242TIP3   OH255140   4.753   4.004   2.440  0.3022 -0.2290  0.6850
11242TIP3    H155141   4.695   4.044   2.504  0.7486 -0.9321  1.5322
11242TIP3    H255142   4.837   4.046   2.454  0.1429  0.4044 -0.1855
11243TIP3   OH255143   5.960   2.930   1.807  0.1682 -0.2928  0.2594
11243TIP3    H155144   6.029   2.867   1.788  0.4302  0.2338 -0.5715
11243TIP3    H255145   5.900   2.923   1.733 -0.7140 -0.8099  1.0200
11244TIP3   OH255146   0.946   3.333   4.325 -0.4808  0.0818 -0.5355
11244TIP3    H155147   0.940   3.350   4.231  2.5251 -0.6946 -0.9086
11244TIP3    H255148   0.877   3.269   4.343 -0.4425 -0.5013 -2.3970
11245TIP3   OH255149   1.430   1.848  11.012  0.6855 -0.1943 -0.5558
11245TIP3    H155150   1.370   1.813  10.946  0.6691  2.0267 -1.7844
11245TIP3    H255151   1.373   1.883  11.080  0.6984 -2.2593  0.5494
11246TIP3   OH255152   6.436   4.947   6.372  0.1228  0.5203  0.2109
11246TIP3    H155153   6.363   4.885   6.378  0.1899  0.4925  0.7263
11246TIP3    H255154   6.514   4.892   6.368  0.3820  0.5724  3.2028
11247TIP3   OH255155   3.502   0.351   5.914  0.3256  0.7551  0.3935
11247TIP3    H155156   3.503   0.304   5.997  0.0665  1.1021  0.5937
11247TIP3    H255157   3.586   0.397   5.911  1.2334 -0.8961 -0.4853
11248TIP3   OH255158   3.733   3.626   2.052  0.6058  0.6257  0.3030
11248TIP3    H155159   3.651   3.660   2.015 -0.1099 -0.9868  0.3682
11248TIP3    H255160   3.705   3.567   2.122  1.8451  0.3800  0.6060
11249TIP3   OH255161   1.753   0.760   4.123 -0.6692  0.3636  0.0719
11249TIP3    H155162   1.705   0.729   4.047 -1.6040  1.1962  0.3148
11249TIP3    H255163   1.691   0.755   4.195  0.0668  0.0287  0.6933
11250TIP3   OH255164   1.303   6.726   2.798  0.2595  0.3553  0.5713
11250TIP3    H155165   1.315   6.731   2.893  1.6093  1.9659  0.3374
11250TIP3    H255166   1.365   6.789   2.762  0.4218 -0.8968 -1.4534
11251TIP3   OH255167   3.960   2.728   5.102 -0.0391 -0.0020 -0.1679
11251TIP3    H155168   3.868   2.706   5.087 -0.5003  0.4354  1.7880
11251TIP3    H255169   3.958   2.817   5.137  1.1740  0.2428 -0.6971
11252TIP3   OH255170   2.354   3.617  14.455 -0.5777  0.5523  0.5762
11252TIP3    H155171   2.418   3.657  14.396 -0.2381  2.0880  1.9418
11252TIP3    H255172   2.373   3.523  14.451  1.4068  0.9328  0.5307
11253TIP3   OH255173   0.459   4.642  14.899  0.2542  0.1657  0.1183
11253TIP3    H155174   0.375   4.601  14.919  1.0856 -1.0117  1.2820
11253TIP3    H255175   0.436   4.730  14.868 -1.3417  0.2348  1.4264
11254TIP3   OH255176   0.636   2.889  12.091 -0.3626 -0.5636 -0.5965
11254TIP3    H155177   0.597   2.833  12.158  0.9374 -1.9524 -0.9582
11254TIP3    H255178   0.709   2.838  12.057  1.6587  1.8792 -0.0648
11255TIP3   OH255179   5.339   5.170   4.643  0.2508 -0.9050  0.0651
11255TIP3    H155180   5.281   5.097   4.666 -0.1351 -0.5172  0.3398
11255TIP3    H255181   5.336   5.174   4.548 -0.5681 -0.5824  0.0976
11256TIP3   OH255182   5.767   4.209  11.166  0.1762  0.2669  0.2335
11256TIP3    H155183   5.770   4.193  11.261 -2.3868  1.1378  0.5112
11256TIP3    H255184   5.844   4.263  11.148 -0.3628  1.7302  2.1768
11257TIP3   OH255185   1.950   2.380  15.281  0.3194 -0.3508  0.6124
11257TIP3    H155186   2.000   2.299  15.291  0.0976 -0.7680 -1.4331
11257TIP3    H255187   1.881   2.374  15.348 -1.0067 -2.8670 -0.9045
11258TIP3   OH255188   1.924   0.501   1.343  0.3428 -1.0028 -0.0547
11258TIP3    H155189   1.900   0.442   1.415 -0.8641  1.1287  1.3294
11258TIP3    H255190   2.005   0.542   1.373  0.6615 -1.2291 -0.6014
11259TIP3   OH255191   0.267   5.384  13.137 -0.8417  0.1640 -0.2875
11259TIP3    H155192   0.191   5.327  13.146  0.5097 -1.3179  2.6456
11259TIP3    H255193   0.314   5.350  13.060 -1.1494 -1.3598  0.1904
11260TIP3   OH255194   0.015   5.863  16.913 -0.0766  0.2881  0.2324
11260TIP3    H155195   0.032   5.950  16.948  0.5885  0.6334 -0.9367
11260TIP3    H255196   0.100   5.820  16.913 -0.1619  0.1061 -0.4441
11261TIP3   OH255197   4.371   2.216  13.735 -0.1052  0.0501 -0.4331
11261TIP3    H155198   4.340   2.196  13.823  1.0700 -0.4258 -0.1162
11261TIP3    H255199   4.291   2.221  13.682 -0.9369  1.9509  0.9666
11262TIP3   OH255200   1.717   6.016   5.711 -0.0950 -0.1742  0.7810
11262TIP3    H155201   1.664   5.993   5.635 -1.2949  1.4885  1.0954
11262TIP3    H255202   1.805   6.027   5.676 -0.6557  0.6812 -0.3813
11263TIP3   OH255203   5.920   4.725   2.685  0.4843 -0.2517  0.3985
11263TIP3    H155204   5.924   4.817   2.712 -0.0482 -0.1480  0.1119
11263TIP3    H255205   5.957   4.723   2.597 -0.5081 -0.1482 -0.0219
11264TIP3   OH255206   2.768   5.526   4.845 -0.1913 -0.5176  0.2082
11264TIP3    H155207   2.855   5.547   4.810 -0.9965  1.3581 -0.7333
11264TIP3    H255208   2.754   5.591   4.914  0.8732 -3.4435  3.3346
11265TIP3   OH255209   6.246   1.576   3.373  0.4931 -0.0142  0.4234
11265TIP3    H155210   6.205   1.556   3.289 -1.5353 -1.4043  1.6987
11265TIP3    H255211   6.184   1.635   3.416  0.9355 -0.2814  1.4357
11266TIP3   OH255212   2.833   3.366   6.200 -0.2235 -0.2048 -0.0243
11266TIP3    H155213   2.913   3.349   6.249 -0.0825 -0.8313 -0.4659
11266TIP3    H255214   2.862   3.415   6.123  0.0040 -1.9605 -1.1091
11267TIP3   OH255215   3.281   3.564   1.264  0.7908 -0.5123  0.0043
11267TIP3    H155216   3.294   3.539   1.173  2.5704 -2.6809  0.7858
11267TIP3    H255217   3.322   3.650   1.272  0.4807 -0.2413 -1.2640
11268TIP3   OH255218   0.541   3.662   1.863 -0.0281  0.2970 -0.6415
11268TIP3    H155219   0.531   3.750   1.901  0.3199 -0.2622  0.7601
11268TIP3    H255220   0.511   3.672   1.773 -3.1193  1.1497  0.4112
11269TIP3   OH255221   1.029   4.801  12.989 -0.3780 -0.6815  0.5283
11269TIP3    H155222   1.117   4.839  12.997 -0.5341 -0.3514  0.6760
11269TIP3    H255223   1.010   4.768  13.077 -0.8103  0.1426  0.7498
11270TIP3   OH255224   5.557   5.686   3.034  0.5768  0.3801 -0.8769
11270TIP3    H155225   5.510   5.759   2.994  0.6434  0.7263 -0.3326
11270TIP3    H255226   5.552   5.616   2.969 -0.6690  0.4208 -0.8318
11271TIP3   OH255227   2.664   2.754  15.550  0.2321  0.1062  0.3335
11271TIP3    H155228   2.744   2.724  15.507  0.0798  0.5651 -0.2872
11271TIP3    H255229   2.611   2.791  15.479  0.1192  1.1770  0.9621
11272TIP3   OH255230   0.162   4.095   1.411  0.3567  0.7263  0.0325
11272TIP3    H155231   0.211   4.151   1.351  2.0132 -0.7402  0.0001
11272TIP3    H255232   0.203   4.009   1.404 -2.2746 -0.5865 -0.0492
11273TIP3   OH255233   2.922   6.320  15.979  0.2947 -0.4517  0.4632
11273TIP3    H155234   3.015   6.303  15.967  0.3579 -0.9758  1.6698
11273TIP3    H255235   2.904   6.295  16.070 -0.7837  0.6926  0.5878
11274TIP3   OH255236   3.335   2.880  10.795  0.3395 -0.0699  0.3307
11274TIP3    H155237   3.283   2.878  10.875  0.1147 -0.8488  0.1731
11274TIP3    H255238   3.300   2.808  10.742  1.7407 -0.7742  0.3352
11275TIP3   OH255239   6.626   6.556   2.079 -0.7145 -0.3995  0.1691
11275TIP3    H155240   6.582   6.471   2.085  1.2770 -1.5736 -1.0537
11275TIP3    H255241   6.687   6.556   2.152  1.4758 -1.3906 -1.5965
11276TIP3   OH255242   6.035   2.633   4.801 -0.0252 -0.2418  0.5731
11276TIP3    H155243   5.941   2.648   4.803  0.1958  1.1348  1.0832
11276TIP3    H255244   6.058   2.608   4.890  0.2458  0.3858  0.6800
11277TIP3   OH255245   1.927   5.421  15.189  0.0094 -0.1846  0.5652
11277TIP3    H155246   1.931   5.330  15.158 -0.5196 -0.7071  1.9881
11277TIP3    H255247   1.834   5.441  15.195  0.1222  0.4155  0.3932
11278TIP3   OH255248   3.157   3.959  13.342 -0.0917 -0.2919 -0.2002
11278TIP3    H155249   3.156   4.032  13.403 -1.0499  0.2817 -0.8885
11278TIP3    H255250   3.067   3.927  13.342 -0.3613  0.4028 -2.1152
11279TIP3   OH255251   6.650   0.151   0.867  0.2253  0.5231 -0.2917
11279TIP3    H155252   6.580   0.158   0.802 -0.3677  1.0935  0.4059
11279TIP3    H255253   6.689   0.239   0.869 -1.6088  1.3238  2.1843
11280TIP3   OH255254   2.464   3.210   0.861 -0.2408 -0.3202  0.8700
11280TIP3    H155255   2.401   3.177   0.797 -0.8674  0.5285  1.0450
11280TIP3    H255256   2.484   3.134   0.916  0.0616 -0.9727 -0.1298
11281TIP3   OH255257   4.945   5.597   0.245 -0.3410 -0.3331 -0.3055
11281TIP3    H155258   4.986   5.607   0.331 -0.4668  0.0940 -0.2960
11281TIP3    H255259   4.905   5.682   0.227 -1.1699 -0.7296 -0.3511
11282TIP3   OH255260   6.178   0.600   1.674 -0.6336  0.1697 -0.1206
11282TIP3    H155261   6.238   0.549   1.728 -1.8459 -1.3445 -0.1646
11282TIP3    H255262   6.175   0.686   1.715  1.5705  0.2770 -0.1401
11283TIP3   OH255263   6.468   0.859   2.184 -0.1595 -0.3150 -0.2797
11283TIP3    H155264   6.385   0.854   2.137 -0.6032  1.8150  0.1911
11283TIP3    H255265   6.465   0.788   2.247 -1.4451 -0.5230 -0.5641
11284TIP3   OH255266   6.289   0.264  12.976  0.4259  0.3743 -0.0663
11284TIP3    H155267   6.263   0.185  13.024  0.4517 -0.9490 -2.1540
11284TIP3    H255268   6.211   0.290  12.927  1.0553  0.3124 -1.1298
11285TIP3   OH255269   3.688   4.659  12.167 -0.4507 -0.1741  0.2206
11285TIP3    H155270   3.731   4.706  12.238 -0.1751  0.2242 -0.2079
11285TIP3    H255271   3.760   4.619  12.118 -0.6861 -1.1669  0.6648
11286TIP3   OH255272   0.964   3.921  14.264  0.1757 -0.4762  0.2551
11286TIP3    H155273   1.030   3.979  14.226  1.4145 -1.7954  0.3563
11286TIP3    H255274   0.999   3.898  14.350 -1.2597  0.1939  1.0494
11287TIP3   OH255275   1.858   4.863  12.155 -0.1258  0.7420  0.0069
11287TIP3    H155276   1.766   4.882  12.137  0.5122  1.5822 -2.6289
11287TIP3    H255277   1.889   4.819  12.076  1.2661 -1.3657  1.6561
11288TIP3   OH255278   1.854   1.454   5.264 -0.8758  0.2326 -0.1855
11288TIP3    H155279   1.940   1.446   5.304 -1.1379 -0.0203  0.3358
11288TIP3    H255280   1.869   1.437   5.171 -0.4650 -0.4312 -0.0017
11289TIP3   OH255281   0.326   2.393  16.399 -0.0690 -0.0578  0.6464
11289TIP3    H155282   0.399   2.342  16.434  0.9831 -1.0594 -2.8054
11289TIP3    H255283   0.250   2.337  16.409  0.7721 -1.6324 -1.4412
11290TIP3   OH255284   1.746   5.719  13.428 -0.1822 -0.6269 -0.7154
11290TIP3    H155285   1.819   5.705  13.488 -0.7079 -0.0169  0.0821
11290TIP3    H255286   1.721   5.631  13.399  0.9831 -0.8277 -1.1462
11291TIP3   OH255287   3.509   4.849  11.361  0.3060 -0.0760  0.4756
11291TIP3    H155288   3.496   4.856  11.455 -0.5341 -0.2353  0.3782
11291TIP3    H255289   3.586   4.795  11.351  1.3687  1.2843  1.0983
11292TIP3   OH255290   2.976   5.604  14.230 -0.2089  0.3496 -0.2388
11292TIP3    H155291   2.888   5.638  14.243 -0.8840 -1.1793 -0.7493
11292TIP3    H255292   3.015   5.662  14.164 -1.3879  0.0563 -1.2093
11293TIP3   OH255293   1.416   3.734  14.342  0.4511 -0.0859 -0.2670
11293TIP3    H155294   1.473   3.701  14.411  3.0551  1.1323 -1.7545
11293TIP3    H255295   1.385   3.819  14.375 -0.6840 -0.8438  0.6307
11294TIP3   OH255296   2.124   5.262   4.614 -0.2442  0.5545  0.1788
11294TIP3    H155297   2.049   5.297   4.565 -2.7370 -1.6389  2.2699
11294TIP3    H255298   2.126   5.169   4.591  1.4944  0.4624  0.6311
11295TIP3   OH255299   5.327   3.154  13.478 -0.5412  0.0195 -0.5869
11295TIP3    H155300   5.420   3.131  13.477 -0.8708 -1.5141  1.1167
11295TIP3    H255301   5.301   3.150  13.386  0.8608 -0.4852 -0.9873
11296TIP3   OH255302   4.679   3.821  13.116 -0.2612 -0.4575 -0.1406
11296TIP3    H155303   4.738   3.747  13.129  1.6141  1.0878  0.2474
11296TIP3    H255304   4.622   3.793  13.044  0.8387 -2.0220 -0.4224
11297TIP3   OH255305   2.643   0.510  15.222 -0.0979  0.7141  0.8145
11297TIP3    H155306   2.683   0.586  15.180  2.5152 -1.5190 -0.9964
11297TIP3    H255307   2.717   0.452  15.242 -2.1623 -2.5156 -0.3884
11298TIP3   OH255308   5.411   3.056   4.921  0.4460  0.0037  0.4404
11298TIP3    H155309   5.373   2.969   4.936  0.4296 -0.1298 -0.3708
11298TIP3    H255310   5.492   3.039   4.874  0.4214  0.4338  0.2433
11299TIP3   OH255311   0.666   1.227   2.832 -0.2364  0.3491 -0.2449
11299TIP3    H155312   0.659   1.315   2.871 -1.2877 -0.6716  1.9532
11299TIP3    H255313   0.589   1.180   2.866 -0.0125 -1.2488 -1.8837
11300TIP3   OH255314   6.565   5.015  10.810  0.4002  0.5619 -0.3141
11300TIP3    H155315   6.610   5.032  10.728 -0.1022  1.4907 -0.4015
11300TIP3    H255316   6.577   5.095  10.862  1.5778 -0.3885  0.9186
11301TIP3   OH255317   5.277   4.933  11.934  0.3356 -0.0920 -0.2436
11301TIP3    H155318   5.243   5.011  11.892 -0.6952 -0.2635  0.2556
11301TIP3    H255319   5.294   4.872  11.862  1.4486  0.6865 -0.6635
11302TIP3   OH255320   0.831   5.238  15.331  0.5386  0.1764 -0.0458
11302TIP3    H155321   0.886   5.289  15.390 -0.4555  1.0245  0.1626
11302TIP3    H255322   0.756   5.212  15.384 -0.0255  0.3616 -0.7410
11303TIP3   OH255323   4.511   4.273   6.573 -0.4070  0.1941  0.2900
11303TIP3    H155324   4.479   4.278   6.663  0.4306 -1.5597  0.7098
11303TIP3    H255325   4.577   4.204   6.576 -0.0848  0.4177 -1.5920
11304TIP3   OH255326   5.330   1.662   1.149  0.2966 -0.2168 -0.0342
11304TIP3    H155327   5.411   1.704   1.120  1.2245 -0.1010  2.5933
11304TIP3    H255328   5.262   1.701   1.094  1.8884  0.3616 -1.6411
11305TIP3   OH255329   2.653   2.021  15.704  0.6957  0.1275 -0.0826
11305TIP3    H155330   2.658   1.929  15.730 -2.4069 -1.0744 -3.2379
11305TIP3    H255331   2.734   2.037  15.657  0.8710 -1.2644 -0.2843
11306TIP3   OH255332   2.494   1.689  15.436  0.3260 -0.3046  0.2404
11306TIP3    H155333   2.552   1.765  15.443  0.9709 -0.7591 -0.0629
11306TIP3    H255334   2.496   1.649  15.523  0.0581 -0.0320  0.3751
11307TIP3   OH255335   2.363   5.664  12.748  0.8687  0.0670 -0.4581
11307TIP3    H155336   2.296   5.683  12.683  1.5230 -0.4803 -1.3089
11307TIP3    H255337   2.318   5.671  12.832  0.4423  2.5620 -0.8688
11308TIP3   OH255338   5.441   1.336  12.137  0.4221 -0.1880 -0.5294
11308TIP3    H155339   5.450   1.242  12.152 -2.4833 -0.2723  0.9950
11308TIP3    H255340   5.348   1.354  12.148  1.0493  3.0640  0.1620
11309TIP3   OH255341   0.510   4.498   4.539 -0.0202  0.0592  0.1836
11309TIP3    H155342   0.517   4.586   4.576 -0.5633  0.0448  0.3356
11309TIP3    H255343   0.460   4.510   4.459 -1.7444 -0.3566  1.1640
11310TIP3   OH255344   1.615   6.777   0.217 -0.7987 -0.0693 -0.0646
11310TIP3    H155345   1.698   6.820   0.198 -0.5446 -0.6531 -0.2839
11310TIP3    H255346   1.624   6.689   0.179 -0.7954 -0.7930  1.5363
11311TIP3   OH255347   6.782   4.430   0.629  0.5536  0.6168 -0.5450
11311TIP3    H155348   6.830   4.392   0.703  0.3372  1.0634 -0.1769
11311TIP3    H255349   6.842   4.421   0.554  0.7378  0.0881 -0.3356
11312TIP3   OH255350   4.350   1.561  12.804 -0.0191 -0.0757  0.3098
11312TIP3    H155351   4.322   1.497  12.739  0.2225 -0.4143  0.5361
11312TIP3    H255352   4.442   1.540  12.820 -0.9881 -2.2158  3.3366
11313TIP3   OH255353   1.090   2.387  11.135  0.2578  0.0474 -0.1435
11313TIP3    H155354   1.034   2.428  11.201 -0.6095 -0.6901 -0.4271
11313TIP3    H255355   1.172   2.368  11.182  0.0298  0.4897  0.4386
11314TIP3   OH255356   5.030   1.050  12.435 -0.3391 -0.0049  0.2864
11314TIP3    H155357   5.014   0.982  12.500  0.1921 -1.1978 -0.8115
11314TIP3    H255358   4.976   1.025  12.360 -0.4936  1.0313  0.0395
11315TIP3   OH255359   1.384   5.724   3.156  0.2635  0.2154 -0.2061
11315TIP3    H155360   1.348   5.701   3.070  0.2364  0.2999 -0.2166
11315TIP3    H255361   1.315   5.773   3.199 -0.5003 -1.5494  0.6396
11316TIP3   OH255362   2.526   2.282  17.197  0.4843  0.3293  0.0450
11316TIP3    H155363   2.503   2.366  17.156  2.2949  1.0083  0.3652
11316TIP3    H255364   2.492   2.216  17.137 -0.6530  1.2889 -0.3917
11317TIP3   OH255365   0.554   3.050  17.127  0.8279 -0.6448 -0.4064
11317TIP3    H155366   0.497   3.127  17.115  0.7331 -0.4459  1.2579
11317TIP3    H255367   0.518   3.005  17.203  0.6068 -2.6146 -1.6584
11318TIP3   OH255368   0.457   2.953  14.604 -0.1561 -0.2961  0.2954
11318TIP3    H155369   0.377   3.006  14.596 -1.0385 -1.7517 -0.8379
11318TIP3    H255370   0.509   2.999  14.670 -2.2289  0.3315  1.5858
11319TIP3   OH255371   2.689   1.340  15.842 -0.1296 -0.6593 -0.3188
11319TIP3    H155372   2.770   1.289  15.841 -0.4431 -1.2014  0.6807
11319TIP3    H255373   2.712   1.418  15.893 -0.0647 -0.5263 -0.5540
11320TIP3   OH255374   1.669   4.596  11.020  0.0690 -0.1244 -0.2862
11320TIP3    H155375   1.743   4.558  10.972  0.6413  1.3587 -0.5919
11320TIP3    H255376   1.613   4.633  10.951 -0.7121 -0.7798 -0.0196
11321TIP3   OH255377   4.099   6.675  14.508 -0.0513 -0.2243  0.3990
11321TIP3    H155378   4.034   6.717  14.452 -0.7749 -1.9434 -0.0738
11321TIP3    H255379   4.070   6.695  14.597  0.8042  2.0578  0.2033
11322TIP3   OH255380   5.377   6.468   3.581  0.1672  0.2915  0.2988
11322TIP3    H155381   5.419   6.487   3.497 -0.6010  1.0367  0.0823
11322TIP3    H255382   5.442   6.494   3.646  0.5616  0.1997 -0.0530
11323TIP3   OH255383   4.460   5.105  12.930  0.0252  0.3198 -0.3496
11323TIP3    H155384   4.542   5.070  12.894  0.0510 -0.7485  0.7018
11323TIP3    H255385   4.486   5.187  12.974  0.4383  0.2542 -0.4742
11324TIP3   OH255386   0.764   4.284   4.780  0.1068  0.1463 -0.4758
11324TIP3    H155387   0.741   4.274   4.688  0.0300  0.7583 -0.5248
11324TIP3    H255388   0.702   4.229   4.827  0.1073 -0.1193 -0.7815
11325TIP3   OH255389   5.472   1.483  12.805 -0.1477 -0.7031  0.1046
11325TIP3    H155390   5.448   1.393  12.825 -0.4131 -0.3320  1.5064
11325TIP3    H255391   5.445   1.533  12.882 -0.3009  0.6250 -0.7882
11326TIP3   OH255392   5.848   0.479   4.957  0.0091 -0.0190 -0.5655
11326TIP3    H155393   5.942   0.459   4.959  0.2267  1.0117  0.4213
11326TIP3    H255394   5.836   0.533   4.880  0.2251 -0.1782 -0.7098
11327TIP3   OH255395   2.369   0.337  12.710  0.0159 -0.0613 -0.1699
11327TIP3    H155396   2.368   0.290  12.626  1.9131  0.0476 -0.2779
11327TIP3    H255397   2.383   0.268  12.775 -0.0325  0.0237 -0.0715
11328TIP3   OH255398   5.954   5.215  12.402 -0.2241 -0.1508 -0.1711
11328TIP3    H155399   5.939   5.123  12.422  0.1649 -0.2058 -0.1258
11328TIP3    H255400   6.020   5.243  12.466 -0.0426  0.0505 -0.4458
11329TIP3   OH255401   6.622   4.808   4.161 -0.7596 -0.3980  0.1705
11329TIP3    H155402   6.625   4.845   4.249 -0.0056  0.3938 -0.1810
11329TIP3    H255403   6.696   4.849   4.115 -2.9646  1.5523 -1.7478
11330TIP3   OH255404   5.087   0.924   5.900  0.1613  0.1803 -0.4283
11330TIP3    H155405   5.030   0.991   5.939  1.2577  1.8409 -1.6149
11330TIP3    H255406   5.133   0.886   5.974 -1.6774 -0.4123  0.4307
11331TIP3   OH255407   4.847   5.761  16.278 -0.0375 -0.2606 -0.4480
11331TIP3    H155408   4.755   5.784  16.295  0.0612  0.1813 -0.5250
11331TIP3    H255409   4.845   5.666  16.263 -0.4483 -0.2909 -0.2179
11332TIP3   OH255410   5.498   2.208  11.119 -0.2284 -0.1095 -0.7240
11332TIP3    H155411   5.438   2.281  11.134 -0.2299 -0.0965 -0.7871
11332TIP3    H255412   5.544   2.233  11.038 -0.9005 -0.6171 -1.2752
11333TIP3   OH255413   4.956   3.654   4.977 -0.1528  0.7002  0.0950
11333TIP3    H155414   5.040   3.690   5.007 -0.8652  2.1722  0.3654
11333TIP3    H255415   4.892   3.689   5.039 -0.9963 -0.2358 -0.2451
11334TIP3   OH255416   5.989   6.473   4.201 -0.2235 -0.2691  0.5259
11334TIP3    H155417   5.918   6.436   4.148 -0.7271  0.1556  0.9081
11334TIP3    H255418   6.062   6.412   4.187 -0.6105 -0.6283  0.0171
11335TIP3   OH255419   5.603   2.844   5.835 -0.8587 -0.0104 -0.1997
11335TIP3    H155420   5.545   2.877   5.904 -0.6987  1.5485 -0.7905
11335TIP3    H255421   5.561   2.763   5.806 -1.8871  0.2653  0.4815
11336TIP3   OH255422   0.431   4.574  15.398 -0.2796  0.1961  0.3619
11336TIP3    H155423   0.341   4.542  15.398 -0.0023 -0.5996  0.6138
11336TIP3    H255424   0.444   4.609  15.309 -0.4505 -0.8052 -0.0698
11337TIP3   OH255425   2.285   1.655   5.303 -0.4368 -0.4550  0.7153
11337TIP3    H155426   2.319   1.579   5.255 -2.0228 -1.2357  0.7883
11337TIP3    H255427   2.216   1.619   5.358 -0.5675  0.9080  1.4632
11338TIP3   OH255428   1.524   2.886  15.652  0.0328  0.1065 -0.4453
11338TIP3    H155429   1.568   2.913  15.572  1.6092  1.9107  0.9960
11338TIP3    H255430   1.576   2.813  15.686 -0.4185 -0.4031 -0.8180
11339TIP3   OH255431   1.570   5.535   4.500 -0.1344 -0.2754  0.3475
11339TIP3    H155432   1.531   5.621   4.484 -0.0745 -0.4651 -0.8650
11339TIP3    H255433   1.503   5.472   4.475  0.1021 -0.5922  0.4969
11340TIP3   OH255434   1.869   1.349   1.931 -0.0973  0.5136  0.1246
11340TIP3    H155435   1.954   1.358   1.973  0.4856 -0.1921 -0.8747
11340TIP3    H255436   1.845   1.438   1.907 -0.1091  0.8355  1.3051
11341TIP3   OH255437   2.277   6.556   0.045 -0.0895  0.0123  0.0426
11341TIP3    H155438   2.272   6.594  -0.043 -0.3228  0.0361  0.0662
11341TIP3    H255439   2.289   6.631   0.103 -1.4109  0.1466  0.1677
11342TIP3   OH255440   3.804   6.237  11.462 -0.1820 -0.8014  0.0874
11342TIP3    H155441   3.786   6.317  11.512 -0.2074 -0.2914 -0.7268
11342TIP3    H255442   3.720   6.217  11.419  0.7319  0.7388 -2.5312
11343TIP3   OH255443   5.386   6.202   2.241  0.2779  0.0136 -0.2351
11343TIP3    H155444   5.308   6.196   2.185 -0.9395 -1.2178  1.5325
11343TIP3    H255445   5.390   6.294   2.266  0.0994  0.3211 -1.2925
11344TIP3   OH255446   0.900   1.982   1.842 -0.2176 -0.5205 -0.1612
11344TIP3    H155447   0.918   1.895   1.805  1.2306 -0.9636  1.4971
11344TIP3    H255448   0.817   1.971   1.889  0.4303 -1.3031  0.8442
11345TIP3   OH255449   2.831   3.440   0.852 -0.0938 -0.1330 -0.5408
11345TIP3    H155450   2.914   3.483   0.835 -1.2200  1.2098 -2.8935
11345TIP3    H255451   2.844   3.350   0.822  0.5678 -0.0027 -0.6473
11346TIP3   OH255452   6.287   1.021  15.654  0.2815  0.1436 -0.7095
11346TIP3    H155453   6.266   1.107  15.618 -0.9950 -0.4879 -1.4946
11346TIP3    H255454   6.245   0.959  15.595  0.6995 -1.0089  0.1789
11347TIP3   OH255455   3.104   6.200   5.407  0.4967  0.0160  0.0200
11347TIP3    H155456   3.028   6.177   5.354  0.0569 -1.9654  1.4473
11347TIP3    H255457   3.070   6.205   5.496  1.7848  0.4193  0.5020
11348TIP3   OH255458   0.359   4.644   0.430 -0.5063  0.4629  0.7534
11348TIP3    H155459   0.283   4.697   0.452 -0.6895  0.5609 -0.0993
11348TIP3    H255460   0.425   4.667   0.495 -1.0374  0.7438  1.1907
11349TIP3   OH255461   2.895   1.883   1.697  0.0174 -0.6626 -0.4192
11349TIP3    H155462   2.843   1.853   1.771  2.3057  1.4061  2.1031
11349TIP3    H255463   2.833   1.934   1.644 -1.2672 -0.8899  0.8283
11350TIP3   OH255464   5.273   5.998   0.035 -0.2465 -0.5694 -0.1811
11350TIP3    H155465   5.252   5.906   0.052 -2.2882 -0.0553  0.1569
11350TIP3    H255466   5.205   6.047   0.081  1.4696  1.1595  0.5972
11351TIP3   OH255467   1.820   5.191   5.069  0.5405  0.0191  0.0802
11351TIP3    H155468   1.874   5.207   4.991  1.7762 -0.3879  0.8421
11351TIP3    H255469   1.748   5.137   5.036  0.5666  0.5789 -0.9499
11352TIP3   OH255470   5.158   1.256  16.872  0.0794  0.3766  0.1251
11352TIP3    H155471   5.152   1.305  16.954  1.4042  0.9101 -0.0951
11352TIP3    H255472   5.215   1.182  16.892  0.0091  0.2357 -0.1909
11353TIP3   OH255473   4.295   1.056  16.879 -0.4362  0.2438  0.3869
11353TIP3    H155474   4.346   1.123  16.835  0.2893 -0.4859  0.1114
11353TIP3    H255475   4.340   1.043  16.963 -0.1217 -0.4493  0.1143
11354TIP3   OH255476   5.753   1.619  13.046  0.3403  0.4631  0.4213
11354TIP3    H155477   5.768   1.681  12.975  2.3461  1.4263  1.6161
11354TIP3    H255478   5.767   1.671  13.126 -2.2906 -0.4710  1.5503
11355TIP3   OH255479   0.077   4.436   5.040 -0.4823 -0.0170 -0.2342
11355TIP3    H155480   0.011   4.409   5.105 -1.4656  0.9844 -0.8096
11355TIP3    H255481   0.103   4.354   4.997 -0.3100 -0.6018  0.9611
11356TIP3   OH255482   3.284   3.143  13.824  0.0257 -0.2161  0.3335
11356TIP3    H155483   3.318   3.126  13.912  0.0147  0.3797  0.4526
11356TIP3    H255484   3.335   3.084  13.767  0.8371  0.2386  0.5861
11357TIP3   OH255485   3.631   5.550  15.601 -0.0737 -0.0754 -0.2150
11357TIP3    H155486   3.614   5.608  15.675  0.8769 -2.2626  1.7563
11357TIP3    H255487   3.550   5.500  15.591  0.4874 -1.1780  0.6529
11358TIP3   OH255488   6.770   5.499  17.162  0.0326 -0.0018  0.4103
11358TIP3    H155489   6.778   5.404  17.173 -1.4355 -0.0236  1.3899
11358TIP3    H255490   6.858   5.532  17.181  0.2393 -1.0520  1.3533
11359TIP3   OH255491   1.959   6.535   1.179  0.0114 -0.5245 -0.0525
11359TIP3    H155492   1.982   6.546   1.271  0.7779 -1.2690 -0.1520
11359TIP3    H255493   1.875   6.490   1.180 -0.5093  0.4497  0.2932
11360TIP3   OH255494   5.288   3.642  14.068  0.4098 -0.4378  0.1163
11360TIP3    H155495   5.336   3.710  14.115 -0.4722  0.5185 -0.3351
11360TIP3    H255496   5.262   3.579  14.136  1.4273 -0.4412  0.5033
11361TIP3   OH255497   4.168   3.656  16.853 -0.0148  0.0974 -0.2119
11361TIP3    H155498   4.161   3.723  16.785  2.2821 -1.0150 -1.6046
11361TIP3    H255499   4.094   3.597  16.836  0.6679 -0.2923 -1.9231
11362TIP3   OH255500   4.330   4.321  13.114 -0.0119  0.3594 -0.4966
11362TIP3    H155501   4.298   4.371  13.189 -1.1553 -1.0029 -0.0573
11362TIP3    H255502   4.419   4.294  13.140  0.0567  0.9203 -0.1463
11363TIP3   OH255503   5.420   2.637  12.148 -0.2204 -0.2923 -0.2559
11363TIP3    H155504   5.380   2.590  12.075  1.7132  0.9453 -2.1788
11363TIP3    H255505   5.383   2.725  12.143  0.3194 -0.0533 -0.1102
11364TIP3   OH255506   3.173   0.419   2.382  0.6087 -0.3294  0.0504
11364TIP3    H155507   3.177   0.335   2.336  0.5656  0.8037 -2.1210
11364TIP3    H255508   3.252   0.465   2.354  0.2167  0.6612  0.5569
11365TIP3   OH255509   2.375   0.442   1.543  0.1222  0.2499  0.6541
11365TIP3    H155510   2.347   0.518   1.594  0.6763 -0.5737  2.2415
11365TIP3    H255511   2.465   0.462   1.517 -0.2600  0.7955 -0.2599
11366TIP3   OH255512   1.050   2.947  11.139  0.2874 -0.2780  0.3007
11366TIP3    H155513   1.062   2.937  11.233  1.1021 -1.1704  0.1125
11366TIP3    H255514   1.002   2.869  11.112 -0.2193  0.1250  0.0246
11367TIP3   OH255515   0.823   5.529  16.242  0.4434  0.1890 -0.1953
11367TIP3    H155516   0.795   5.440  16.260  0.8197 -0.0015 -0.5321
11367TIP3    H255517   0.919   5.524  16.241  0.4972  0.8625  1.1143
11368TIP3   OH255518   5.819   0.970  17.085 -0.1719  0.3528  0.3830
11368TIP3    H155519   5.802   1.028  17.011 -2.8171 -1.8515 -0.8263
11368TIP3    H255520   5.783   1.017  17.161 -3.5754 -0.2317 -0.7875
11369TIP3   OH255521   5.406   4.829   5.648 -0.6200  0.0131  0.9568
11369TIP3    H155522   5.450   4.881   5.580 -0.2277  0.0959  1.2736
11369TIP3    H255523   5.459   4.749   5.655 -0.9764 -0.2399  0.7769
11370TIP3   OH255524   4.602   0.856   2.120 -0.4176 -0.0946  0.2952
11370TIP3    H155525   4.596   0.770   2.161  2.1808 -0.4626  0.0101
11370TIP3    H255526   4.640   0.839   2.034 -1.0150  1.2259 -0.2456
11371TIP3   OH255527   5.368   0.124  16.364  0.0869  0.8345 -0.5591
11371TIP3    H155528   5.443   0.185  16.360 -0.3144  1.4826  1.2939
11371TIP3    H255529   5.347   0.107  16.272  2.7736  0.3026 -1.1419
11372TIP3   OH255530   2.054   1.480  11.176  0.1613  0.4247  0.2631
11372TIP3    H155531   2.101   1.427  11.113  0.2868  1.1610 -0.2653
11372TIP3    H255532   1.966   1.440  11.180  0.4411 -0.1917  0.3336
11373TIP3   OH255533   6.350   5.527   0.810  0.3140 -0.0613 -0.7123
11373TIP3    H155534   6.372   5.584   0.736  0.2357  1.4528  0.3890
11373TIP3    H255535   6.279   5.573   0.854  1.1293 -0.3660  0.9563
11374TIP3   OH255536   2.583   2.048  11.040  0.1717  0.5708 -0.2051
11374TIP3    H155537   2.592   2.108  10.965  1.2568 -0.8344 -1.2108
11374TIP3    H255538   2.670   2.044  11.079  0.3858 -1.2654 -0.8492
11375TIP3   OH255539   2.589   1.417   5.671  0.2291  0.2473 -0.2363
11375TIP3    H155540   2.520   1.456   5.618 -0.3695 -0.5633 -0.0555
11375TIP3    H255541   2.587   1.467   5.753  0.2756  0.6252 -0.4633
11376TIP3   OH255542   0.649   5.598   4.281  0.2933  0.4627  0.4474
11376TIP3    H155543   0.673   5.672   4.337  2.3047  0.4301 -0.3021
11376TIP3    H255544   0.733   5.563   4.251 -0.7085 -0.2598 -1.6225
11377TIP3   OH255545   6.341   1.703  12.444 -0.3077 -0.7297 -0.6461
11377TIP3    H155546   6.259   1.684  12.399 -0.6460  0.3059 -0.4817
11377TIP3    H255547   6.316   1.740  12.528  0.3058  0.3878 -0.9330
11378TIP3   OH255548   6.061   1.749   0.279  0.0310  0.0496 -0.0604
11378TIP3    H155549   5.997   1.709   0.337  0.8093  0.4287  1.0868
11378TIP3    H255550   6.014   1.764   0.197 -1.0900 -0.4680  0.4852
11379TIP3   OH255551   1.441   6.269   2.747 -0.5010 -0.5154  0.1458
11379TIP3    H155552   1.414   6.305   2.832 -0.6553  0.1417 -0.1769
11379TIP3    H255553   1.496   6.337   2.708  0.5511 -1.3130  0.2303
11380TIP3   OH255554   5.425   2.370  15.051  0.0888  0.2161 -0.3605
11380TIP3    H155555   5.407   2.306  15.120 -0.2321  1.3851  0.6539
11380TIP3    H255556   5.481   2.323  14.989 -0.7003 -1.2581  0.0236
11381TIP3   OH255557   2.477   6.359   5.456  0.6619 -0.1325 -0.3723
11381TIP3    H155558   2.419   6.388   5.526 -0.5989 -0.8894 -1.0827
11381TIP3    H255559   2.514   6.440   5.420  0.8290  0.2922  0.7461
11382TIP3   OH255560   2.622   6.390  15.380 -0.2929 -0.0024 -0.1301
11382TIP3    H155561   2.529   6.367  15.383 -0.2593 -0.2296 -0.7573
11382TIP3    H255562   2.651   6.364  15.293  0.4274 -0.1762  0.1538
11383TIP3   OH255563   5.388   5.248   0.466  0.0915  0.0383 -0.0981
11383TIP3    H155564   5.394   5.161   0.507 -0.3845 -0.2526 -0.6346
11383TIP3    H255565   5.446   5.242   0.390  0.1882  0.2439 -0.0386
11384TIP3   OH255566   2.170   4.018   2.077  0.7221 -0.3023  0.2235
11384TIP3    H155567   2.185   3.945   2.017 -3.0959 -0.5200 -0.6370
11384TIP3    H255568   2.173   4.096   2.021  0.9784 -0.1649  0.4323
11385TIP3   OH255569   5.164   1.600   2.979 -0.3527  0.4034  0.0043
11385TIP3    H155570   5.102   1.528   2.986  0.7586 -0.5436  0.3724
11385TIP3    H255571   5.111   1.679   2.989 -1.8303 -0.2792 -2.0053
11386TIP3   OH255572   0.243   3.551  10.829 -0.3227 -0.5367 -0.3916
11386TIP3    H155573   0.217   3.461  10.808 -2.2436  0.1255 -0.9499
11386TIP3    H255574   0.187   3.606  10.774  1.5368  0.9998 -0.8278
11387TIP3   OH255575   1.888   3.691  11.235 -0.5914 -0.0536 -0.0398
11387TIP3    H155576   1.810   3.708  11.183 -0.6629  0.0897  0.1147
11387TIP3    H255577   1.889   3.597  11.248 -0.6540 -0.0726 -0.1726
11388TIP3   OH255578   3.743   3.296  15.464 -0.2313  0.3459 -0.0341
11388TIP3    H155579   3.655   3.333  15.451 -0.7121 -0.9575 -0.6139
11388TIP3    H255580   3.728   3.216  15.513  0.7317  0.5576  0.6066
11389TIP3   OH255581   3.499   4.701   2.471  0.6908 -0.3454 -0.0773
11389TIP3    H155582   3.419   4.718   2.521  1.0269  1.5715 -0.1589
11389TIP3    H255583   3.484   4.743   2.386  0.5510 -2.6627 -1.2319
11390TIP3   OH255584   4.843   6.420  15.502 -0.4868 -0.0745  0.2712
11390TIP3    H155585   4.895   6.480  15.556 -1.2481 -0.1139  1.0685
11390TIP3    H255586   4.778   6.384  15.563 -1.0224 -0.5229 -0.5591
11391TIP3   OH255587   4.671   3.472   6.157 -0.6159  0.0162 -0.2173
11391TIP3    H155588   4.758   3.434   6.147 -0.8994 -0.8225  0.4928
11391TIP3    H255589   4.611   3.398   6.148 -1.2388  0.5327 -0.3322
11392TIP3   OH255590   5.373   0.225  12.833 -0.4979  0.0876  0.1553
11392TIP3    H155591   5.386   0.289  12.763 -0.2585  0.3929  0.4794
11392TIP3    H255592   5.461   0.198  12.859 -0.5803  0.0770  0.4312
11393TIP3   OH255593   5.498   2.176  16.868  0.2302  0.1722 -0.2264
11393TIP3    H155594   5.468   2.267  16.864  0.5063  0.3168  0.9151
11393TIP3    H255595   5.569   2.171  16.803 -1.0450  0.2802 -1.6447
11394TIP3   OH255596   2.812   1.932   3.402  0.2881  0.0822 -0.0173
11394TIP3    H155597   2.817   1.962   3.312 -0.4593  0.8180  0.1794
11394TIP3    H255598   2.724   1.894   3.410  0.6230 -0.6752  0.1941
11395TIP3   OH255599   6.292   5.928  15.884  0.6477  0.0595  0.6885
11395TIP3    H155600   6.229   5.954  15.817  1.5819 -0.6408 -0.4850
11395TIP3    H255601   6.327   5.845  15.853  2.4848  0.6723  1.0647
11396TIP3   OH255602   3.020   3.110   2.484  0.2703  0.6645 -0.1994
11396TIP3    H155603   2.993   3.141   2.570  0.4663  1.0099 -0.2622
11396TIP3    H255604   2.966   3.032   2.468  0.0137  0.7839  0.0987
11397TIP3   OH255605   0.865   0.622  17.193 -0.0243 -0.4527  0.0623
11397TIP3    H155606   0.907   0.707  17.201 -1.0601  0.1209 -0.5560
11397TIP3    H255607   0.804   0.618  17.267  0.4714 -0.9155  0.4481
11398TIP3   OH255608   2.285   5.600   1.488 -0.0396  0.3434 -0.3900
11398TIP3    H155609   2.340   5.584   1.411  1.7011  2.2060  0.4354
11398TIP3    H255610   2.346   5.629   1.556 -1.7465  0.1713  1.2526
11399TIP3   OH255611   1.010   3.817   0.124  0.6595 -0.1354 -0.1423
11399TIP3    H155612   1.063   3.743   0.154 -0.2527 -0.8635 -0.3109
11399TIP3    H255613   0.930   3.777   0.090  0.4207  0.8857 -0.8064
11400TIP3   OH255614   4.477   4.545  16.342 -0.6846  0.0202  0.3306
11400TIP3    H155615   4.418   4.489  16.291  1.0167 -1.7017  0.1895
11400TIP3    H255616   4.508   4.489  16.412  0.9390  0.8341  0.2894
11401TIP3   OH255617   6.619   1.096   1.691  0.6287  0.1143 -0.3755
11401TIP3    H155618   6.692   1.045   1.727  0.5406 -0.2671 -0.7360
11401TIP3    H255619   6.599   1.161   1.759  0.2140 -0.8420  0.4252
11402TIP3   OH255620   4.501   2.772   4.529 -0.5533  0.5471 -0.1956
11402TIP3    H155621   4.536   2.816   4.606  0.2269  1.0167 -0.8150
11402TIP3    H255622   4.478   2.843   4.469  0.3042  0.1302 -1.0278
11403TIP3   OH255623   4.844   1.887   3.483 -0.2837  0.4209 -0.1036
11403TIP3    H155624   4.792   1.968   3.479 -1.2785 -0.1354  1.2874
11403TIP3    H255625   4.789   1.826   3.532  0.4537 -1.1205 -1.1879
11404TIP3   OH255626   5.047   3.190  12.541  0.2703  0.6936  0.6669
11404TIP3    H155627   5.065   3.273  12.498 -1.0411  0.6712  0.0452
11404TIP3    H255628   4.957   3.199  12.573  1.2369  0.7415  3.4751
11405TIP3   OH255629   4.911   6.624  13.990 -0.3573  0.1415  0.4284
11405TIP3    H155630   4.940   6.707  14.028  0.6738  0.3061 -0.6847
11405TIP3    H255631   4.947   6.624  13.901  0.1352 -1.7420  0.5908
11406TIP3   OH255632   3.743   5.074  15.761 -0.1801 -0.1177 -0.1621
11406TIP3    H155633   3.753   5.011  15.689 -1.0710 -0.8893  0.3779
11406TIP3    H255634   3.816   5.055  15.820 -0.3050 -0.4856 -0.1239
11407TIP3   OH255635   4.276   0.386  11.430 -0.1420 -0.1282  0.4223
11407TIP3    H155636   4.358   0.381  11.478  0.5017 -0.3242 -0.6685
11407TIP3    H255637   4.302   0.393  11.338 -1.3461 -2.0997 -0.1101
11408TIP3   OH255638   0.392   4.811   1.592  0.0843  0.3044 -0.5779
11408TIP3    H155639   0.475   4.775   1.562  0.2334  0.7046 -0.6539
11408TIP3    H255640   0.397   4.904   1.569 -0.2318  0.4018 -0.2575
11409TIP3   OH255641   6.760   3.463   6.148  0.1904  0.3663  0.2653
11409TIP3    H155642   6.667   3.440   6.150  0.4707 -0.7763  4.6661
11409TIP3    H255643   6.763   3.556   6.171  0.2137 -0.2283  2.8485
11410TIP3   OH255644   3.051   3.211  15.985 -0.2716  0.0645 -0.1247
11410TIP3    H155645   3.075   3.192  15.894 -0.0340 -1.8533  0.3001
11410TIP3    H255646   3.024   3.302  15.985  0.4010  0.2795 -1.9882
11411TIP3   OH255647   3.191   5.082   4.880 -0.5743  0.1241  0.2849
11411TIP3    H155648   3.154   5.166   4.853 -0.8413 -0.0453  0.1267
11411TIP3    H255649   3.117   5.031   4.910 -0.5714 -0.4608 -0.6823
11412TIP3   OH255650   6.130   1.962  10.950  0.3311 -0.5306  0.4024
11412TIP3    H155651   6.141   1.871  10.922 -2.6685 -0.6225 -0.6059
11412TIP3    H255652   6.146   2.014  10.871 -1.0023 -0.3725  0.2269
11413TIP3   OH255653   5.862   6.592  12.122 -0.0458 -0.7759  0.6788
11413TIP3    H155654   5.783   6.646  12.115 -0.2870 -1.3789 -1.4669
11413TIP3    H255655   5.912   6.633  12.193 -2.2359 -0.3503  2.0272
11414TIP3   OH255656   2.028   0.446   3.230  0.3037  0.3538  0.9707
11414TIP3    H155657   2.073   0.484   3.305  0.2189  0.6284  0.8811
11414TIP3    H255658   2.089   0.458   3.157  0.0072  0.8842  0.8129
11415TIP3   OH255659   4.674   4.281  16.894 -0.0961 -0.1571 -0.5809
11415TIP3    H155660   4.764   4.260  16.870 -0.8936 -0.7164 -3.2345
11415TIP3    H255661   4.659   4.367  16.857  0.0661  1.0151  1.9543
11416TIP3   OH255662   5.844   4.552   5.458 -0.1828  0.3245  0.0939
11416TIP3    H155663   5.786   4.627   5.476  0.3004  0.7439 -0.1034
11416TIP3    H255664   5.932   4.585   5.476  0.1369  0.1464 -1.1294
11417TIP3   OH255665   4.029   3.710  16.460  0.1653  0.3072  0.0699
11417TIP3    H155666   4.088   3.767  16.508  1.4123 -1.3678  0.5756
11417TIP3    H255667   3.949   3.707  16.513  0.3182  1.0779  0.3398
11418TIP3   OH255668   3.771   1.830  11.480 -0.7900 -0.1799 -0.2535
11418TIP3    H155669   3.720   1.895  11.432 -0.0071 -1.4595 -2.9495
11418TIP3    H255670   3.712   1.755  11.488  0.5226 -1.6361 -3.3136
11419TIP3   OH255671   4.581   4.008   4.896  0.3743 -0.1471 -0.1641
11419TIP3    H155672   4.585   4.100   4.922 -0.3376 -0.1085 -0.1661
11419TIP3    H255673   4.589   3.960   4.979 -0.0080 -0.0637 -0.0769
11420TIP3   OH255674   0.930   3.806   3.767 -0.5048 -0.3291  0.3052
11420TIP3    H155675   0.961   3.863   3.696 -0.2953  0.1213  0.7609
11420TIP3    H255676   1.007   3.792   3.822 -0.9251  0.1565  1.0152
11421TIP3   OH255677   4.254   3.838  13.806 -0.1562 -0.4509 -0.6870
11421TIP3    H155678   4.214   3.917  13.769  0.3427 -0.9272 -2.2805
11421TIP3    H255679   4.182   3.776  13.813 -0.2269 -0.4062 -1.0090
11422TIP3   OH255680   2.698   0.069   3.925  0.2494 -0.0111  0.3352
11422TIP3    H155681   2.652   0.085   3.842 -1.2807  0.4940  1.2665
11422TIP3    H255682   2.734  -0.020   3.915  0.6114  0.2807 -1.1046
11423TIP3   OH255683   6.386   4.680  11.752 -0.2873 -0.1127  0.1818
11423TIP3    H155684   6.341   4.640  11.678 -3.2436  1.0729  1.2926
11423TIP3    H255685   6.438   4.609  11.790  0.9284 -0.8369 -2.7033
11424TIP3   OH255686   2.761   4.269  15.195  0.2785  0.5528 -0.1864
11424TIP3    H155687   2.815   4.295  15.121 -0.1172 -1.5598 -1.2633
11424TIP3    H255688   2.760   4.173  15.191  1.0030  0.3358  3.0807
11425TIP3   OH255689   4.541   6.739   4.031 -0.0116  0.0781 -0.0906
11425TIP3    H155690   4.591   6.819   4.012  0.7930 -0.4312 -0.1600
11425TIP3    H255691   4.594   6.669   3.994 -0.7509 -0.4869 -0.0893
11426TIP3   OH255692   1.885   0.056   3.006  0.2012  0.7822 -0.1519
11426TIP3    H155693   1.968   0.017   2.977 -0.3941 -2.3958  2.1249
11426TIP3    H255694   1.829   0.052   2.928  1.7129  1.5762 -1.2947
11427TIP3   OH255695   2.441   5.166  11.230 -0.5669  0.2508 -0.1971
11427TIP3    H155696   2.456   5.089  11.175  1.0584 -1.3115  2.3172
11427TIP3    H255697   2.526   5.211  11.231 -0.1910 -0.4744  2.0857
11428TIP3   OH255698   6.587   2.840  14.049 -0.1375 -0.1202  0.0337
11428TIP3    H155699   6.561   2.930  14.072 -0.2725  0.0780 -0.8710
11428TIP3    H255700   6.596   2.796  14.134 -2.4858  0.0642  0.4248
11429TIP3   OH255701   0.848   1.741  13.719 -0.2881  0.2628  0.3070
11429TIP3    H155702   0.910   1.677  13.755 -0.5461  0.0103  0.3028
11429TIP3    H255703   0.771   1.690  13.696  0.4459  0.1399 -2.0575
11430TIP3   OH255704   5.015   3.771  16.455 -0.1585  0.1870  0.1222
11430TIP3    H155705   4.968   3.696  16.492 -0.8227  0.8040  0.5342
11430TIP3    H255706   5.059   3.736  16.378 -0.2749 -0.6826  0.4423
11431TIP3   OH255707   3.286   2.186   4.189 -0.3280 -0.0463  0.3725
11431TIP3    H155708   3.310   2.135   4.112 -2.2492 -1.3130  0.5873
11431TIP3    H255709   3.195   2.211   4.174 -0.0271  1.6119  1.2053
11432TIP3   OH255710   5.824   5.257  16.641  0.3015 -0.1692 -0.0455
11432TIP3    H155711   5.730   5.244  16.641  0.2229  0.3838  0.2034
11432TIP3    H255712   5.842   5.307  16.721  0.9280 -1.1406  0.4227
11433TIP3   OH255713   0.855   0.779   5.815  0.2412 -0.0072 -0.2658
11433TIP3    H155714   0.815   0.831   5.885  0.7878 -0.5354  0.4350
11433TIP3    H255715   0.868   0.692   5.854 -0.2471 -0.5479 -1.2903
11434TIP3   OH255716   1.586   1.842   6.309  0.6683 -0.2745  0.0772
11434TIP3    H155717   1.669   1.840   6.355 -0.1796 -0.1997  1.6641
11434TIP3    H255718   1.527   1.889   6.368  0.0277  1.5823 -1.9454
11435TIP3   OH255719   5.543   1.654   2.068  0.5420  0.2926 -0.0272
11435TIP3    H155720   5.609   1.722   2.052  0.2011  0.4686 -0.7336
11435TIP3    H255721   5.490   1.654   1.988 -0.5480  0.4209  0.6855
11436TIP3   OH255722   3.268   4.126  11.181  0.1128 -0.5062 -0.1730
11436TIP3    H155723   3.229   4.203  11.224 -0.7715 -0.6804 -0.6402
11436TIP3    H255724   3.316   4.163  11.107 -0.6184 -0.4209 -0.6140
11437TIP3   OH255725   1.456   0.507   1.734 -0.4226 -0.4294 -0.4549
11437TIP3    H155726   1.398   0.431   1.737 -0.0623 -0.6938 -0.0130
11437TIP3    H255727   1.403   0.576   1.696 -0.3870 -1.2310 -2.0142
11438TIP3   OH255728   5.072   1.244  12.060  0.1684  0.8100 -0.2950
11438TIP3    H155729   5.026   1.185  12.119 -1.2570  0.8782 -1.3233
11438TIP3    H255730   5.152   1.197  12.036 -0.2811 -0.1039 -0.0126
11439TIP3   OH255731   5.656   2.690   0.605  0.3432  0.0730 -0.1182
11439TIP3    H155732   5.590   2.692   0.535 -0.1804  0.4804  0.3821
11439TIP3    H255733   5.621   2.748   0.672  1.7729  1.2175 -0.3401
11440TIP3   OH255734   4.975   2.958  14.808  0.1391 -0.2747 -0.5997
11440TIP3    H155735   5.022   3.025  14.759 -0.1533 -0.1592 -0.7235
11440TIP3    H255736   5.030   2.880  14.800  1.5668  0.4746  1.3493
11441TIP3   OH255737   1.190   1.907   1.834 -0.0337  0.2942 -0.8550
11441TIP3    H155738   1.278   1.884   1.807  0.1973  1.3603 -1.0480
11441TIP3    H255739   1.133   1.847   1.785  0.6662 -1.9682  1.0298
11442TIP3   OH255740   6.463   3.112   0.926 -0.2510  0.2591  0.3048
11442TIP3    H155741   6.397   3.170   0.888 -0.9060 -0.1577  0.7987
11442TIP3    H255742   6.438   3.025   0.895  0.4667  0.1795 -0.0638
11443TIP3   OH255743   1.973   4.474   3.576 -0.2714 -0.3213 -0.3823
11443TIP3    H155744   1.940   4.563   3.571  1.7797  0.8013  4.0725
11443TIP3    H255745   2.056   4.476   3.528  1.4557  1.1325  2.5216
11444TIP3   OH255746   1.550   2.190   1.572 -0.5192  0.2420  0.1017
11444TIP3    H155747   1.510   2.249   1.636  0.3015  1.1215 -0.1940
11444TIP3    H255748   1.481   2.175   1.508 -0.3097  2.0157 -0.5816
11445TIP3   OH255749   2.043   2.478   1.791  0.5503 -0.2377 -0.0516
11445TIP3    H155750   2.001   2.397   1.763  1.2599 -0.2192 -1.1818
11445TIP3    H255751   2.063   2.525   1.710  2.2244  0.0167  0.4837
11446TIP3   OH255752   5.515   4.706  15.571 -0.4590  0.4790  0.3403
11446TIP3    H155753   5.479   4.710  15.659 -0.9873  1.8900  0.0694
11446TIP3    H255754   5.522   4.797  15.543  1.8354  0.1577 -0.2355
11447TIP3   OH255755   4.641   5.253  16.100 -0.6195 -0.0096  0.1906
11447TIP3    H155756   4.664   5.251  16.007 -0.0669 -0.4973  0.3340
11447TIP3    H255757   4.678   5.172  16.135 -1.3121 -0.0942  0.7218
11448TIP3   OH255758   2.749   3.077   6.209  0.8629  0.0130  0.1870
11448TIP3    H155759   2.799   3.158   6.203  1.8892 -0.5902  0.4522
11448TIP3    H255760   2.751   3.055   6.302  2.2871 -1.3626 -0.1551
11449TIP3   OH255761   3.498   5.355   3.228 -0.3401 -0.1315 -0.5277
11449TIP3    H155762   3.583   5.384   3.195  0.1277  0.5431  1.2147
11449TIP3    H255763   3.488   5.266   3.196  2.3207 -1.2378  1.5779
11450TIP3   OH255764   2.898   1.703  15.128 -0.2519  0.6133 -0.5113
11450TIP3    H155765   2.886   1.794  15.100  0.0090  0.7120 -0.3088
11450TIP3    H255766   2.926   1.710  15.219 -0.1964  0.3296 -0.5079
11451TIP3   OH255767   6.308   4.648  16.157  0.1048 -0.1657  0.2219
11451TIP3    H155768   6.309   4.641  16.252  0.7203  0.6374  0.2801
11451TIP3    H255769   6.400   4.661  16.133 -0.1978  0.9432 -0.3749
11452TIP3   OH255770   3.432   3.893  16.107 -0.6222 -0.1745  0.2513
11452TIP3    H155771   3.474   3.887  16.021  1.1158  1.5325  0.9536
11452TIP3    H255772   3.342   3.921  16.087 -0.2968 -0.0099 -1.0365
11453TIP3   OH255773   0.611   4.470  15.859  0.0646 -0.3777  0.2162
11453TIP3    H155774   0.625   4.509  15.945 -0.4077 -2.0599  1.0875
11453TIP3    H255775   0.549   4.398  15.875  1.3817 -1.8760 -1.1933
11454TIP3   OH255776   2.594   1.825   5.916  0.1975  0.0550  0.6765
11454TIP3    H155777   2.646   1.834   5.996  3.4833  1.1772 -1.4881
11454TIP3    H255778   2.547   1.909   5.909  0.7440  0.3836  0.8867
11455TIP3   OH255779   5.709   1.820  14.255 -0.1499 -0.9351  0.0395
11455TIP3    H155780   5.800   1.833  14.280 -0.2574 -0.1593  0.0186
11455TIP3    H255781   5.712   1.792  14.164 -0.0187  0.4183 -0.3701
11456TIP3   OH255782   4.074   5.068  15.264  0.4640 -0.9673 -0.0433
11456TIP3    H155783   4.016   5.028  15.199 -0.3181 -1.3443  0.8690
11456TIP3    H255784   4.025   5.143  15.298  0.3188 -1.5324  1.0337
11457TIP3   OH255785   6.423   3.106  11.359 -0.1139  0.2147  0.3399
11457TIP3    H155786   6.501   3.082  11.310 -0.5718 -0.7669  0.0745
11457TIP3    H255787   6.362   3.139  11.293  0.8418  3.0483  0.8146
11458TIP3   OH255788   0.400   0.904   2.527  0.5008  0.3149  1.0153
11458TIP3    H155789   0.356   0.829   2.487  1.0531 -0.1102  1.2017
11458TIP3    H255790   0.422   0.874   2.615 -0.8813  1.3094  1.7226
11459TIP3   OH255791   3.418   0.803  14.186 -0.1487 -0.2571 -0.2216
11459TIP3    H155792   3.500   0.767  14.220 -1.4568 -1.9059  1.3036
11459TIP3    H255793   3.368   0.827  14.264 -1.6225 -0.4385 -1.0794
11460TIP3   OH255794   2.882   4.863  14.579  0.6094 -0.0728  0.0323
11460TIP3    H155795   2.974   4.867  14.603  1.1045 -0.3986 -1.7763
11460TIP3    H255796   2.851   4.954  14.587  1.4862  0.3131 -0.8506
11461TIP3   OH255797   6.371   4.806  11.989 -0.0802  0.5420 -0.3436
11461TIP3    H155798   6.418   4.728  12.019  2.6857  1.9937 -0.7842
11461TIP3    H255799   6.350   4.786  11.897 -1.3814 -0.5799  0.1833
11462TIP3   OH255800   2.963   4.754   5.138  0.1674  0.2752 -0.1432
11462TIP3    H155801   2.880   4.709   5.153 -1.1298  2.5654 -0.2576
11462TIP3    H255802   2.983   4.796   5.221 -0.3266  2.1735 -0.9611
11463TIP3   OH255803   6.371   2.808  16.462  0.1010 -0.8696  0.6965
11463TIP3    H155804   6.449   2.753  16.462  0.7840  0.0855  1.7996
11463TIP3    H255805   6.306   2.758  16.512  0.5759 -0.8899  1.3015
11464TIP3   OH255806   3.468   3.488   4.573 -0.1689  0.0630  0.0323
11464TIP3    H155807   3.381   3.506   4.610  0.6280 -1.4937  2.7826
11464TIP3    H255808   3.450   3.454   4.485 -2.4117 -1.2043  0.9373
11465TIP3   OH255809   3.768   3.817  12.397 -0.2324 -0.4583 -0.0562
11465TIP3    H155810   3.800   3.828  12.307 -0.2896  1.2501  0.1148
11465TIP3    H255811   3.847   3.815  12.451 -0.2497 -0.1093 -0.0149
11466TIP3   OH255812   5.007   1.660   1.370 -0.2760  0.1536  0.4850
11466TIP3    H155813   5.064   1.671   1.294  1.4236  1.3811  1.9047
11466TIP3    H255814   5.012   1.744   1.417 -0.4372 -0.9349  2.5148
11467TIP3   OH255815   0.377   5.678  16.436  0.4521 -0.0568 -0.1681
11467TIP3    H155816   0.308   5.651  16.376  1.5637 -4.2456  0.2603
11467TIP3    H255817   0.339   5.668  16.523  0.8730 -0.1614  0.0069
11468TIP3   OH255818   4.107   6.150  11.991 -0.0010 -0.0993 -0.0296
11468TIP3    H155819   4.191   6.192  12.011 -1.0099  2.1722 -0.4635
11468TIP3    H255820   4.122   6.107  11.906  0.7924  0.0773  0.0145
11469TIP3   OH255821   0.686   2.542  12.040 -0.3996 -0.6252 -0.0310
11469TIP3    H155822   0.726   2.474  12.094  0.6060 -0.1506 -0.1699
11469TIP3    H255823   0.593   2.539  12.063 -0.5886 -2.8806 -0.9369
11470TIP3   OH255824   3.423   4.962   1.973 -0.6707  0.4784  0.3516
11470TIP3    H155825   3.346   4.958   1.917 -0.8033 -0.4506  0.5859
11470TIP3    H255826   3.476   5.033   1.936 -1.7299  1.2605  0.3192
11471TIP3   OH255827   1.004   2.473   0.409 -0.3131  0.0298  0.3482
11471TIP3    H155828   0.963   2.427   0.336 -0.5709  0.0679  0.4683
11471TIP3    H255829   1.090   2.432   0.418 -0.0673  0.3915 -0.3264
11472TIP3   OH255830   1.885   2.257  13.555 -0.3990  0.5624  0.2419
11472TIP3    H155831   1.976   2.279  13.574 -0.1783  0.8484 -1.1226
11472TIP3    H255832   1.834   2.310  13.616  0.2251  2.8915 -1.1925
11473TIP3   OH255833   2.452   6.634  17.028 -0.4804 -0.3323  0.2383
11473TIP3    H155834   2.495   6.571  16.970 -2.1160  0.2603 -1.6846
11473TIP3    H255835   2.378   6.667  16.977 -0.2830  2.3623  1.6117
11474TIP3   OH255836   6.271   6.717  15.482  0.1545  0.4876 -0.5942
11474TIP3    H155837   6.181   6.723  15.450  0.5319 -1.5848 -2.1128
11474TIP3    H255838   6.285   6.624  15.499  1.9393  0.8266 -0.1018
11475TIP3   OH255839   3.912   6.514  16.547  0.2670  0.2478 -0.5081
11475TIP3    H155840   3.886   6.506  16.639 -0.2032 -1.8559 -0.7986
11475TIP3    H255841   4.002   6.545  16.550 -0.4677  2.3430  0.6099
11476TIP3   OH255842   2.384   1.318  15.497 -0.0990  0.2172 -0.2687
11476TIP3    H155843   2.422   1.378  15.562 -1.7898 -0.3296  1.2526
11476TIP3    H255844   2.290   1.322  15.513 -0.1585 -4.4774  1.3501
11477TIP3   OH255845   4.204   2.176   3.554  0.1769 -0.3581 -0.2884
11477TIP3    H155846   4.213   2.221   3.469  1.5533 -0.8247 -0.4081
11477TIP3    H255847   4.111   2.182   3.574  0.1339  1.4793 -0.8927
11478TIP3   OH255848   2.597   1.299  13.189 -0.5913  0.2569  0.0257
11478TIP3    H155849   2.527   1.234  13.197  0.4271 -0.9944 -0.9115
11478TIP3    H255850   2.634   1.305  13.277  1.2219 -2.7039 -0.4383
11479TIP3   OH255851   2.909   2.446   5.096  0.3564 -0.2261  0.0711
11479TIP3    H155852   2.933   2.373   5.153  0.8561  0.8226  1.2442
11479TIP3    H255853   2.823   2.473   5.127  0.7363  0.5062  0.4908
11480TIP3   OH255854   0.309   1.773  13.432 -0.0013 -0.0073  0.2800
11480TIP3    H155855   0.271   1.838  13.373  1.3293 -1.2209 -1.9485
11480TIP3    H255856   0.352   1.710  13.375 -0.8748 -2.6452  2.4034
11481TIP3   OH255857   5.545   2.548  14.093  0.5157 -0.1795 -0.2547
11481TIP3    H155858   5.479   2.617  14.100 -1.5906 -2.1937  0.4180
11481TIP3    H255859   5.527   2.490  14.166  1.3466 -2.1944 -1.5964
11482TIP3   OH255860   4.271   1.744   2.650 -0.3755  0.1279 -0.0804
11482TIP3    H155861   4.354   1.717   2.609 -0.0382  0.7695  0.1686
11482TIP3    H255862   4.270   1.839   2.640 -1.5915  0.0237 -1.0222
11483TIP3   OH255863   0.574   4.807   1.181  0.2789  0.3999  0.1336
11483TIP3    H155864   0.618   4.828   1.263  0.3536 -1.2570  0.5233
11483TIP3    H255865   0.644   4.782   1.121  0.0504 -0.2883  0.1517
11484TIP3   OH255866   2.622   4.219  11.783 -0.0456 -0.2118 -0.6144
11484TIP3    H155867   2.614   4.231  11.878  0.8571  0.6831 -0.6441
11484TIP3    H255868   2.622   4.124  11.770 -0.3364 -0.3305  0.2725
11485TIP3   OH255869   0.434   2.361  14.053 -0.2766  0.3720  0.0242
11485TIP3    H155870   0.476   2.282  14.020  0.4572  0.8392 -0.1550
11485TIP3    H255871   0.473   2.376  14.139 -1.4303 -0.2496  0.6716
11486TIP3   OH255872   1.501   2.266  13.654  0.9286 -0.0170 -0.2645
11486TIP3    H155873   1.471   2.342  13.604 -0.5714 -0.2011  0.3161
11486TIP3    H255874   1.450   2.193  13.619  1.4276 -0.5211  0.0598
11487TIP3   OH255875   4.843   4.630  11.066  0.7718 -0.2280 -0.1806
11487TIP3    H155876   4.905   4.601  10.999 -0.6824 -0.8693 -1.2907
11487TIP3    H255877   4.889   4.699  11.113  2.8351 -1.6419 -0.0776
11488TIP3   OH255878   3.921   3.664  14.288  0.7864 -0.2867  0.2783
11488TIP3    H155879   3.926   3.593  14.351  2.2802 -0.8780 -0.4857
11488TIP3    H255880   3.896   3.622  14.206 -0.0322  0.3216  0.2020
11489TIP3   OH255881   0.608   3.865   3.792  0.1478 -0.6285  0.0703
11489TIP3    H155882   0.644   3.915   3.865 -0.3232  1.8115 -1.3104
11489TIP3    H255883   0.667   3.790   3.783 -0.6170 -1.8092  3.8513
11490TIP3   OH255884   5.589   1.618   4.267 -0.3933  0.2682  0.0685
11490TIP3    H155885   5.527   1.581   4.204 -1.7516 -0.0488  1.5664
11490TIP3    H255886   5.674   1.580   4.243 -0.4335  1.8960 -2.9812
11491TIP3   OH255887   4.075   3.021  14.106  0.1844  0.3353  0.0538
11491TIP3    H155888   4.167   3.044  14.100  0.2942 -0.2296 -0.4157
11491TIP3    H255889   4.045   3.017  14.015 -0.2523  0.2984  0.1969
11492TIP3   OH255890   6.489   4.244   2.129 -0.7311  0.1852  0.2587
11492TIP3    H155891   6.553   4.185   2.168 -0.7701  0.3617  0.5950
11492TIP3    H255892   6.410   4.191   2.119 -0.4746 -0.0878 -0.3415
11493TIP3   OH255893   0.945   6.721  12.018  0.0758 -0.4235  0.1466
11493TIP3    H155894   0.941   6.696  11.925  0.7827 -1.0320  0.2836
11493TIP3    H255895   0.905   6.808  12.020 -0.1777 -0.5103 -0.6916
11494TIP3   OH255896   5.339   6.767  17.102  0.0063  0.1835  0.6912
11494TIP3    H155897   5.421   6.746  17.057 -1.6449 -1.4840 -1.6493
11494TIP3    H255898   5.282   6.800  17.033 -1.9739 -0.6138  1.9108
11495TIP3   OH255899   2.204   0.790  13.490  0.2795  0.0372  0.4145
11495TIP3    H155900   2.245   0.831  13.414  0.4658 -1.8675 -0.5225
11495TIP3    H255901   2.266   0.805  13.561  1.3693 -0.4949 -0.4062
11496TIP3   OH255902   6.239   1.443   2.112 -0.2507 -0.4654 -0.4368
11496TIP3    H155903   6.229   1.403   2.199 -1.6425 -0.5829 -0.6422
11496TIP3    H255904   6.150   1.460   2.083  0.1160 -1.8171 -2.5048
11497TIP3   OH255905   2.769   4.205   2.123 -0.3013 -0.4793  0.0125
11497TIP3    H155906   2.801   4.218   2.034 -2.4439  2.3487 -0.4256
11497TIP3    H255907   2.837   4.153   2.166  1.1985 -1.0928 -2.9851
11498TIP3   OH255908   4.074   3.705   3.665  0.2814  0.4024 -0.0722
11498TIP3    H155909   4.076   3.714   3.761  2.9555 -0.0352 -0.0396
11498TIP3    H255910   3.982   3.687   3.645 -0.1042 -0.9292  2.5592
11499TIP3   OH255911   6.769   1.954  13.088  0.0342 -0.4678 -0.5044
11499TIP3    H155912   6.743   2.039  13.052 -0.0846 -0.6098 -0.7564
11499TIP3    H255913   6.864   1.953  13.080 -0.0839 -1.0481 -2.0687
11500TIP3   OH255914   4.441   6.009  11.029 -0.1988 -0.0503  0.8647
11500TIP3    H155915   4.537   6.013  11.026 -0.0838 -0.6721  3.2265
11500TIP3    H255916   4.421   5.953  11.103 -2.4202  0.5014  0.7234
11501TIP3   OH255917   3.083   3.604   3.818  0.0425  0.0648  0.2267
11501TIP3    H155918   3.059   3.607   3.911  1.8701 -2.3207  0.8338
11501TIP3    H255919   3.034   3.530   3.783 -1.4111  1.5806 -0.9659
11502TIP3   OH255920   1.433   5.366  12.810 -0.1761  0.2083 -0.5629
11502TIP3    H155921   1.358   5.424  12.799 -0.6804 -0.3051  0.1270
11502TIP3    H255922   1.466   5.353  12.722 -1.8707 -0.8367 -1.0661
11503TIP3   OH255923   5.884   5.002   1.545 -0.3510  0.2510  0.2325
11503TIP3    H155924   5.934   5.073   1.585  1.4394 -0.2723 -1.0571
11503TIP3    H255925   5.881   5.023   1.452 -0.9517 -0.6731  0.0342
11504TIP3   OH255926   0.611   2.855  16.039  0.0387  0.7222  0.0210
11504TIP3    H155927   0.698   2.880  16.070 -0.2216  2.6712 -0.7478
11504TIP3    H255928   0.625   2.773  15.993  1.7509  1.7553 -1.3735
11505TIP3   OH255929   4.213   4.436  12.641 -0.2127  1.0481  0.4728
11505TIP3    H155930   4.197   4.528  12.661  0.9992  1.3639  0.0336
11505TIP3    H255931   4.292   4.437  12.587  0.9570 -0.4005  2.0880
11506TIP3   OH255932   5.983   5.428  10.615  0.0908 -0.3740  0.6408
11506TIP3    H155933   6.074   5.454  10.604 -0.3412  1.1643  0.6365
11506TIP3    H255934   5.938   5.465  10.539 -0.5652 -1.0034  0.7148
11507TIP3   OH255935   5.056   0.741  12.129 -0.3483  0.3171  0.0420
11507TIP3    H155936   5.096   0.674  12.183 -0.0490  1.2051  0.9515
11507TIP3    H255937   5.123   0.810  12.122 -0.9468  0.8853 -0.1706
11508TIP3   OH255938   0.605   2.393   4.125  0.0289  0.9749 -0.2868
11508TIP3    H155939   0.568   2.380   4.037  0.6162 -0.1851 -0.3746
11508TIP3    H255940   0.572   2.478   4.153  0.9698  2.0108 -2.2162
11509TIP3   OH255941   0.465   2.849   3.188 -0.4292  0.0518 -0.4042
11509TIP3    H155942   0.486   2.756   3.192 -1.2229 -0.0984  0.6334
11509TIP3    H255943   0.372   2.853   3.212 -0.3514  1.1239 -0.2663
11510TIP3   OH255944   3.728   3.384   1.843  0.2378  0.3583 -0.2940
11510TIP3    H155945   3.665   3.355   1.777  2.9650  0.1589 -2.9325
11510TIP3    H255946   3.717   3.479   1.846 -0.9572  0.2083  0.0800
11511TIP3   OH255947   3.605   5.624  16.188  0.2520 -0.2895  0.5758
11511TIP3    H155948   3.637   5.667  16.109  0.8790  0.7298  1.3750
11511TIP3    H255949   3.651   5.540  16.190  0.4946 -0.1719  0.0422
11512TIP3   OH255950   6.268   2.529   1.864 -0.0176 -0.5249 -0.2040
11512TIP3    H155951   6.351   2.486   1.887  1.3005  0.9830 -2.0520
11512TIP3    H255952   6.235   2.561   1.948  2.0622  0.2214  0.3767
11513TIP3   OH255953   1.473   0.980   6.100  0.6725  0.4766 -0.1449
11513TIP3    H155954   1.400   1.032   6.135  2.3822  1.6666  1.7200
11513TIP3    H255955   1.470   0.898   6.149  0.5363  0.4730 -0.1575
11514TIP3   OH255956   4.265   4.682  15.554 -0.4838 -0.1882 -0.4725
11514TIP3    H155957   4.273   4.755  15.614 -2.8801 -0.9132  0.8112
11514TIP3    H255958   4.221   4.719  15.477 -0.2213  0.0763 -0.4937
11515TIP3   OH255959   3.961   3.129   0.693 -0.5243 -0.3459  0.5777
11515TIP3    H155960   3.893   3.193   0.672  2.2627  1.9219 -2.0373
11515TIP3    H255961   3.981   3.144   0.785 -0.8356  1.6886  0.3340
11516TIP3   OH255962   2.514   3.416   4.107  0.3050  0.1238 -0.3637
11516TIP3    H155963   2.492   3.399   4.015 -0.2951  1.3801 -0.4680
11516TIP3    H255964   2.517   3.330   4.147  0.3643 -0.4278 -1.5161
11517TIP3   OH255965   5.338   2.641   1.766 -0.1507  0.0075  0.2174
11517TIP3    H155966   5.268   2.654   1.701  0.1384  0.7914  0.0592
11517TIP3    H255967   5.407   2.701   1.739  0.9365 -1.3595 -0.1057
11518TIP3   OH255968   0.297   0.395  14.616 -0.2423 -0.0116  1.4441
11518TIP3    H155969   0.372   0.401  14.676 -0.7067 -1.1287  2.1683
11518TIP3    H255970   0.221   0.418  14.670 -0.5047  0.3760  0.9126
11519TIP3   OH255971   4.549   1.853  11.018  0.0682 -0.4668 -0.0318
11519TIP3    H155972   4.620   1.895  11.066 -0.4957  0.0117  0.3849
11519TIP3    H255973   4.480   1.840  11.083 -0.8249  0.4580 -0.7681
11520TIP3   OH255974   4.845   5.128  15.589  0.2202  0.6037  0.1574
11520TIP3    H155975   4.882   5.174  15.664  1.0779  1.1223 -0.5611
11520TIP3    H255976   4.864   5.186  15.515  1.9180 -1.2039 -0.8680
11521TIP3   OH255977   5.032   2.036  16.114 -0.2816 -0.0281 -0.5449
11521TIP3    H155978   4.992   2.119  16.141 -0.2320  0.4892 -1.9780
11521TIP3    H255979   4.992   1.970  16.171 -0.2607  0.9879  0.6663
11522TIP3   OH255980   2.963   3.673  16.970 -0.8841 -0.3683  0.3765
11522TIP3    H155981   2.918   3.687  16.887 -0.9631  2.3234  0.8378
11522TIP3    H255982   2.893   3.657  17.033 -1.0904  1.3706  0.6184
11523TIP3   OH255983   0.307   5.416   0.913  0.0925 -0.5511  0.4030
11523TIP3    H155984   0.282   5.508   0.914  2.3532  0.0730 -0.7124
11523TIP3    H255985   0.318   5.394   1.006 -0.4869  0.2660  0.6741
11524TIP3   OH255986   2.308   1.948   0.169  0.2846 -0.2292  0.7317
11524TIP3    H155987   2.236   2.006   0.143  0.6755 -0.2776 -0.5387
11524TIP3    H255988   2.365   2.004   0.222  1.1081  0.8444 -1.2066
11525TIP3   OH255989   4.410   2.626   1.844 -0.2142  0.4863  0.5994
11525TIP3    H155990   4.350   2.601   1.775 -1.4177 -0.7546  2.0514
11525TIP3    H255991   4.461   2.547   1.862  1.8457  1.5077 -0.5732
11526TIP3   OH255992   0.637   1.503  14.697 -0.0752 -0.1532  0.3679
11526TIP3    H155993   0.544   1.522  14.696 -0.0626  0.0339  1.7250
11526TIP3    H255994   0.642   1.408  14.709 -0.1017 -0.1318  0.5622
11527TIP3   OH255995   4.680   1.029   1.558  0.4375  0.1512  0.0259
11527TIP3    H155996   4.709   1.007   1.647  2.3173  1.5397 -0.2048
11527TIP3    H255997   4.619   0.959   1.534  0.1477 -0.4050  2.2890
11528TIP3   OH255998   5.177   3.163  16.361 -0.3524  0.4111 -0.4065
11528TIP3    H155999   5.273   3.155  16.363 -0.3429  0.4720 -0.5865
11528TIP3    H256000   5.152   3.128  16.276 -0.6144 -0.9380  0.2147
11529TIP3   OH256001   3.256   4.652  17.033 -0.3110 -0.2510 -0.3902
11529TIP3    H156002   3.328   4.594  17.060 -1.0665 -1.0477 -0.0704
11529TIP3    H256003   3.298   4.737  17.020  0.0161  0.2951  3.7803
11530TIP3   OH256004   5.252   4.966  15.757  0.8325 -0.4534  0.2872
11530TIP3    H156005   5.294   5.004  15.835 -0.2978  0.1514  0.6173
11530TIP3    H256006   5.323   4.956  15.694  2.1518 -2.6979  2.0263
11531TIP3   OH256007   2.438   2.848   3.562 -0.4735 -0.6888  0.1584
11531TIP3    H156008   2.472   2.872   3.649  1.3491 -0.4994 -0.5895
11531TIP3    H256009   2.485   2.904   3.501 -0.0840 -2.3892 -1.1493
11532TIP3   OH256010   4.592   1.897  13.141 -0.4184 -0.1845  0.6008
11532TIP3    H156011   4.565   1.971  13.087 -0.5470 -1.2957 -0.8786
11532TIP3    H256012   4.682   1.917  13.165 -0.8316  1.0169  1.2019
11533TIP3   OH256013   5.910   3.668   0.681 -0.3387  0.6972 -0.2860
11533TIP3    H156014   5.819   3.645   0.698 -0.5255  2.1388  0.7129
11533TIP3    H256015   5.936   3.610   0.609 -1.8322 -0.1812 -0.1381
11534TIP3   OH256016   1.209   5.726   2.449  0.2663  0.3572  0.2126
11534TIP3    H156017   1.280   5.710   2.511 -1.4836 -0.7638  1.9894
11534TIP3    H256018   1.247   5.784   2.383  2.4454  0.8001  1.8137
11535TIP3   OH256019   0.486   0.940  13.342 -0.0359  0.2160 -0.1320
11535TIP3    H156020   0.419   0.980  13.398 -0.0728  0.3327 -0.2571
11535TIP3    H256021   0.515   1.012  13.285  1.2242  0.5382  0.8886
11536TIP3   OH256022   2.714   4.149  14.780 -0.0667  0.5281  0.3757
11536TIP3    H156023   2.715   4.062  14.819  0.9679  0.5650  0.4411
11536TIP3    H256024   2.705   4.133  14.686 -0.5928  0.3754  0.4494
11537TIP3   OH256025   4.428   1.749   5.280  0.2591  0.4137  0.0982
11537TIP3    H156026   4.348   1.786   5.318  0.0110 -0.8870  0.8882
11537TIP3    H256027   4.398   1.685   5.216  0.6211 -1.4961  1.7888
11538TIP3   OH256028   1.794   0.787   5.502 -0.2624 -0.6452 -0.1301
11538TIP3    H156029   1.855   0.714   5.496  0.0432 -0.4175  0.1950
11538TIP3    H256030   1.758   0.795   5.414  2.7324  1.4135 -1.2385
11539TIP3   OH256031   4.933   4.026   3.808  0.2045  0.1508 -0.1190
11539TIP3    H156032   4.846   3.987   3.799  0.1360  0.0194  0.9632
11539TIP3    H256033   4.937   4.054   3.900  2.2151 -2.0468  0.5002
11540TIP3   OH256034   5.538   0.556   3.757 -0.1926  0.2050  0.5750
11540TIP3    H156035   5.517   0.624   3.694  1.3411  0.7782  0.6579
11540TIP3    H256036   5.577   0.486   3.704 -2.3485 -0.9070  0.4011
11541TIP3   OH256037   6.116   3.842   6.754  0.1804  0.0211 -0.1135
11541TIP3    H156038   6.135   3.753   6.786 -0.1403 -0.6764 -1.7907
11541TIP3    H256039   6.201   3.879   6.733  0.1946 -0.6160 -1.2299
11542TIP3   OH256040   4.100   6.754  16.114 -0.2776 -0.0196  0.1846
11542TIP3    H156041   4.153   6.832  16.134 -2.1322  1.3493 -0.0489
11542TIP3    H256042   4.100   6.704  16.196  1.9277 -0.3930 -0.0277
11543TIP3   OH256043   0.489   3.716   0.902  0.0047 -0.9400 -0.0223
11543TIP3    H156044   0.584   3.706   0.909  0.0158 -0.4165  0.6324
11543TIP3    H256045   0.477   3.806   0.872 -0.3262 -0.5743  1.1866
11544TIP3   OH256046   5.959   3.848  16.227  0.8370  0.0576  0.5964
11544TIP3    H156047   5.865   3.840  16.211  0.3544  1.4036  2.6018
11544TIP3    H256048   5.988   3.759  16.247 -0.3770 -0.0939  1.7930
11545TIP3   OH256049   2.010   0.126  10.515  0.1054  0.1647 -0.4276
11545TIP3    H156050   1.978   0.117  10.605 -1.6129  1.1504 -0.9161
11545TIP3    H256051   2.075   0.196  10.520 -0.1100  0.3353  0.0261
11546TIP3   OH256052   0.326   3.317   1.120 -0.0778 -0.1803  0.4983
11546TIP3    H156053   0.280   3.396   1.147 -0.2844 -0.4953  1.0628
11546TIP3    H256054   0.410   3.349   1.086  0.0021  0.2459  1.0886
11547TIP3   OH256055   0.514   1.903  14.263 -0.5492 -0.4455 -0.8128
11547TIP3    H156056   0.483   1.977  14.314  2.4946  0.9393 -0.8417
11547TIP3    H256057   0.496   1.927  14.172  1.5652  0.9229 -0.9223
11548TIP3   OH256058   2.961   3.480  16.005 -0.0671 -0.4061  0.1840
11548TIP3    H156059   2.891   3.464  16.069  1.5147 -1.1688  1.7493
11548TIP3    H256060   3.007   3.557  16.039 -1.2793  1.2969 -1.8635
11549TIP3   OH256061   4.113   5.203  16.856  0.4857 -0.1259  0.1092
11549TIP3    H156062   4.053   5.278  16.851 -0.9600 -1.2563  0.3237
11549TIP3    H256063   4.146   5.205  16.946 -0.1943 -0.2451  0.3627
11550TIP3   OH256064   5.507   5.455  11.604 -0.3722 -0.3842  0.4899
11550TIP3    H156065   5.456   5.399  11.662 -0.3363 -0.9783 -0.0552
11550TIP3    H256066   5.580   5.485  11.658 -0.5767 -0.5828  0.8806
11551TIP3   OH256067   5.022   2.432  12.898  0.0937 -0.4701 -0.2483
11551TIP3    H156068   5.072   2.356  12.930  0.5449 -0.9113 -1.9142
11551TIP3    H256069   4.980   2.468  12.976  0.9702 -1.6261  0.7864
11552TIP3   OH256070   3.056   4.878   0.822 -0.0717  0.1996  0.1136
11552TIP3    H156071   3.010   4.962   0.828  1.5690  1.2145 -1.3050
11552TIP3    H256072   2.990   4.813   0.849 -1.1573  1.9759  1.8660
11553TIP3   OH256073   4.658   5.299   3.464  0.3438 -0.1486 -0.0345
11553TIP3    H156074   4.622   5.310   3.552 -0.2589  0.1653 -0.3241
11553TIP3    H256075   4.648   5.205   3.446  0.6308 -0.2472  0.2953
11554TIP3   OH256076   2.029   6.284  14.756 -0.2787 -0.4333  0.0585
11554TIP3    H156077   1.973   6.355  14.724  0.3940  0.0309 -0.1001
11554TIP3    H256078   1.984   6.251  14.833 -0.7732 -0.0618 -0.0657
11555TIP3   OH256079   2.977   2.753  14.997  0.3124 -0.1307 -0.3790
11555TIP3    H156080   2.976   2.774  15.091 -0.0222 -2.1297  0.0777
11555TIP3    H256081   3.056   2.701  14.985  0.3032  0.0451 -1.2077
11556TIP3   OH256082   1.463   4.723  16.932  0.2052 -0.3837  0.0736
11556TIP3    H156083   1.507   4.720  17.017  2.1785  0.3888 -0.8948
11556TIP3    H256084   1.434   4.633  16.917  0.2234 -0.6155  1.3452
11557TIP3   OH256085   6.602   3.918   0.791  0.8334 -0.2407 -0.9145
11557TIP3    H156086   6.549   3.996   0.778  0.9165 -0.5472 -3.3443
11557TIP3    H256087   6.646   3.932   0.875 -0.3834  1.5765 -0.5611
11558TIP3   OH256088   1.793   1.562   0.342 -0.0033 -0.0212  0.2813
11558TIP3    H156089   1.805   1.473   0.309 -0.2000 -0.1398  0.5250
11558TIP3    H256090   1.834   1.562   0.429  1.2890  0.5306 -0.3168
11559TIP3   OH256091   4.176   5.465   4.541 -0.4050  0.1913  0.3105
11559TIP3    H156092   4.142   5.428   4.623  0.8634  0.2765  0.8812
11559TIP3    H256093   4.099   5.504   4.499 -0.9315  0.8760  1.8537
11560TIP3   OH256094   0.999   0.062   2.790 -0.3884 -0.5740 -0.1449
11560TIP3    H156095   1.081   0.061   2.839  0.1497  1.9111 -0.9161
11560TIP3    H256096   0.932   0.076   2.856  0.1373  0.6481  0.1503
11561TIP3   OH256097   3.041   0.269  15.539 -0.2907 -0.0130  0.1431
11561TIP3    H156098   3.024   0.363  15.536  0.7211  0.1775  0.2805
11561TIP3    H256099   3.123   0.260  15.589 -0.8075 -1.0181  0.8390
11562TIP3   OH256100   3.319   1.023   0.463  0.0471 -0.1377  0.3466
11562TIP3    H156101   3.401   1.039   0.417  0.9845  0.7472  2.2694
11562TIP3    H256102   3.286   1.110   0.485 -2.3175 -0.3952 -1.8861
11563TIP3   OH256103   2.278   2.848   1.493 -0.2412 -0.2139 -0.3709
11563TIP3    H156104   2.204   2.846   1.553 -1.3093 -0.0790 -1.6616
11563TIP3    H256105   2.330   2.772   1.517 -1.5081 -1.0833 -0.3355
11564TIP3   OH256106   0.954   5.181   3.437  0.0886 -0.6560 -0.9295
11564TIP3    H156107   0.915   5.262   3.405  1.9615  1.8042  2.6847
11564TIP3    H256108   0.903   5.158   3.514  1.2894 -1.3757 -0.3237
11565TIP3   OH256109   5.450   0.421  11.466 -0.1466 -0.1189 -0.4933
11565TIP3    H156110   5.435   0.398  11.374 -2.8239 -2.4409  0.4611
11565TIP3    H256111   5.545   0.420  11.476  0.1219 -1.4156 -2.8229
11566TIP3   OH256112   1.178   3.797   2.284 -0.4023 -0.3688 -0.0515
11566TIP3    H156113   1.105   3.742   2.312 -0.1831 -0.9665 -0.6531
11566TIP3    H256114   1.145   3.847   2.210 -0.1135 -0.8768 -0.5328
11567TIP3   OH256115   6.482   4.845  16.551 -0.3814  0.2216  0.4921
11567TIP3    H156116   6.535   4.872  16.476  1.0513 -0.6430  1.1670
11567TIP3    H256117   6.402   4.809  16.513 -0.4291  1.4258 -0.5490
11568TIP3   OH256118   0.954   5.376  15.102  0.7433 -0.2932 -0.1297
11568TIP3    H156119   0.900   5.328  15.040  1.0849 -0.8669  0.0150
11568TIP3    H256120   0.911   5.363  15.186 -0.3700  1.4413 -0.4041
11569TIP3   OH256121   4.464   4.766   1.656  0.4387 -0.0688 -0.7148
11569TIP3    H156122   4.529   4.821   1.699  1.7233 -0.9770 -1.4736
11569TIP3    H256123   4.382   4.785   1.703  1.4436  0.3115  0.9338
11570TIP3   OH256124   1.371   1.885   2.220 -0.0094 -0.3723 -0.1096
11570TIP3    H156125   1.310   1.932   2.164  0.3626  0.6309  0.3215
11570TIP3    H256126   1.348   1.911   2.309 -0.3416 -1.6529  0.1805
11571TIP3   OH256127   5.993   4.032  13.802 -0.2349  0.3129  0.4193
11571TIP3    H156128   5.977   3.939  13.789 -2.0581  0.2631  2.7887
11571TIP3    H256129   5.926   4.076  13.750 -0.2429  0.2978  0.4157
11572TIP3   OH256130   3.432   3.244   2.522 -0.0903  0.5922  0.4766
11572TIP3    H156131   3.456   3.293   2.601 -1.1050 -2.1152  2.5202
11572TIP3    H256132   3.498   3.176   2.515 -1.4732 -0.7954  0.5356
11573TIP3   OH256133   3.805   0.063   1.215  0.1016 -0.2363 -0.1973
11573TIP3    H156134   3.758   0.013   1.281 -0.3148  0.3438 -0.0461
11573TIP3    H256135   3.897   0.044   1.232  0.0451  0.5309  1.0663
11574TIP3   OH256136   2.063   3.984  13.487 -0.7296  0.2481 -0.4389
11574TIP3    H156137   2.151   4.016  13.509 -0.5630 -0.4869 -0.0231
11574TIP3    H256138   2.013   3.993  13.568 -0.7629 -0.2640 -0.4025
11575TIP3   OH256139   2.319   0.179  14.434  0.6695  0.1076 -0.4391
11575TIP3    H156140   2.366   0.259  14.455  1.6706 -0.9030  1.2887
11575TIP3    H256141   2.383   0.109  14.447 -1.2623 -1.2907  1.9792
11576TIP3   OH256142   4.387   0.352   3.215 -0.7630 -0.1538 -0.5309
11576TIP3    H156143   4.364   0.435   3.257  0.2365  0.5685 -1.3983
11576TIP3    H256144   4.392   0.290   3.287  1.1903  1.1214  0.4819
11577TIP3   OH256145   1.952   0.580  15.483 -0.3875  0.0525 -0.3080
11577TIP3    H156146   1.865   0.541  15.473 -0.8234  1.1284 -0.7363
11577TIP3    H256147   2.013   0.508  15.466 -1.1869 -0.7556  0.1975
11578TIP3   OH256148   6.256   5.883   5.475 -0.6728 -0.5926  0.2596
11578TIP3    H156149   6.257   5.837   5.392  0.3795 -0.6374  0.2966
11578TIP3    H256150   6.282   5.973   5.453 -0.9373 -0.4635  0.4609
11579TIP3   OH256151   4.797   5.369  14.208  0.2501 -0.5976  0.0710
11579TIP3    H156152   4.708   5.399  14.226 -1.0863 -2.4163 -2.9481
11579TIP3    H256153   4.817   5.309  14.279 -0.5245  0.6339  1.3498
11580TIP3   OH256154   1.343   1.619   2.062  0.8508  0.0373  0.0773
11580TIP3    H156155   1.403   1.672   2.010 -0.1937 -0.3570 -1.5631
11580TIP3    H256156   1.372   1.631   2.152  1.5576  2.1810 -0.4227
11581TIP3   OH256157   1.547   4.984  14.817  0.6487  0.0468 -0.2955
11581TIP3    H156158   1.510   5.005  14.903  0.8806 -1.0265  0.0718
11581TIP3    H256159   1.640   4.969  14.834  0.2919 -2.4124 -0.3301
11582TIP3   OH256160   5.373   2.214   3.861  0.4269 -0.0906  0.7792
11582TIP3    H156161   5.306   2.258   3.912  0.7997  0.6314  0.6422
11582TIP3    H256162   5.356   2.239   3.770  1.6658  1.1420  0.8735
11583TIP3   OH256163   5.996   2.857  13.129 -0.2339  0.0730 -0.4795
11583TIP3    H156164   5.915   2.830  13.087 -0.6849  0.0286  0.4226
11583TIP3    H256165   6.000   2.807  13.210  1.9234 -1.7623 -1.6549
11584TIP3   OH256166   6.408   5.250  14.379  0.0407  0.2481  0.0746
11584TIP3    H156167   6.316   5.277  14.380 -0.3828 -1.1885  1.0045
11584TIP3    H256168   6.435   5.251  14.471  0.3829 -1.2365  0.0023
11585TIP3   OH256169   5.344   5.672  16.226  0.0158 -0.2233 -0.1335
11585TIP3    H156170   5.250   5.667  16.243 -0.3062  2.3403 -0.9703
11585TIP3    H256171   5.373   5.581  16.229 -2.5315 -1.0917 -0.1169
11586TIP3   OH256172   3.341   4.672  14.539 -0.2641  0.1913  0.1552
11586TIP3    H156173   3.336   4.695  14.446 -0.1143  0.0176  0.1052
11586TIP3    H256174   3.408   4.731  14.574 -2.0361  1.9502  0.6672
11587TIP3   OH256175   5.863   0.381   0.410  0.6461  0.7977  0.1831
11587TIP3    H156176   5.936   0.324   0.384 -0.7765 -0.9145 -0.1330
11587TIP3    H256177   5.869   0.456   0.351 -0.6361 -1.5522 -3.0471
11588TIP3   OH256178   5.997   0.222   3.335  0.6788  0.4145  0.1636
11588TIP3    H156179   5.948   0.257   3.261  0.1418 -0.0425  0.3055
11588TIP3    H256180   6.089   0.225   3.306  0.6401  1.8164  0.1287
11589TIP3   OH256181   5.298   6.346   0.266  0.0739 -0.2889  0.3691
11589TIP3    H156182   5.223   6.404   0.252 -0.0035 -0.4011  0.3135
11589TIP3    H256183   5.374   6.400   0.250 -0.0145 -1.1396 -3.4727
11590TIP3   OH256184   3.877   3.120  12.302  0.4782 -0.1663 -0.3774
11590TIP3    H156185   3.796   3.098  12.257 -0.3628  0.2364  0.9113
11590TIP3    H256186   3.944   3.119  12.233 -0.5367 -0.9361 -1.3663
11591TIP3   OH256187   0.544   4.852   0.276  0.4784  0.0153  0.0194
11591TIP3    H156188   0.499   4.795   0.339  1.5985  0.7270  1.5103
11591TIP3    H256189   0.630   4.813   0.266  0.7887  0.6863  0.0240
11592TIP3   OH256190   1.567   5.414  12.577 -0.5178 -0.8195 -0.4367
11592TIP3    H156191   1.662   5.408  12.580 -0.4708 -0.3345 -1.0268
11592TIP3    H256192   1.549   5.494  12.528 -1.2289 -0.9512 -0.3953
11593TIP3   OH256193   1.563   5.966   5.496 -1.0423  0.1874  0.1729
11593TIP3    H156194   1.580   6.044   5.443 -0.7314  0.7294  1.0506
11593TIP3    H256195   1.470   5.973   5.518 -1.0365  0.2650  0.1732
11594TIP3   OH256196   1.092   4.262   5.312 -0.2981 -0.4592 -0.5259
11594TIP3    H156197   1.117   4.172   5.293  1.8480 -0.2267  1.0215
11594TIP3    H256198   1.007   4.255   5.356  0.1535 -1.7891  0.1626
11595TIP3   OH256199   4.193   3.576   6.621  0.7738  0.0183 -0.3811
11595TIP3    H156200   4.126   3.564   6.689  1.8930 -0.5390  0.6552
11595TIP3    H256201   4.181   3.666   6.591  1.5495  0.9873  2.0289
11596TIP3   OH256202   4.170   0.695  12.496 -0.6651  0.0003 -0.2739
11596TIP3    H156203   4.145   0.642  12.571 -0.4554 -0.9623 -0.8776
11596TIP3    H256204   4.155   0.785  12.524 -1.5890 -0.4025  0.5492
11597TIP3   OH256205   4.232   2.024  13.066 -0.1715 -0.5332  0.4088
11597TIP3    H156206   4.322   2.024  13.035  0.5068 -0.4580  2.3213
11597TIP3    H256207   4.236   1.985  13.154 -1.6993  1.3157  1.3488
11598TIP3   OH256208   6.709   0.616   5.764  0.3861  0.0197 -0.4089
11598TIP3    H156209   6.708   0.701   5.810 -1.5108 -0.3458  0.2589
11598TIP3    H256210   6.644   0.563   5.810 -1.3389 -0.4903 -3.2622
11599TIP3   OH256211   3.274   4.928  11.298 -0.1927  0.7775 -0.0736
11599TIP3    H156212   3.224   4.847  11.305 -1.2505  1.5889  2.4066
11599TIP3    H256213   3.364   4.905  11.319 -0.5203  0.2829  0.7618
11600TIP3   OH256214   4.077   4.266   1.022 -0.3086  0.1073 -0.1174
11600TIP3    H156215   4.067   4.175   0.993  2.1690 -0.1005 -0.4580
11600TIP3    H256216   4.091   4.316   0.941  0.5722  0.4274  0.2204
11601TIP3   OH256217   6.489   3.060   0.205  0.4468 -0.4338  0.0296
11601TIP3    H156218   6.580   3.045   0.229  0.2242  0.6323  1.6104
11601TIP3    H256219   6.439   3.004   0.264  0.0255 -0.2531 -0.1572
11602TIP3   OH256220   6.635   2.187  15.455  0.3130  0.4697 -0.0850
11602TIP3    H156221   6.640   2.150  15.543 -0.5034 -1.1258 -0.7016
11602TIP3    H256222   6.552   2.155  15.420  0.7074  0.9704 -1.5020
11603TIP3   OH256223   6.056   3.088  12.987 -0.2339  1.1229  0.9745
11603TIP3    H156224   6.151   3.076  12.992 -0.3886 -0.6284 -0.0369
11603TIP3    H256225   6.020   3.015  13.037 -1.0730  0.7068 -0.2121
11604TIP3   OH256226   3.717   5.178  12.442  0.0908 -0.0315 -0.1654
11604TIP3    H156227   3.658   5.119  12.490  1.4451 -0.7059  0.7100
11604TIP3    H256228   3.726   5.138  12.355 -0.5300 -0.0646 -0.2141
11605TIP3   OH256229   3.444   3.018   1.782 -0.0605 -0.2424  0.3002
11605TIP3    H156230   3.384   2.949   1.810 -1.6601  0.3093 -1.6038
11605TIP3    H256231   3.450   3.007   1.687 -0.4204  2.2776 -0.0585
11606TIP3   OH256232   4.790   2.594   2.381  0.3966 -0.2981  0.4342
11606TIP3    H156233   4.697   2.602   2.400  0.0730 -1.3555 -0.6396
11606TIP3    H256234   4.831   2.665   2.430 -1.2541  1.8005 -1.1226
11607TIP3   OH256235   3.771   2.322   5.485 -0.1830 -0.2718  0.3587
11607TIP3    H156236   3.847   2.284   5.441  1.0718  2.3621  0.1621
11607TIP3    H256237   3.716   2.354   5.413  0.5949  1.6531  0.5957
11608TIP3   OH256238   0.207   1.635   5.997 -0.2658 -0.6773 -0.3452
11608TIP3    H156239   0.115   1.652   5.975 -0.4142 -1.4456 -0.3503
11608TIP3    H256240   0.257   1.692   5.938 -0.7042 -1.4250 -1.4632
11609TIP3   OH256241   4.425   4.588  12.927 -0.3409  0.0765 -0.8227
11609TIP3    H156242   4.379   4.670  12.943 -1.3699 -0.2453 -1.9634
11609TIP3    H256243   4.502   4.613  12.875 -0.0274  0.4477 -0.1824
11610TIP3   OH256244   1.047   4.938  14.724 -0.2140  0.4547  0.8925
11610TIP3    H156245   1.058   4.850  14.761  0.7444  0.1673 -0.0384
11610TIP3    H256246   1.042   4.923  14.629 -2.1926  1.2186  0.8495
11611TIP3   OH256247   4.017   3.701   6.384 -0.6072 -0.3717 -0.1539
11611TIP3    H156248   4.033   3.737   6.471 -0.1733 -2.7123  0.7597
11611TIP3    H256249   3.939   3.747   6.353  0.3179  1.8265  0.6771
11612TIP3   OH256250   3.898   0.006  15.936 -0.3274  0.3396 -0.2306
11612TIP3    H156251   3.955  -0.005  16.012  1.8355  1.3723 -1.6590
11612TIP3    H256252   3.826   0.061  15.968 -0.0683 -0.2152  1.3549
11613TIP3   OH256253   5.037   0.912  16.591 -0.4401  0.3523  0.6451
11613TIP3    H156254   4.989   0.836  16.624 -1.2046 -0.2554 -1.7928
11613TIP3    H256255   4.982   0.986  16.614 -0.6374  0.0041  1.3143
11614TIP3   OH256256   5.309   0.860  11.611 -0.3767 -0.1584 -0.9886
11614TIP3    H156257   5.362   0.930  11.648 -0.0785  0.1278 -1.9475
11614TIP3    H256258   5.227   0.863  11.661  0.0550  0.1546 -0.2929
11615TIP3   OH256259   3.222   0.350  14.483  0.1143 -0.0489  0.8059
11615TIP3    H156260   3.281   0.277  14.500 -0.4218  0.0416  3.2484
11615TIP3    H256261   3.252   0.419  14.541  0.7567  1.7943 -1.6586
11616TIP3   OH256262   5.055   0.173  11.857 -0.4320 -0.5379  0.1762
11616TIP3    H156263   5.045   0.152  11.950 -1.1420  2.8471  0.9167
11616TIP3    H256264   4.965   0.173  11.823 -0.3475  0.3029 -0.0426
11617TIP3   OH256265   2.289   5.960  14.316  0.7991  0.1006  0.8184
11617TIP3    H156266   2.267   5.875  14.354  0.5723  0.7005  2.0618
11617TIP3    H256267   2.221   5.975  14.251  0.8713 -0.6950  0.5465
11618TIP3   OH256268   1.898   6.737   5.592  0.1494 -0.4635  0.2990
11618TIP3    H156269   1.829   6.702   5.536 -0.1600 -1.7809  1.4579
11618TIP3    H256270   1.977   6.735   5.537 -0.4690 -0.2271 -0.5987
11619TIP3   OH256271   4.864   6.349   2.674  0.7133 -0.1267 -0.2074
11619TIP3    H156272   4.949   6.375   2.638  1.8905 -1.7462  1.3261
11619TIP3    H256273   4.864   6.384   2.763 -0.1474 -0.3262 -0.1255
11620TIP3   OH256274   1.358   2.239  14.390 -0.2430  0.7762 -0.0194
11620TIP3    H156275   1.279   2.274  14.350 -0.6588  1.4603  1.3845
11620TIP3    H256276   1.326   2.182  14.461  0.5175  2.3604  1.6423
11621TIP3   OH256277   6.748   2.856  11.673  0.0264  0.0463 -0.2311
11621TIP3    H156278   6.740   2.943  11.713  2.3017 -1.4337  3.7568
11621TIP3    H256279   6.830   2.860  11.624 -1.7031  1.1930 -3.1823
11622TIP3   OH256280   6.396   0.228  13.864  0.2256  0.1583 -0.1747
11622TIP3    H156281   6.430   0.251  13.777  0.3465  0.4655 -0.0464
11622TIP3    H256282   6.311   0.188  13.846  0.5716 -0.4372 -0.4819
11623TIP3   OH256283   5.642   6.425   4.968  0.3066 -0.0606 -0.2591
11623TIP3    H156284   5.582   6.366   5.013 -0.0113 -1.6200 -2.6117
11623TIP3    H256285   5.725   6.377   4.965  1.5922  1.8232  2.4225
11624TIP3   OH256286   0.193   3.851   1.905 -0.2852 -0.0234  0.5114
11624TIP3    H156287   0.124   3.886   1.962 -0.2439  0.4065  0.2996
11624TIP3    H256288   0.237   3.929   1.871  1.0039 -0.2991  1.5046
11625TIP3   OH256289   5.370   0.108   4.958  0.2861 -0.5615 -0.1187
11625TIP3    H156290   5.454   0.063   4.956  0.2014 -0.7917  1.4724
11625TIP3    H256291   5.392   0.201   4.965  0.4152 -0.4985 -1.1825
11626TIP3   OH256292   3.448   6.538   2.006 -0.0413  0.0651 -0.1326
11626TIP3    H156293   3.367   6.569   1.965  0.3009  0.5633 -0.4430
11626TIP3    H256294   3.492   6.488   1.937  0.5577  0.9448 -0.4011
11627TIP3   OH256295   2.466   6.287   1.089 -0.3452 -0.0356 -0.4011
11627TIP3    H156296   2.541   6.240   1.126 -1.0464 -1.1199 -0.3587
11627TIP3    H256297   2.504   6.340   1.018  0.9425  1.6970  1.5077
11628TIP3   OH256298   0.298   3.123  11.082  0.2628 -0.6532 -0.6872
11628TIP3    H156299   0.329   3.144  10.993 -0.0860 -1.7500 -1.0814
11628TIP3    H256300   0.284   3.028  11.080 -0.3301 -0.5924  0.3694
11629TIP3   OH256301   2.068   0.217  11.277 -0.1001  0.2929 -0.2186
11629TIP3    H156302   2.138   0.254  11.223  1.8008 -1.2520  1.1429
11629TIP3    H256303   2.010   0.174  11.214  0.7670  0.6248 -1.2572
11630TIP3   OH256304   4.105   2.140  12.011 -0.4515  0.1347 -0.3974
11630TIP3    H156305   4.023   2.105  11.977  0.6849 -2.0753 -1.0290
11630TIP3    H256306   4.150   2.175  11.935 -0.8641  1.4643 -0.0325
11631TIP3   OH256307   1.401   3.562  12.706 -0.0128  0.4812  0.2448
11631TIP3    H156308   1.468   3.518  12.758 -0.0237  0.8415  0.5665
11631TIP3    H256309   1.364   3.627  12.765 -1.6434 -0.6865  0.5203
11632TIP3   OH256310   5.903   6.524  11.154  0.6152 -0.0729  0.1669
11632TIP3    H156311   5.932   6.455  11.214  1.2102  0.1880  0.1834
11632TIP3    H256312   5.845   6.480  11.092 -1.7406  0.0257  2.2080
11633TIP3   OH256313   4.842   2.203  16.220 -0.0112 -0.1193 -0.7609
11633TIP3    H156314   4.778   2.248  16.165 -0.4441 -0.7075 -0.7409
11633TIP3    H256315   4.854   2.261  16.295 -1.3533 -0.5317 -0.2283
11634TIP3   OH256316   3.923   5.744  15.663 -0.7558  0.0298 -0.3514
11634TIP3    H156317   3.892   5.834  15.669 -1.6470 -0.3268  0.3617
11634TIP3    H256318   3.881   5.698  15.735  1.3065 -0.5005  0.5616
11635TIP3   OH256319   0.351   1.308  15.905 -0.3479 -0.6210 -0.3454
11635TIP3    H156320   0.309   1.392  15.927 -2.7120 -1.1472 -2.5651
11635TIP3    H256321   0.430   1.306  15.959 -0.5031  2.8091  0.1473
11636TIP3   OH256322   6.022   6.589   1.053  0.2136  0.2557  0.0917
11636TIP3    H156323   6.109   6.607   1.017 -0.8829 -0.1166 -2.9325
11636TIP3    H256324   6.012   6.653   1.124  2.2768  1.4390 -0.6183
11637TIP3   OH256325   6.405   2.459  12.629  0.6503  0.0315  0.0106
11637TIP3    H156326   6.358   2.536  12.662  0.2818  0.5599 -1.6798
11637TIP3    H256327   6.481   2.496  12.584  2.2562 -0.7810  2.0295
11638TIP3   OH256328   3.047   5.310  16.445 -0.3038 -0.2577  0.0459
11638TIP3    H156329   3.030   5.393  16.489 -0.5420  0.5395 -1.4862
11638TIP3    H256330   2.960   5.277  16.423 -0.1636 -0.0607 -0.8449
11639TIP3   OH256331   1.244   4.725  16.004  0.0062  0.5057  0.1868
11639TIP3    H156332   1.284   4.643  16.034 -0.7802 -0.1308 -0.5027
11639TIP3    H256333   1.319   4.778  15.974  0.4076 -0.4119 -0.4475
11640TIP3   OH256334   2.717   3.405   5.678  0.5486 -0.0461 -0.3105
11640TIP3    H156335   2.749   3.352   5.752  1.3008 -3.8011 -3.1909
11640TIP3    H256336   2.763   3.488   5.688  4.3458 -2.1468  0.8421
11641TIP3   OH256337   6.267   0.505   4.130  0.5135  0.3838  0.0683
11641TIP3    H156338   6.221   0.580   4.092  0.5484  1.0233  1.2911
11641TIP3    H256339   6.334   0.543   4.186  1.2701 -0.5618 -0.1704
11642TIP3   OH256340   0.133   3.086  15.094  0.4405 -0.0703  0.0472
11642TIP3    H156341   0.174   2.999  15.098  0.8284  0.1419  0.7607
11642TIP3    H256342   0.055   3.078  15.148  2.2476  0.9631  2.8885
11643TIP3   OH256343   5.118   2.040  14.858  0.7404  0.0312  0.5902
11643TIP3    H156344   5.059   2.093  14.912  0.3749  0.8451 -0.5781
11643TIP3    H256345   5.193   2.096  14.841 -0.1172  0.6166 -1.5277
11644TIP3   OH256346   6.095   3.438  15.315  0.0427  0.5044  0.8325
11644TIP3    H156347   6.183   3.406  15.335 -0.0151  0.4905  1.0727
11644TIP3    H256348   6.096   3.454  15.221  1.0525  2.7620  1.1870
11645TIP3   OH256349   5.825   2.753   2.567  0.3953 -0.8855 -0.3818
11645TIP3    H156350   5.835   2.680   2.506  2.7014 -1.6799  0.8599
11645TIP3    H256351   5.882   2.730   2.640 -3.6234 -0.7724  2.9074
11646TIP3   OH256352   4.070   0.461   3.994  0.4762  0.0033  0.2742
11646TIP3    H156353   4.081   0.390   4.057  0.2052  0.5460  0.9429
11646TIP3    H256354   4.158   0.476   3.959  1.0117  1.0319  1.9876
11647TIP3   OH256355   1.645   4.223  14.367  0.8915  0.0820 -0.3165
11647TIP3    H156356   1.611   4.250  14.452 -1.4654  1.9473 -1.7993
11647TIP3    H256357   1.654   4.305  14.318  0.4304 -1.1448 -2.5020
11648TIP3   OH256358   1.476   1.682  14.298 -0.4971 -0.1359 -0.0184
11648TIP3    H156359   1.486   1.656  14.389  0.1705 -1.5053 -0.4644
11648TIP3    H256360   1.443   1.771  14.301 -1.0563 -0.3928  1.5649
11649TIP3   OH256361   3.304   3.029   0.655 -0.1517 -0.2384  0.1033
11649TIP3    H156362   3.284   2.939   0.682 -2.0452  0.7470  2.1382
11649TIP3    H256363   3.355   3.065   0.729  2.3883 -0.2297 -1.5828
11650TIP3   OH256364   0.331   5.561  12.626 -0.0653 -0.5019 -0.5612
11650TIP3    H156365   0.303   5.470  12.632  0.4234 -0.5321  1.6588
11650TIP3    H256366   0.319   5.584  12.534 -2.6039 -2.0348 -0.6593
11651TIP3   OH256367   2.819   2.526  14.703  0.3069  0.0334 -0.4128
11651TIP3    H156368   2.878   2.508  14.777  2.1046  2.8246 -1.0506
11651TIP3    H256369   2.877   2.561  14.635 -1.7792  0.6281 -1.9208
11652TIP3   OH256370   3.460   2.401  11.189  0.2551 -0.7532 -0.0265
11652TIP3    H156371   3.413   2.450  11.121 -0.2197  1.3321  1.7682
11652TIP3    H256372   3.536   2.454  11.209 -1.4031  0.4461  3.5041
11653TIP3   OH256373   0.041   5.312  13.828 -0.3455  0.1917 -0.0735
11653TIP3    H156374   0.022   5.273  13.743 -0.9627  0.2702  0.0271
11653TIP3    H256375   0.036   5.406  13.813 -1.1792  0.1911  0.2201
11654TIP3   OH256376   5.215   6.646   4.844  0.3962  0.4356  0.0860
11654TIP3    H156377   5.222   6.736   4.813  1.4248  0.8293  1.4077
11654TIP3    H256378   5.303   6.610   4.834  0.3189  0.0153  0.8607
11655TIP3   OH256379   3.991   5.977  13.810 -0.2694 -0.2474  0.1230
11655TIP3    H156380   3.898   5.982  13.830  0.3749  1.4331  2.9600
11655TIP3    H256381   4.028   5.923  13.880  1.3353  1.5700  0.7105
11656TIP3   OH256382   2.216   3.865   1.852  0.2480  0.3203  0.2119
11656TIP3    H156383   2.293   3.842   1.800  0.0284 -1.9323  0.8446
11656TIP3    H256384   2.142   3.854   1.793 -0.0824 -3.0366  1.1214
11657TIP3   OH256385   1.117   4.893  16.801 -0.5443 -0.2497  0.0169
11657TIP3    H156386   1.100   4.815  16.747 -4.0844  0.1551  0.4008
11657TIP3    H256387   1.129   4.964  16.737  2.4837 -1.0098 -0.3288
11658TIP3   OH256388   3.281   2.059   3.949  0.1350 -0.0806  0.2623
11658TIP3    H156389   3.332   1.998   3.896  1.6247  0.4518  1.0489
11658TIP3    H256390   3.250   2.125   3.886  0.9015 -0.0941 -0.1330
11659TIP3   OH256391   4.353   1.242   5.362  0.2012 -0.1371 -0.0214
11659TIP3    H156392   4.342   1.319   5.419 -1.0370 -0.3103  0.0022
11659TIP3    H256393   4.372   1.279   5.276 -0.4435  0.2024 -0.0228
11660TIP3   OH256394   0.340   0.673  11.586 -0.1122  0.3961  0.0908
11660TIP3    H156395   0.406   0.627  11.533  0.7393 -0.2679  1.6756
11660TIP3    H256396   0.359   0.766  11.573  0.1858  0.2383 -0.6310
11661TIP3   OH256397   5.690   4.346   4.846 -0.4191 -1.0206 -0.1962
11661TIP3    H156398   5.761   4.402   4.816 -1.1635  0.3238  0.4922
11661TIP3    H256399   5.712   4.324   4.936 -1.3070  0.1894  0.3449
11662TIP3   OH256400   5.993   5.971   0.670 -0.2282 -0.6931 -0.1521
11662TIP3    H156401   5.949   5.907   0.726  0.8578 -1.4901 -0.1881
11662TIP3    H256402   5.930   6.043   0.661 -0.0050 -0.0456  2.9598
11663TIP3   OH256403   6.612   1.711  15.732 -0.6145 -0.3327  0.3462
11663TIP3    H156404   6.535   1.665  15.700  1.5716 -3.9343  0.0113
11663TIP3    H256405   6.611   1.697  15.827 -0.1508 -0.8355  0.2839
11664TIP3   OH256406   5.433   4.022   0.896  0.8034 -0.1999  0.0344
11664TIP3    H156407   5.384   4.080   0.838 -1.1037 -0.1128  1.6418
11664TIP3    H256408   5.430   4.066   0.981  1.1158 -1.6607  0.8178
11665TIP3   OH256409   2.796   0.934   1.292  0.1959  0.3694 -0.0253
11665TIP3    H156410   2.877   0.906   1.335  0.9638  2.2802 -0.1970
11665TIP3    H256411   2.736   0.953   1.364  0.4840  0.6563  0.1400
11666TIP3   OH256412   0.775   5.977   2.915  0.0503  0.5972  0.0258
11666TIP3    H156413   0.855   5.980   2.864  0.2899  0.9104  0.4177
11666TIP3    H256414   0.757   5.883   2.926 -0.1514  0.5306 -0.8555
11667TIP3   OH256415   2.130   0.148  12.673 -0.0309 -0.2391  0.3798
11667TIP3    H156416   2.146   0.086  12.744 -1.7364 -0.7805  0.3310
11667TIP3    H256417   2.091   0.224  12.716  1.5691  0.5940  0.3728
11668TIP3   OH256418   0.041   4.061  11.456 -0.4143  0.7121 -0.0200
11668TIP3    H156419   0.089   4.108  11.523 -0.4917  2.3616 -1.0809
11668TIP3    H256420   0.087   4.082  11.374 -1.2628  0.0481 -0.6812
11669TIP3   OH256421   2.951   5.446   5.438 -0.7056 -0.5449  0.0626
11669TIP3    H156422   2.968   5.352   5.431 -0.2331 -0.3220 -1.9273
11669TIP3    H256423   2.998   5.472   5.517  2.1488 -1.3242 -1.3102
11670TIP3   OH256424   6.270   0.698   2.946  0.6368 -0.1830  0.1996
11670TIP3    H156425   6.179   0.728   2.954  0.5961  0.5902 -2.7311
11670TIP3    H256426   6.265   0.603   2.948 -0.3844 -0.1659 -1.2430
11671TIP3   OH256427   2.557   0.036  14.241  0.1922 -0.1572 -0.2138
11671TIP3    H156428   2.499   0.009  14.313  1.0341  0.0091  0.5318
11671TIP3    H256429   2.645   0.031  14.278  0.6199  0.0806 -1.1929
11672TIP3   OH256430   6.047   5.256  15.363 -0.1302  0.3697  0.0676
11672TIP3    H156431   6.008   5.280  15.447 -1.0307  1.2357 -0.5890
11672TIP3    H256432   6.099   5.333  15.338  0.2963  0.0376 -0.0772
11673TIP3   OH256433   4.463   6.554   0.231  0.0713  0.7564  0.1486
11673TIP3    H156434   4.450   6.482   0.171  3.3366  2.5756 -2.9520
11673TIP3    H256435   4.392   6.616   0.211 -1.2142 -0.4145  1.0278
11674TIP3   OH256436   3.946   5.561  12.873  0.1916 -1.1091  0.0736
11674TIP3    H156437   3.911   5.476  12.847 -2.8588 -0.1010  0.6980
11674TIP3    H256438   3.938   5.615  12.795 -0.6861 -0.5816  0.5157
11675TIP3   OH256439   2.165   6.182   3.939 -0.7372  0.1929 -0.3157
11675TIP3    H156440   2.172   6.278   3.944  0.5725  0.0909  0.2516
11675TIP3    H256441   2.115   6.165   3.860 -2.2024  1.3863  0.3293
11676TIP3   OH256442   2.171   2.560   3.420 -0.5052 -0.9772  0.0328
11676TIP3    H156443   2.168   2.649   3.456 -2.1066 -0.6737 -0.7977
11676TIP3    H256444   2.264   2.538   3.416 -0.0984  0.7121  0.1190
11677TIP3   OH256445   4.496   5.668   5.359 -0.5502 -0.0245  0.4679
11677TIP3    H156446   4.404   5.643   5.357 -0.6659  0.2475  1.8258
11677TIP3    H256447   4.517   5.692   5.269 -1.0871 -2.6538 -0.4144
11678TIP3   OH256448   0.692   2.068   2.291  0.3908 -0.4186  0.1441
11678TIP3    H156449   0.761   2.116   2.245 -0.1115  0.3673  0.2106
11678TIP3    H256450   0.726   2.058   2.380  1.3704 -1.9586 -0.3779
11679TIP3   OH256451   6.644   5.586   3.876 -0.5681 -0.1966 -0.5176
11679TIP3    H156452   6.624   5.615   3.965 -0.3304  2.6140 -1.3242
11679TIP3    H256453   6.717   5.525   3.886  0.6539  1.4677  1.0895
11680TIP3   OH256454   4.137   3.892   1.175 -0.5814  0.4518  0.0613
11680TIP3    H156455   4.079   3.874   1.248 -1.7262  0.1395 -0.9074
11680TIP3    H256456   4.225   3.885   1.212 -1.1366 -0.0401  1.3205
11681TIP3   OH256457   4.534   3.975  13.300  0.0989 -0.3007 -0.2146
11681TIP3    H156458   4.567   3.896  13.256  0.4455 -0.6446  0.6595
11681TIP3    H256459   4.448   3.951  13.332  1.0511 -1.0108  1.8888
11682TIP3   OH256460   6.419   3.360  12.214 -0.3108 -0.3095 -0.6461
11682TIP3    H156461   6.476   3.284  12.218 -0.7598 -0.6888 -1.4637
11682TIP3    H256462   6.335   3.329  12.249 -0.1718  0.1012  0.0512
11683TIP3   OH256463   6.665   3.389   4.977 -0.0322 -0.1928  0.3941
11683TIP3    H156464   6.618   3.393   4.894 -2.7146 -0.5790  1.8394
11683TIP3    H256465   6.690   3.297   4.987  0.9331 -0.0161 -0.2984
11684TIP3   OH256466   1.212   0.068  16.432  0.2515 -0.2365  0.7000
11684TIP3    H156467   1.138   0.014  16.461  0.1311 -0.3142  0.2429
11684TIP3    H256468   1.232   0.123  16.508 -0.5578  0.0914  0.6820
11685TIP3   OH256469   3.054   3.570   2.396 -0.1157 -0.2215  0.1421
11685TIP3    H156470   3.133   3.553   2.448  0.9748  0.8374 -1.1112
11685TIP3    H256471   3.062   3.662   2.370 -1.9540 -0.0014  0.2899
11686TIP3   OH256472   3.251   5.170  16.531  0.1484  0.0802  0.2206
11686TIP3    H156473   3.183   5.231  16.559 -0.4095  0.0690 -1.0904
11686TIP3    H256474   3.310   5.223  16.477 -0.5463 -0.6146 -1.2398
11687TIP3   OH256475   6.785   5.218  17.199  0.4645 -0.0671  0.0748
11687TIP3    H156476   6.772   5.123  17.198 -1.0832  0.1349 -0.8002
11687TIP3    H256477   6.878   5.229  17.219  0.5407 -1.7471  0.7533
11688TIP3   OH256478   4.657   1.336   2.527  0.2646  0.2605  0.1617
11688TIP3    H156479   4.646   1.242   2.518  0.8677  0.2524 -0.4736
11688TIP3    H256480   4.736   1.346   2.580  0.0590  0.4083  0.4441
11689TIP3   OH256481   1.797   2.272  16.694 -0.6354  0.2249 -0.7966
11689TIP3    H156482   1.704   2.283  16.713 -0.8441 -0.2153 -1.5704
11689TIP3    H256483   1.828   2.208  16.758 -1.4593 -1.6668 -2.2673
11690TIP3   OH256484   6.296   1.302  16.194  0.0008  0.3284  0.2627
11690TIP3    H156485   6.289   1.269  16.284  2.3995 -1.7667 -0.2750
11690TIP3    H256486   6.227   1.255  16.146  1.5318 -1.8536  0.1238
11691TIP3   OH256487   1.389   6.481  11.829 -0.6476 -0.3437 -0.2093
11691TIP3    H156488   1.315   6.443  11.877 -1.1022  0.1172 -0.5326
11691TIP3    H256489   1.435   6.405  11.793 -0.2472 -0.7019  1.0126
11692TIP3   OH256490   1.279   0.745   1.856  0.0926  0.3297 -0.5620
11692TIP3    H156491   1.303   0.830   1.891 -0.0385  0.1288  0.0179
11692TIP3    H256492   1.293   0.753   1.762  1.3476  0.5709 -0.3557
11693TIP3   OH256493   2.499   5.642   4.025 -0.5928 -0.1196  0.7612
11693TIP3    H156494   2.412   5.622   3.991 -0.7269  0.2015  0.9232
11693TIP3    H256495   2.489   5.725   4.071  0.3615  1.3211 -1.5370
11694TIP3   OH256496   5.511   3.896   2.919  0.4583  0.0149  0.2144
11694TIP3    H156497   5.464   3.979   2.907 -0.6338 -0.5770  0.2743
11694TIP3    H256498   5.579   3.916   2.983 -0.1197  0.7576  0.6084
11695TIP3   OH256499   0.740   2.007   3.134 -0.1163  0.0688  0.6886
11695TIP3    H156500   0.674   1.945   3.104  0.1997  0.3119 -0.5216
11695TIP3    H256501   0.822   1.958   3.134 -0.0358  0.2005  0.7001
11696TIP3   OH256502   0.771   6.371  10.946  0.0120  0.5437 -0.6820
11696TIP3    H156503   0.726   6.288  10.931 -0.2384  0.3148  1.1561
11696TIP3    H256504   0.845   6.348  11.002  0.7261  1.3527 -1.2872
11697TIP3   OH256505   0.873   6.242  12.047  0.1759 -0.7402  0.2467
11697TIP3    H156506   0.919   6.306  12.101  0.8195 -0.8211 -0.1989
11697TIP3    H256507   0.858   6.287  11.964 -2.3963  0.0181  1.0492
11698TIP3   OH256508   0.626   2.214  14.939  0.3760  0.2201  0.0736
11698TIP3    H156509   0.687   2.219  15.013 -0.3010 -1.0723  0.7439
11698TIP3    H256510   0.576   2.295  14.944 -0.2284 -0.2272  1.5461
11699TIP3   OH256511   1.105   2.977  11.742  0.2694 -0.1940  0.0363
11699TIP3    H156512   1.196   3.001  11.757  0.7124 -2.0837  0.4803
11699TIP3    H256513   1.078   3.030  11.667  1.9815 -0.2239 -0.6186
11700TIP3   OH256514   3.891   2.024   2.554  0.2367 -0.2774 -0.4613
11700TIP3    H156515   3.955   1.952   2.555  0.6510  0.0851  0.3632
11700TIP3    H256516   3.848   2.017   2.469  1.8064 -0.1683 -1.2959
11701TIP3   OH256517   6.602   5.586   1.912  0.5921  0.0286  0.4270
11701TIP3    H156518   6.694   5.604   1.933  1.3154  0.3357 -2.6867
11701TIP3    H256519   6.604   5.557   1.821 -2.4172  0.0384  0.3058
11702TIP3   OH256520   0.654   4.070  15.648  0.2881 -0.2234 -0.7683
11702TIP3    H156521   0.609   3.989  15.625  0.2194 -0.3021 -0.3665
11702TIP3    H256522   0.641   4.128  15.573 -0.5279 -0.2246 -0.6291
11703TIP3   OH256523   6.326   2.452  11.029  0.3680  1.0792  0.1065
11703TIP3    H156524   6.326   2.543  10.999 -0.7827  0.8757 -0.5670
11703TIP3    H256525   6.383   2.406  10.967 -0.7815  0.9475 -0.8723
11704TIP3   OH256526   0.182   3.825   1.388 -0.0088  0.3025 -0.1054
11704TIP3    H156527   0.233   3.772   1.449  1.7726  2.8903  0.7067
11704TIP3    H256528   0.216   3.802   1.301  1.0943  0.4923  0.2802
11705TIP3   OH256529   3.943   2.433   5.788 -0.4225  0.7013 -0.2517
11705TIP3    H156530   3.917   2.498   5.854 -1.5917 -1.1126  1.1370
11705TIP3    H256531   4.031   2.405   5.816  0.4702  2.2979 -1.3709
11706TIP3   OH256532   3.457   5.545   1.624  0.7447  0.3838 -0.3048
11706TIP3    H156533   3.409   5.552   1.542 -0.4184  1.2460  0.4353
11706TIP3    H256534   3.429   5.621   1.675  3.0609  1.0474  0.0655
11707TIP3   OH256535   3.735   4.339   5.922 -0.0557  0.3885 -0.2898
11707TIP3    H156536   3.735   4.311   5.830  2.9858 -1.1451  0.1254
11707TIP3    H256537   3.643   4.362   5.940 -0.7883  0.3140 -3.5575
11708TIP3   OH256538   3.808   1.904  14.588 -0.1524 -0.2114 -0.0576
11708TIP3    H156539   3.849   1.905  14.675  1.0637 -0.8160 -0.6165
11708TIP3    H256540   3.813   1.994  14.558 -0.1669 -0.0862  0.3152
11709TIP3   OH256541   5.171   3.608  15.122  0.0615 -0.2065  0.0374
11709TIP3    H156542   5.220   3.537  15.080 -0.5695  0.2265 -1.4461
11709TIP3    H256543   5.222   3.687  15.103 -0.7263  0.1200 -0.7037
11710TIP3   OH256544   5.876   4.068   2.697  0.2868 -0.4045 -0.5461
11710TIP3    H156545   5.784   4.050   2.680  0.2953 -0.9258 -0.0531
11710TIP3    H256546   5.924   3.998   2.653  0.4861  0.2187 -1.3417
11711TIP3   OH256547   0.820   0.067  11.211 -0.2903 -0.5896 -0.4558
11711TIP3    H156548   0.872   0.144  11.235 -0.7799 -0.4252  0.0843
11711TIP3    H256549   0.808   0.075  11.117  2.1789 -1.5668 -0.8797
11712TIP3   OH256550   0.669   3.776   1.518 -0.2288 -0.1703 -0.0049
11712TIP3    H156551   0.693   3.725   1.441  0.5245  0.3597 -0.1253
11712TIP3    H256552   0.708   3.862   1.504 -1.4926  0.4593  0.1895
11713TIP3   OH256553   5.757   5.758  13.101  0.5457 -0.5583 -0.3334
11713TIP3    H156554   5.738   5.665  13.111  0.3900 -0.7171 -1.9568
11713TIP3    H256555   5.715   5.783  13.018 -1.6438  1.5826  1.3449
11714TIP3   OH256556   6.246   6.100  12.963 -0.5878 -0.3430 -0.0837
11714TIP3    H156557   6.291   6.162  12.905 -2.7023  0.5860 -0.7685
11714TIP3    H256558   6.259   6.015  12.922  1.3149 -0.2249  0.2252
11715TIP3   OH256559   0.633   3.950  13.325  0.0692 -0.6302  0.1368
11715TIP3    H156560   0.550   3.903  13.331 -0.0357 -0.3776  0.7022
11715TIP3    H256561   0.624   4.006  13.248 -0.8485  0.4814  1.0257
11716TIP3   OH256562   2.926   3.964  16.085 -0.0859  0.1903  0.5952
11716TIP3    H156563   2.914   4.024  16.012  0.4426 -1.3545 -0.7794
11716TIP3    H256564   2.843   3.916  16.091  0.4628 -0.8478 -0.0657
11717TIP3   OH256565   4.058   0.243  10.573  0.2291  0.3918 -0.0517
11717TIP3    H156566   3.989   0.187  10.607  0.7437  1.0480  2.2138
11717TIP3    H256567   4.138   0.192  10.585  0.5628  1.1275  0.9694
11718TIP3   OH256568   6.446   6.380   0.898  0.5260  0.1379 -0.1855
11718TIP3    H156569   6.451   6.397   0.804 -0.2937  2.6638  0.1631
11718TIP3    H256570   6.403   6.458   0.934  0.7838 -0.7943  2.2832
11719TIP3   OH256571   6.137   2.022   2.600 -0.0423 -0.4200 -0.5764
11719TIP3    H156572   6.094   2.005   2.684  0.7116  1.6847  0.2544
11719TIP3    H256573   6.150   1.935   2.563 -1.4471 -1.3195  0.9422
11720TIP3   OH256574   1.056   6.734  16.106 -0.2628 -0.3508  0.0388
11720TIP3    H156575   0.988   6.742  16.039 -1.4307 -1.9001  1.0155
11720TIP3    H256576   1.039   6.650  16.148 -0.3459  1.1449  3.1292
11721TIP3   OH256577   1.431   6.608  16.620 -0.1493  0.2380  0.1466
11721TIP3    H156578   1.399   6.647  16.539 -2.4952  0.4906  1.1311
11721TIP3    H256579   1.379   6.528  16.630 -0.6594  0.7516  1.8897
11722TIP3   OH256580   0.838   5.800   0.141 -0.5407  0.3008 -0.6730
11722TIP3    H156581   0.919   5.777   0.095  0.7031  0.6616  1.2988
11722TIP3    H256582   0.780   5.725   0.125  0.4030 -0.2602 -1.5595
11723TIP3   OH256583   2.486   6.564  12.229 -0.0914 -0.4868  0.1843
11723TIP3    H156584   2.469   6.658  12.224 -1.3745 -0.6585  1.1865
11723TIP3    H256585   2.490   6.545  12.323  0.3146 -1.4164 -0.0095
11724TIP3   OH256586   2.904   2.208  13.685  0.2214  0.5461 -0.7707
11724TIP3    H156587   2.841   2.223  13.756  1.7222 -0.1992  0.7367
11724TIP3    H256588   2.887   2.119  13.656  0.9434  0.1542  0.0049
11725TIP3   OH256589   0.739   1.196  16.290  0.1237  0.5257  0.4107
11725TIP3    H156590   0.833   1.212  16.286  0.6542 -2.0030  2.0929
11725TIP3    H256591   0.717   1.200  16.383 -0.9382 -1.4301  0.2818
11726TIP3   OH256592   6.264   5.542   4.330 -0.2372 -0.1028 -0.0706
11726TIP3    H156593   6.192   5.597   4.299  1.1411  0.4317 -2.5370
11726TIP3    H256594   6.333   5.603   4.353  0.1190 -0.6691  0.3818
11727TIP3   OH256595   4.681   4.739   3.082  0.0674  0.1090  0.0467
11727TIP3    H156596   4.603   4.730   3.136 -0.3714  1.4831 -0.3470
11727TIP3    H256597   4.668   4.676   3.011 -0.7507  0.4598 -0.1105
11728TIP3   OH256598   5.589   1.732  11.904 -0.1322 -0.1182 -0.0465
11728TIP3    H156599   5.622   1.651  11.943  2.6589  0.0289 -1.9801
11728TIP3    H256600   5.587   1.713  11.810  1.8572  2.4672 -0.6589
11729TIP3   OH256601   3.405   3.974   5.172  0.2182 -0.2654 -0.4364
11729TIP3    H156602   3.424   4.006   5.260 -0.3579  1.5692 -0.9750
11729TIP3    H256603   3.483   3.924   5.147  0.7248 -0.0759  0.7700
11730TIP3   OH256604   4.979   3.333  13.200  0.2874 -0.7910 -0.1770
11730TIP3    H156605   5.005   3.333  13.108  1.5601  0.6667  0.1720
11730TIP3    H256606   4.963   3.425  13.221 -1.4955 -1.2635  0.6624
11731TIP3   OH256607   0.559   6.146   4.188  0.1672 -0.1186  0.4244
11731TIP3    H156608   0.464   6.160   4.192  0.1244 -0.7615  1.9987
11731TIP3    H256609   0.579   6.146   4.094 -1.2212  1.0894  0.0969
11732TIP3   OH256610   4.914   3.607  15.978  0.3083  0.3856  0.5589
11732TIP3    H156611   4.939   3.683  15.925  0.5531  1.3282  2.0124
11732TIP3    H256612   4.878   3.644  16.058 -1.4974 -1.0207  0.4379
11733TIP3   OH256613   3.881   3.797  11.834 -0.3736 -0.0593 -0.3813
11733TIP3    H156614   3.857   3.821  11.745 -0.3816 -0.7122 -0.5550
11733TIP3    H256615   3.800   3.811  11.885 -0.0392  1.4965 -0.2367
11734TIP3   OH256616   2.349   0.196  15.224 -0.5841 -0.3723 -0.5296
11734TIP3    H156617   2.361   0.267  15.286  2.0114 -0.6816 -0.6452
11734TIP3    H256618   2.435   0.157  15.214 -1.5026 -2.0741 -2.2403
11735TIP3   OH256619   3.377   4.641   6.210 -0.1561 -0.6267 -0.0470
11735TIP3    H156620   3.306   4.586   6.244 -1.0184 -0.3410 -1.3181
11735TIP3    H256621   3.425   4.583   6.150 -0.9700 -0.0688 -1.2658
11736TIP3   OH256622   6.171   5.517   5.820  0.4858  0.5044 -0.2342
11736TIP3    H156623   6.172   5.468   5.738  0.0966  1.2961 -0.7135
11736TIP3    H256624   6.079   5.523   5.843  0.7295 -1.8254  1.5501
11737TIP3   OH256625   0.568   5.768  14.154  0.2729 -0.0980 -0.0038
11737TIP3    H156626   0.483   5.747  14.191  0.2294 -0.7947 -0.4888
11737TIP3    H256627   0.569   5.864  14.149 -0.7695 -0.1109 -0.6655
11738TIP3   OH256628   3.296   1.887   5.347 -0.2882 -0.2506 -0.0096
11738TIP3    H156629   3.341   1.955   5.397 -1.0584  0.6391 -0.4934
11738TIP3    H256630   3.297   1.919   5.256 -0.3989 -1.0302 -0.2935
11739TIP3   OH256631   4.223   2.392  14.910 -0.2658  0.0502  0.0452
11739TIP3    H156632   4.158   2.429  14.851  0.2094 -0.6635 -0.9303
11739TIP3    H256633   4.291   2.460  14.917  0.3947 -0.4505 -1.3993
11740TIP3   OH256634   4.479   3.406  12.186 -0.0528 -0.1665 -0.3697
11740TIP3    H156635   4.385   3.415  12.166  0.4513 -0.1182 -2.7781
11740TIP3    H256636   4.500   3.316  12.161  0.6955  0.0414 -0.4811
11741TIP3   OH256637   0.137   4.484   5.602  0.1517 -0.3996  0.1702
11741TIP3    H156638   0.096   4.509   5.519  0.3834 -1.2481 -0.1992
11741TIP3    H256639   0.172   4.566   5.637  1.1993 -0.2567 -1.2038
11742TIP3   OH256640   0.317   0.386  14.353  0.3611 -0.3742 -0.0816
11742TIP3    H156641   0.297   0.373  14.446 -1.2684  0.6919 -0.2838
11742TIP3    H256642   0.329   0.480  14.344  0.7875 -0.5084 -0.9034
11743TIP3   OH256643   2.035   2.418  15.016 -0.3179  0.0048  0.1080
11743TIP3    H156644   2.001   2.434  15.104  0.2535  0.5153  0.2420
11743TIP3    H256645   2.129   2.432  15.024 -0.3103  0.4596 -0.6731
11744TIP3   OH256646   4.032   4.183  15.837 -0.5114 -0.8268 -0.3973
11744TIP3    H156647   4.096   4.112  15.834  0.9165  0.4263 -0.3288
11744TIP3    H256648   3.970   4.162  15.768 -0.2018 -2.2289 -0.2660
11745TIP3   OH256649   4.600   4.363   5.328  0.2299 -0.3529 -0.4019
11745TIP3    H156650   4.583   4.387   5.420  1.4769 -0.3595 -0.1572
11745TIP3    H256651   4.515   4.336   5.294 -0.7761  2.2233 -0.0245
11746TIP3   OH256652   1.727   4.258   1.290 -0.0024  0.0027  0.3037
11746TIP3    H156653   1.793   4.243   1.223 -1.1822  0.0846 -0.8851
11746TIP3    H256654   1.644   4.238   1.247 -0.7714  0.0770  1.7292
11747TIP3   OH256655   5.894   0.129   1.327  0.3218  0.2459 -0.1187
11747TIP3    H156656   5.846   0.203   1.363  1.3374  0.0753  1.6455
11747TIP3    H256657   5.954   0.168   1.263  0.6435  0.9056  0.5858
11748TIP3   OH256658   2.588   1.740  13.181  0.0595  0.0689  0.0811
11748TIP3    H156659   2.624   1.670  13.127  0.3236  0.3746 -0.1412
11748TIP3    H256660   2.590   1.817  13.125  3.3817  1.1525  1.5634
11749TIP3   OH256661   4.885   4.981  15.310  0.3312  0.1155 -0.0290
11749TIP3    H156662   4.968   5.027  15.304 -1.7820  4.0976 -0.1319
11749TIP3    H256663   4.873   4.965  15.404  0.7256  0.4392  0.0745
11750TIP3   OH256664   2.651   6.542  14.439  0.3871  0.3435  0.2484
11750TIP3    H156665   2.732   6.590  14.455 -0.2344  2.1397 -1.5961
11750TIP3    H256666   2.657   6.463  14.493  3.2923  0.5054  0.2128
11751TIP3   OH256667   6.754   0.373   3.730  0.0261 -0.1324  0.9069
11751TIP3    H156668   6.714   0.400   3.812  1.1549  1.2501  1.0141
11751TIP3    H256669   6.848   0.385   3.743  0.3140 -1.0920 -0.1592
11752TIP3   OH256670   2.296   3.167   3.545 -0.6383 -0.2966  0.0578
11752TIP3    H156671   2.298   3.261   3.561  1.1078  0.0145 -1.7075
11752TIP3    H256672   2.309   3.127   3.631  0.4533  1.1094  0.5667
11753TIP3   OH256673   4.032   5.108   4.724  0.1152  0.2391 -0.9291
11753TIP3    H156674   4.013   5.131   4.633  0.6088 -2.3688 -1.7598
11753TIP3    H256675   3.955   5.059   4.753  0.0845  0.8021 -0.0481
11754TIP3   OH256676   3.667   1.098   4.208 -0.2360  0.2092 -0.2809
11754TIP3    H156677   3.691   1.021   4.259  2.3485  0.2799 -1.3217
11754TIP3    H256678   3.681   1.072   4.117 -0.4161  1.5337 -0.6986
11755TIP3   OH256679   5.402   2.961  12.249  0.8793  0.2076  0.6833
11755TIP3    H156680   5.409   2.889  12.312  0.2427  0.4665  1.0539
11755TIP3    H256681   5.309   2.963  12.225  0.9804  0.6132  0.3264
11756TIP3   OH256682   4.902   0.124   6.109  0.3290  0.2325 -0.1135
11756TIP3    H156683   4.855   0.194   6.155 -0.1355 -0.6770  0.7897
11756TIP3    H256684   4.955   0.082   6.176  0.6895 -0.2302 -0.6830
11757TIP3   OH256685   0.236   5.165   1.243  0.0128  0.6627 -0.4355
11757TIP3    H156686   0.297   5.239   1.238  0.1095  0.7113  1.1249
11757TIP3    H256687   0.150   5.204   1.225 -0.0594  1.3539  1.3083
11758TIP3   OH256688   6.722   2.295  16.589  0.5531  0.1174 -0.1687
11758TIP3    H156689   6.796   2.250  16.547  2.3682  1.9780  0.9311
11758TIP3    H256690   6.744   2.296  16.682 -1.0438  0.3912  0.2291
11759TIP3   OH256691   4.527   5.703  16.224 -0.8009  0.2602  0.1975
11759TIP3    H156692   4.538   5.721  16.318  0.3474 -1.2152  0.3539
11759TIP3    H256693   4.562   5.781  16.181  0.2284  0.2303  0.9560
11760TIP3   OH256694   3.101   2.702  13.354  0.1356  0.1640  0.3739
11760TIP3    H156695   3.124   2.752  13.432  1.1651  1.9470 -1.0490
11760TIP3    H256696   3.005   2.694  13.358  0.2177 -0.1908  2.0548
11761TIP3   OH256697   5.597   2.859  16.677  0.4297  0.4946  0.6573
11761TIP3    H156698   5.562   2.780  16.636 -0.2684  0.3248  1.5640
11761TIP3    H256699   5.594   2.925  16.607 -0.4828  0.1411  0.3549
11762TIP3   OH256700   0.064   1.908   0.075 -0.3038 -0.2625 -0.0901
11762TIP3    H156701   0.111   1.829   0.100 -2.6146 -1.3943  0.8406
11762TIP3    H256702   0.055   1.902  -0.020 -0.0429 -0.8651 -0.0805
11763TIP3   OH256703   2.793   4.093  16.730  0.3023 -0.0999 -0.3913
11763TIP3    H156704   2.869   4.124  16.680 -1.0926  1.9966 -1.2590
11763TIP3    H256705   2.831   4.058  16.811  2.2501  0.1840 -1.1519
11764TIP3   OH256706   0.386   6.340   0.785 -0.4167  0.2512 -0.2288
11764TIP3    H156707   0.419   6.299   0.864  0.7643 -0.3435 -1.0149
11764TIP3    H256708   0.459   6.392   0.752 -0.9542  0.6367 -0.8353
11765TIP3   OH256709   4.472   5.103   1.857 -0.0153 -0.2701 -0.3107
11765TIP3    H156710   4.461   5.157   1.936 -0.5222  0.9021 -1.1684
11765TIP3    H256711   4.393   5.121   1.805  0.1410 -1.3282 -0.9158
11766TIP3   OH256712   5.688   4.764   5.537  0.0741 -0.3879 -0.2372
11766TIP3    H156713   5.709   4.782   5.629  1.1375 -0.9875 -0.3563
11766TIP3    H256714   5.614   4.705   5.541  0.2218 -0.5462  0.2425
11767TIP3   OH256715   6.265   0.766   0.666 -0.0031  0.1107  0.0238
11767TIP3    H156716   6.346   0.755   0.616  0.6356 -1.9870  1.4683
11767TIP3    H256717   6.291   0.815   0.744 -0.0920 -0.6758  0.5524
11768TIP3   OH256718   4.008   3.729   5.447 -0.0918  0.2019 -0.0940
11768TIP3    H156719   4.064   3.806   5.449  0.8894 -0.5036  0.2211
11768TIP3    H256720   3.919   3.763   5.441  0.3533  1.3451 -0.2225
11769TIP3   OH256721   4.057   1.468  16.887 -0.3383 -0.8127  0.2618
11769TIP3    H156722   4.122   1.404  16.917 -0.7350 -1.9888 -1.3441
11769TIP3    H256723   4.023   1.431  16.806  0.1748  1.9506 -1.2406
11770TIP3   OH256724   6.696   6.786   6.296  0.1882  0.1567  0.0138
11770TIP3    H156725   6.630   6.848   6.325  0.9472  1.7367 -1.5495
11770TIP3    H256726   6.743   6.832   6.227  1.1922 -1.9272 -0.7215
11771TIP3   OH256727   5.559   6.109  13.821 -0.3781  0.2324 -0.1073
11771TIP3    H156728   5.625   6.062  13.771 -0.2586  0.1566  0.1195
11771TIP3    H256729   5.531   6.180  13.763 -0.7760 -0.2879 -0.5607
11772TIP3   OH256730   2.952   3.320   2.298 -0.4990 -0.1958 -0.0090
11772TIP3    H156731   3.004   3.399   2.309 -0.4849 -0.5570  2.8856
11772TIP3    H256732   2.971   3.267   2.376 -0.1311 -3.2806 -2.1227
11773TIP3   OH256733   1.906   0.881   2.756  0.0525 -0.7189 -0.3504
11773TIP3    H156734   1.899   0.800   2.705 -0.1470 -0.6568 -0.4245
11773TIP3    H256735   1.862   0.946   2.702 -1.1610 -0.8941  0.4129
11774TIP3   OH256736   5.096   2.949  15.794  0.2367 -0.6361 -0.4120
11774TIP3    H156737   5.087   2.991  15.709  0.1135 -1.6541 -0.9153
11774TIP3    H256738   5.188   2.961  15.817  0.3264 -0.5712 -0.8006
11775TIP3   OH256739   4.233   6.468   4.304 -0.1158 -0.3043  0.4945
11775TIP3    H156740   4.284   6.425   4.372  1.6437 -0.9281 -1.2039
11775TIP3    H256741   4.287   6.541   4.276 -0.3425 -0.7152 -1.0230
11776TIP3   OH256742   4.265   1.979  16.867 -0.1427 -0.1093 -0.1321
11776TIP3    H156743   4.352   1.990  16.829 -0.0399 -0.6772 -0.0625
11776TIP3    H256744   4.248   1.885  16.861 -1.1387  0.1211 -1.0085
11777TIP3   OH256745   6.239   3.927  16.742  0.2996 -0.3701  0.3241
11777TIP3    H156746   6.148   3.944  16.718 -0.2298  0.1280  2.5685
11777TIP3    H256747   6.235   3.851  16.801  1.3260 -0.2606  0.5514
11778TIP3   OH256748   0.326   3.731   6.137 -0.1804 -0.1629 -0.5232
11778TIP3    H156749   0.307   3.647   6.178 -1.4567  0.1913 -0.3760
11778TIP3    H256750   0.273   3.731   6.057 -0.5896  0.7278 -0.2497
11779TIP3   OH256751   1.836   0.839  11.414  0.4861  0.0925  0.0226
11779TIP3    H156752   1.874   0.851  11.500 -0.4145  0.7706  0.3374
11779TIP3    H256753   1.748   0.805  11.430 -0.9863  3.4379 -0.4376
11780TIP3   OH256754   1.722   4.751   1.611 -0.4483 -0.6161  0.0287
11780TIP3    H156755   1.799   4.742   1.555  0.2154  0.3022  0.7776
11780TIP3    H256756   1.688   4.839   1.591 -2.0065 -1.4638 -1.1693
11781TIP3   OH256757   1.658   5.722   5.405 -0.2464 -0.2794 -0.2020
11781TIP3    H156758   1.750   5.722   5.378  0.5903  1.1577  2.4433
11781TIP3    H256759   1.637   5.814   5.418 -1.1610 -0.7809  2.0730
11782TIP3   OH256760   5.839   2.339   0.379  0.1260  0.3633 -0.3891
11782TIP3    H156761   5.760   2.296   0.412  0.0354 -1.0344 -2.3499
11782TIP3    H256762   5.906   2.269   0.379  0.9722  1.1626 -0.1134
11783TIP3   OH256763   0.786   1.057   0.423 -0.3716  0.1744 -0.0676
11783TIP3    H156764   0.795   1.029   0.514  0.5518 -0.9561 -0.4907
11783TIP3    H256765   0.867   1.105   0.405  0.4044 -1.3845 -0.8875
11784TIP3   OH256766   6.374   1.059  12.534  0.0086 -0.4115  0.3458
11784TIP3    H156767   6.348   1.050  12.443  0.0619 -0.6367  0.3561
11784TIP3    H256768   6.444   1.124  12.533  0.7202 -1.1793  0.1071
11785TIP3   OH256769   5.888   1.240  13.081  0.3794 -0.1122  0.2748
11785TIP3    H156770   5.963   1.184  13.095  0.5296 -0.0795 -0.3571
11785TIP3    H256771   5.871   1.281  13.166  0.5539 -0.7548  0.6210
11786TIP3   OH256772   5.029   0.287   5.204  0.2021 -0.1927  0.5822
11786TIP3    H156773   5.046   0.240   5.123  1.4850  1.8773 -0.4063
11786TIP3    H256774   4.936   0.307   5.202  0.2507 -0.0380 -0.4721
11787TIP3   OH256775   1.823   5.334   6.376 -0.3367  0.6825  0.8189
11787TIP3    H156776   1.842   5.407   6.318  1.4346 -0.4989 -0.1539
11787TIP3    H256777   1.880   5.347   6.451  0.0895  0.2386  0.5768
11788TIP3   OH256778   2.937   0.253  13.078 -0.0317  0.3931 -0.2670
11788TIP3    H156779   2.907   0.162  13.072  2.5798 -0.8203  3.4654
11788TIP3    H256780   2.929   0.286  12.989 -2.7166 -2.9434 -1.3721
11789TIP3   OH256781   0.211   6.262   1.444 -0.2366 -0.3762  0.6450
11789TIP3    H156782   0.134   6.280   1.391 -1.1415  0.1234  2.0998
11789TIP3    H256783   0.204   6.169   1.466  1.3333 -1.1654 -1.9457
11790TIP3   OH256784   6.411   5.297  12.826 -0.0343  0.0359  0.3279
11790TIP3    H156785   6.451   5.276  12.742 -1.5675  0.7740 -0.6055
11790TIP3    H256786   6.434   5.388  12.843  2.2533 -0.7672  1.8879
11791TIP3   OH256787   3.114   3.997   5.505 -0.1277  0.9608 -0.0059
11791TIP3    H156788   3.135   3.907   5.532 -0.7220  0.9849  0.5371
11791TIP3    H256789   3.087   3.988   5.413 -1.9391  0.3252  0.5717
11792TIP3   OH256790   5.555   5.168   5.999 -0.9351  0.1683  0.0905
11792TIP3    H156791   5.646   5.155   5.971 -0.5555 -1.6306  2.0333
11792TIP3    H256792   5.507   5.184   5.918  0.8729 -0.2167 -1.0970
11793TIP3   OH256793   0.434   4.291   4.814 -0.4530  0.2928 -0.0092
11793TIP3    H156794   0.362   4.308   4.753  0.0112  1.2227 -0.3045
11793TIP3    H256795   0.436   4.368   4.871  0.7672  0.6049 -0.4633
11794TIP3   OH256796   2.750   3.604   3.719 -0.1545  0.2588 -0.1706
11794TIP3    H156797   2.811   3.533   3.737  0.2130  0.3646 -0.9606
11794TIP3    H256798   2.677   3.561   3.674  0.3248  0.4511 -1.1623
11795TIP3   OH256799   2.441   0.018  12.810  0.1910 -0.8617 -0.5396
11795TIP3    H156800   2.492   0.074  12.868  1.1072 -1.2678 -0.9380
11795TIP3    H256801   2.393  -0.040  12.868  0.9125 -1.1039 -0.1817
11796TIP3   OH256802   5.991   6.295  14.153 -0.2034 -0.1264 -0.3562
11796TIP3    H156803   6.048   6.292  14.230 -2.1072  0.1875  1.0773
11796TIP3    H256804   5.966   6.204  14.138 -0.7620 -0.0495  0.1017
11797TIP3   OH256805   3.263   5.791  12.780  0.4135 -0.0960 -0.2092
11797TIP3    H156806   3.208   5.727  12.825 -1.9328  0.0154 -2.8035
11797TIP3    H256807   3.264   5.762  12.689  0.2210  2.9133 -1.2272
11798TIP3   OH256808   0.467   5.788  10.563  0.5072 -0.2076  0.0639
11798TIP3    H156809   0.377   5.774  10.535 -0.1335  1.8208  1.0329
11798TIP3    H256810   0.479   5.883  10.561  2.7475 -0.4660 -0.4205
11799TIP3   OH256811   3.614   3.101   2.282  0.2570 -0.2627  0.0096
11799TIP3    H156812   3.703   3.131   2.267 -0.1792  0.1800 -1.8718
11799TIP3    H256813   3.559   3.162   2.233 -1.0922 -0.5185  1.1511
11800TIP3   OH256814   1.804   3.339  13.374  0.2068 -0.2588 -0.8798
11800TIP3    H156815   1.897   3.335  13.395  0.4306 -0.7837 -1.9338
11800TIP3    H256816   1.789   3.262  13.320 -0.7254  0.1260 -1.1713
11801TIP3   OH256817   6.644   2.621   6.271  0.0164 -0.0112  0.2843
11801TIP3    H156818   6.650   2.528   6.253 -1.5049 -0.3955  1.6371
11801TIP3    H256819   6.581   2.628   6.343  3.4101  1.6952  3.2503
11802TIP3   OH256820   3.790   3.146   0.007  0.7303  0.2218 -0.4462
11802TIP3    H156821   3.728   3.097   0.060  0.8591 -0.9388 -1.3541
11802TIP3    H256822   3.836   3.203   0.069  0.0941 -0.3034  0.5023
11803TIP3   OH256823   5.595   4.701   4.779 -0.5970  0.1314 -0.0642
11803TIP3    H156824   5.620   4.735   4.693  1.5123  0.2830  0.5882
11803TIP3    H256825   5.585   4.607   4.765 -0.7980  0.2319 -0.6070
11804TIP3   OH256826   5.006   6.741  13.287  0.4021 -0.4892  0.0982
11804TIP3    H156827   5.056   6.706  13.213 -1.3743 -2.1988 -0.3540
11804TIP3    H256828   4.937   6.793  13.245  1.8980  2.0402  0.7130
11805TIP3   OH256829   4.756   0.256   4.370 -0.2269  0.3602 -0.2542
11805TIP3    H156830   4.702   0.194   4.419  0.3120 -0.0747 -0.2001
11805TIP3    H256831   4.741   0.340   4.412  0.0993  0.0224  0.5533
11806TIP3   OH256832   6.672   1.878   2.757  0.0990 -0.3505  0.1464
11806TIP3    H156833   6.604   1.831   2.805  0.4562  0.1492  1.1595
11806TIP3    H256834   6.671   1.966   2.795 -0.8929  0.6059 -2.0430
11807TIP3   OH256835   4.326   1.621  10.903  0.1028 -0.0382 -0.2956
11807TIP3    H156836   4.281   1.693  10.859 -0.7700  0.4083  1.3031
11807TIP3    H256837   4.293   1.543  10.860  0.3324  0.4553 -1.3970
11808TIP3   OH256838   5.548   5.212   2.099 -0.0440  0.0433 -0.3410
11808TIP3    H156839   5.584   5.155   2.031  0.6236  1.2327 -1.0189
11808TIP3    H256840   5.474   5.256   2.056  0.4498  0.8836 -0.3535
11809TIP3   OH256841   0.451   3.051  15.916  0.3041 -0.1543  0.5447
11809TIP3    H156842   0.525   2.994  15.940  0.4829 -0.0719  0.1937
11809TIP3    H256843   0.420   3.086  15.999  2.2079  1.7501  0.4893
11810TIP3   OH256844   4.321   1.498   3.952 -0.4809 -0.5778 -0.5524
11810TIP3    H156845   4.328   1.544   3.869  0.0876  0.1076 -0.1321
11810TIP3    H256846   4.345   1.408   3.932 -1.2638 -0.6208 -1.3143
11811TIP3   OH256847   5.104   0.563   1.267  0.1478 -0.4794  0.0174
11811TIP3    H156848   5.072   0.624   1.201  1.9435  0.8813  0.3478
11811TIP3    H256849   5.154   0.498   1.218  1.9267  0.8246  0.0282
11812TIP3   OH256850   1.264   0.811  15.409 -0.2921  0.0177 -0.0119
11812TIP3    H156851   1.223   0.868  15.474  0.8964  1.4832 -0.5183
11812TIP3    H256852   1.357   0.830  15.415  0.0893 -1.6408 -0.4309
11813TIP3   OH256853   6.199   2.910  15.715 -0.1910 -0.7039 -0.6768
11813TIP3    H156854   6.126   2.969  15.695 -0.7977 -0.7983  1.1721
11813TIP3    H256855   6.160   2.840  15.766  0.9763 -1.4386 -0.7820
11814TIP3   OH256856   2.724   6.664  12.069  0.3015  0.4939 -0.0272
11814TIP3    H156857   2.762   6.744  12.103 -1.2542  1.3830 -0.3434
11814TIP3    H256858   2.637   6.660  12.108  1.1804 -2.2702  1.8676
11815TIP3   OH256859   0.202   2.761  13.616  0.4980  0.4300  0.4097
11815TIP3    H156860   0.281   2.780  13.564  0.6719  0.2772  0.6165
11815TIP3    H256861   0.195   2.666  13.612  0.4711  0.4250  0.6092
11816TIP3   OH256862   0.488   3.532   2.697 -0.8648  0.1137  0.2420
11816TIP3    H156863   0.449   3.447   2.717 -0.0148 -0.2258  0.4464
11816TIP3    H256864   0.477   3.542   2.603 -0.0253 -0.6916  0.0569
11817TIP3   OH256865   1.576   3.971  14.097  0.0135  0.1312  0.2040
11817TIP3    H156866   1.590   4.064  14.112 -0.3857  0.1048  0.7458
11817TIP3    H256867   1.573   3.933  14.184 -1.5339 -0.1391  0.0329
11818TIP3   OH256868   0.408   6.754   0.794 -0.0309 -0.2606 -0.2558
11818TIP3    H156869   0.313   6.740   0.794  0.2030 -1.8616 -0.3047
11818TIP3    H256870   0.442   6.695   0.861  1.1142 -0.9937 -1.4620
11819TIP3   OH256871   6.192   4.528   4.382  0.4084 -0.7644 -0.2297
11819TIP3    H156872   6.181   4.602   4.442 -1.2097 -2.1574  1.2497
11819TIP3    H256873   6.111   4.478   4.391  1.5242 -2.7874 -1.1277
11820TIP3   OH256874   5.091   1.523   4.772 -0.1559  0.1329  0.7646
11820TIP3    H156875   5.001   1.538   4.802 -0.6371  1.7504 -1.3811
11820TIP3    H256876   5.146   1.556   4.843 -1.2514  0.2169  1.5883
11821TIP3   OH256877   4.113   0.393  13.085  0.6521 -0.1362 -0.2442
11821TIP3    H156878   4.137   0.331  13.155  0.1189  0.2243  0.2637
11821TIP3    H256879   4.023   0.418  13.106  1.1576  1.4648  0.0275
11822TIP3   OH256880   2.775   0.908   4.472 -0.1223  0.1032  0.8698
11822TIP3    H156881   2.684   0.918   4.497 -0.4863  1.2581 -0.7943
11822TIP3    H256882   2.775   0.837   4.408  0.0923  0.2581  0.6933
11823TIP3   OH256883   3.467   2.834   3.238 -0.2921  0.3670 -0.6941
11823TIP3    H156884   3.383   2.878   3.254 -2.9380 -2.9896 -4.1455
11823TIP3    H256885   3.495   2.869   3.153  1.6791  1.2240  0.2991
11824TIP3   OH256886   3.271   0.812  11.723 -0.0768  0.1416  0.4076
11824TIP3    H156887   3.327   0.887  11.701 -0.3804  0.2302 -0.0675
11824TIP3    H256888   3.214   0.844  11.793  2.3064 -0.7584  2.8663
11825TIP3   OH256889   0.737   0.027  15.547 -0.1387 -0.2374 -0.0791
11825TIP3    H156890   0.732   0.087  15.472 -0.7925 -0.5752 -0.3147
11825TIP3    H256891   0.714  -0.058  15.510 -1.6289 -0.2094  0.7364
11826TIP3   OH256892   1.869   0.902  10.731 -0.3473  0.0716  0.4932
11826TIP3    H156893   1.821   0.950  10.664 -0.3977  0.3231  0.7061
11826TIP3    H256894   1.864   0.811  10.704 -2.7001 -0.1595  1.5792
11827TIP3   OH256895   2.065   5.621   2.837 -0.2670  0.3127  0.5554
11827TIP3    H156896   2.137   5.684   2.830 -0.4721  0.6292  1.2614
11827TIP3    H256897   1.995   5.660   2.783  0.9493 -1.2674 -2.3101
11828TIP3   OH256898   6.162   4.967   3.979  0.1206  0.0541  0.4537
11828TIP3    H156899   6.158   4.908   3.903 -0.3213 -0.5292  0.9287
11828TIP3    H256900   6.205   4.916   4.047 -1.4280 -0.1745  1.2764
11829TIP3   OH256901   5.838   3.869   0.102 -0.4698  0.2168  0.2542
11829TIP3    H156902   5.921   3.821   0.103 -0.5914  0.0038  0.1809
11829TIP3    H256903   5.782   3.818   0.044 -0.8905 -0.0350  0.8823
11830TIP3   OH256904   6.409   2.896   5.735  0.3390 -0.2956  0.0375
11830TIP3    H156905   6.434   2.818   5.785  1.4566 -0.1525 -0.2975
11830TIP3    H256906   6.486   2.952   5.736 -0.3416  0.6627 -0.0284
11831TIP3   OH256907   0.003   4.054   0.638 -0.3695  0.3912 -0.1490
11831TIP3    H156908  -0.034   4.108   0.569  0.4550  0.4216 -0.5799
11831TIP3    H256909  -0.070   4.003   0.672 -0.0708 -2.7540 -3.8949
11832TIP3   OH256910   4.635   0.779   4.372 -0.6135  0.5968 -0.2966
11832TIP3    H156911   4.614   0.686   4.379 -0.4267  0.7598  2.9129
11832TIP3    H256912   4.605   0.817   4.454 -0.1919  3.2975 -1.3439
11833TIP3   OH256913   0.587   5.759  16.313 -0.8655  0.5143  0.4602
11833TIP3    H156914   0.558   5.731  16.227  0.7352 -3.2569  1.0596
11833TIP3    H256915   0.517   5.731  16.372 -0.0040 -0.8422  0.8656
11834TIP3   OH256916   5.378   4.509   4.006 -0.6616 -0.1941  0.0663
11834TIP3    H156917   5.375   4.599   3.973  0.2080  0.0173  0.5304
11834TIP3    H256918   5.384   4.454   3.928 -1.4012  0.1345 -0.2292
11835TIP3   OH256919   1.292   6.753  15.519 -0.7855 -0.4904  0.3925
11835TIP3    H156920   1.335   6.835  15.541 -2.7484  0.5820  0.3757
11835TIP3    H256921   1.309   6.696  15.594  2.9439 -1.0690 -0.8068
11836TIP3   OH256922   0.619   5.796   2.152  0.0687 -0.6504  0.3030
11836TIP3    H156923   0.605   5.884   2.117 -1.1464 -1.1447 -0.4897
11836TIP3    H256924   0.711   5.777   2.135  0.4068  0.5969  0.7620
11837TIP3   OH256925   5.158   5.784   2.465  0.5911 -0.0054  0.0124
11837TIP3    H156926   5.152   5.742   2.379  2.2091 -0.5664  0.1489
11837TIP3    H256927   5.101   5.860   2.458 -0.5968 -0.9661 -1.0070
11838TIP3   OH256928   0.953   5.185  16.964  0.2941  0.7300  0.0639
11838TIP3    H156929   0.877   5.242  16.958  1.2825  2.4289  2.7377
11838TIP3    H256930   1.019   5.227  16.908  0.4896  1.3528  0.7516
11839TIP3   OH256931   3.876   3.031   2.499  0.1636  0.2571 -0.5435
11839TIP3    H156932   3.944   3.094   2.474 -0.6258  1.1250 -0.5424
11839TIP3    H256933   3.871   2.970   2.426  1.9311 -0.6606  0.0685
11840TIP3   OH256934   2.628   3.588  12.346 -0.0224  0.2716  0.1205
11840TIP3    H156935   2.652   3.678  12.368  0.8666 -0.1398  0.8386
11840TIP3    H256936   2.542   3.576  12.386 -1.2553  1.5714 -2.0216
11841TIP3   OH256937   0.713   2.637   1.312 -0.3410 -0.1130  0.5001
11841TIP3    H156938   0.770   2.705   1.347  0.5916  0.2668 -1.6509
11841TIP3    H256939   0.773   2.565   1.290 -0.4896  0.6668 -2.7158
11842TIP3   OH256940   5.254   3.699   2.060 -0.3599  0.3390  0.4873
11842TIP3    H156941   5.192   3.626   2.057  0.0172 -0.0231  1.2533
11842TIP3    H256942   5.287   3.707   1.970  0.3028 -1.0591  0.5917
11843TIP3   OH256943   0.996   2.680  14.721  0.3765 -0.0722  0.3186
11843TIP3    H156944   0.968   2.769  14.697 -0.5327 -0.8154 -1.4142
11843TIP3    H256945   1.081   2.670  14.678 -0.5459 -0.8405 -1.3613
11844TIP3   OH256946   2.392   5.106   2.601 -0.2537 -0.1957  0.3860
11844TIP3    H156947   2.478   5.137   2.574 -0.1669 -0.2580  0.5845
11844TIP3    H256948   2.411   5.029   2.656 -0.4446 -0.3467  0.2411
11845TIP3   OH256949   5.168   6.320   4.988 -0.5697 -0.0754  0.4534
11845TIP3    H156950   5.145   6.236   5.027 -0.3522  0.1705  1.1236
11845TIP3    H256951   5.226   6.298   4.915  1.0931 -0.4065  1.8431
11846TIP3   OH256952   5.280   0.782   2.415 -0.8211 -1.2630  0.6642
11846TIP3    H156953   5.301   0.719   2.484 -1.8343 -1.7542  0.5327
11846TIP3    H256954   5.191   0.813   2.437 -0.6805 -0.5366  0.2423
11847TIP3   OH256955   3.459   4.782   0.762  0.3763  0.0973  0.4576
11847TIP3    H156956   3.522   4.726   0.807  0.0015 -0.8905 -0.2319
11847TIP3    H256957   3.461   4.752   0.671 -0.8217  0.3048  0.3621
11848TIP3   OH256958   5.961   4.858   3.026 -0.1330 -0.1937  0.0719
11848TIP3    H156959   6.021   4.932   3.033  0.3373 -0.3192 -2.1983
11848TIP3    H256960   5.880   4.889   3.066  0.0462  1.5756 -0.9105
11849TIP3   OH256961   2.024   2.268  15.866 -0.8816  0.3539  0.0692
11849TIP3    H156962   2.071   2.251  15.948  0.2342 -0.7270 -0.7854
11849TIP3    H256963   2.091   2.270  15.799 -1.9713 -0.5373 -1.0714
11850TIP3   OH256964   4.763   5.949  11.787 -0.5457  0.1369  0.0173
11850TIP3    H156965   4.837   5.968  11.843 -0.1444 -1.2549 -0.0079
11850TIP3    H256966   4.709   5.888  11.839 -0.5137 -0.6231 -0.8223
11851TIP3   OH256967   2.735   2.006   1.501  0.1153  0.9550 -0.1917
11851TIP3    H156968   2.649   1.977   1.469  0.7868 -1.1083 -0.2289
11851TIP3    H256969   2.782   2.032   1.422  0.5099 -0.6903 -0.5329
11852TIP3   OH256970   6.148   0.491   2.618 -0.3825  0.2278 -0.3115
11852TIP3    H156971   6.188   0.466   2.702 -0.2402 -0.2112 -0.5091
11852TIP3    H256972   6.142   0.587   2.622  1.7837  0.3950 -0.7812
11853TIP3   OH256973   0.627   0.843   0.303  0.0532  0.2791  0.5686
11853TIP3    H156974   0.683   0.920   0.301  1.2557 -0.5712 -3.1611
11853TIP3    H256975   0.538   0.877   0.300  0.5893  1.6179 -3.0748
11854TIP3   OH256976   6.256   2.089   1.913 -0.1112 -0.6817  0.2276
11854TIP3    H156977   6.323   2.146   1.953 -2.5410  1.7267  0.9879
11854TIP3    H256978   6.245   2.018   1.977  2.2280 -1.5540 -0.2655
11855TIP3   OH256979   0.197   3.762   4.174  0.1674  0.1903  0.1970
11855TIP3    H156980   0.282   3.788   4.140  0.5420  0.9389  1.6908
11855TIP3    H256981   0.199   3.666   4.173  0.4783  0.2027 -1.1054
11856TIP3   OH256982   4.676   1.641   4.622  0.0111  0.4947  0.2775
11856TIP3    H156983   4.597   1.694   4.608  0.1327  0.8505  0.8965
11856TIP3    H256984   4.739   1.702   4.660  0.2198 -0.0410  0.8100
11857TIP3   OH256985   2.080   2.146  15.328  0.2421 -0.4638  0.0245
11857TIP3    H156986   2.107   2.067  15.280 -2.2844 -1.9028  0.8825
11857TIP3    H256987   2.162   2.194  15.342  1.8818 -3.0071 -0.3819
11858TIP3   OH256988   3.596   2.287   3.725  0.5611 -0.0463 -0.0732
11858TIP3    H156989   3.627   2.376   3.743 -1.5645  0.3756  1.7433
11858TIP3    H256990   3.514   2.299   3.678  1.4665 -1.1052 -1.9679
11859TIP3   OH256991   4.475   2.469   4.455 -0.0763  0.5809  0.0544
11859TIP3    H156992   4.470   2.562   4.479  0.4959  0.8456 -0.8578
11859TIP3    H256993   4.551   2.436   4.503 -1.0336  0.2711  1.3949
11860TIP3   OH256994   5.086   6.277   0.571  0.3501  0.2250 -0.2491
11860TIP3    H156995   5.165   6.269   0.517  0.2595 -0.3319 -0.3008
11860TIP3    H256996   5.096   6.362   0.614  2.0604 -0.8033  1.4590
11861TIP3   OH256997   6.575   2.905  13.281  0.1387  0.2908  0.2189
11861TIP3    H156998   6.486   2.890  13.313 -0.2195  3.3161  0.7642
11861TIP3    H256999   6.632   2.872  13.351 -0.5889  1.3741  1.3317
11862TIP3   OH257000   1.744   0.476  16.056 -0.1662  0.5232 -0.0277
11862TIP3    H157001   1.775   0.532  15.985  1.1425 -1.3456 -0.9728
11862TIP3    H257002   1.652   0.461  16.036 -0.4647  2.1301  0.1058
11863TIP3   OH257003   0.534   3.438  12.022 -0.6530 -0.2047  0.1498
11863TIP3    H157004   0.570   3.350  12.013 -1.2073 -0.4891  0.6775
11863TIP3    H257005   0.472   3.445  11.950 -1.7535 -0.8196  1.0273
11864TIP3   OH257006   3.748   0.889   2.885  0.9218 -0.6109 -0.7077
11864TIP3    H157007   3.790   0.898   2.971  0.2957 -1.6215 -0.2888
11864TIP3    H257008   3.772   0.801   2.856  1.1819 -0.2425 -1.5990
11865TIP3   OH257009   2.402   5.601   5.348  0.0356  0.2785  0.2684
11865TIP3    H157010   2.435   5.588   5.437  1.3193  2.4901  0.1490
11865TIP3    H257011   2.323   5.654   5.358  0.9164  1.6717  0.0345
11866TIP3   OH257012   3.837   3.295  15.837 -0.1028 -0.2279 -0.8262
11866TIP3    H157013   3.854   3.204  15.859 -0.1250 -0.1619 -0.5286
11866TIP3    H257014   3.922   3.338  15.843 -0.5601  0.3753  1.9789
11867TIP3   OH257015   1.108   3.205  16.879 -0.3102  0.5123 -0.4263
11867TIP3    H157016   1.123   3.282  16.825 -0.2709  2.5780  2.4401
11867TIP3    H257017   1.018   3.215  16.911 -0.3589 -0.6991 -0.1472
11868TIP3   OH257018   4.549   1.285  13.459 -0.1981 -0.2739 -0.0067
11868TIP3    H157019   4.632   1.279  13.505 -0.9232  0.4645  1.4042
11868TIP3    H257020   4.486   1.239  13.515 -1.5324  2.4742  0.8144
11869TIP3   OH257021   4.104   6.655  11.233  0.5705  0.1777 -0.4659
11869TIP3    H157022   4.192   6.621  11.222 -0.3772 -1.8419 -2.2301
11869TIP3    H257023   4.116   6.749  11.247  3.0125 -0.1720 -0.0243
11870TIP3   OH257024   2.059   0.888   1.114 -0.5721  0.2104  0.0658
11870TIP3    H157025   2.038   0.952   1.046 -0.4710  0.6532  0.4512
11870TIP3    H257026   1.997   0.816   1.099 -0.4386  0.2270 -0.6008
11871TIP3   OH257027   2.957   1.131  11.544 -0.2064  0.4643  0.2604
11871TIP3    H157028   3.037   1.077  11.543 -0.3720  0.2089  0.9511
11871TIP3    H257029   2.921   1.121  11.456  1.2133  1.6089 -0.4855
11872TIP3   OH257030   4.736   4.075  14.131 -0.3981  0.4440  0.0347
11872TIP3    H157031   4.805   4.108  14.075 -0.1340 -0.3422 -0.1070
11872TIP3    H257032   4.716   4.148  14.191  2.1038 -0.0592  1.5507
11873TIP3   OH257033   3.285   3.296   4.149 -0.2566 -0.1046 -0.0356
11873TIP3    H157034   3.346   3.239   4.103  0.4711  0.3819  0.3195
11873TIP3    H257035   3.224   3.326   4.081  1.0766  0.9735 -0.7916
11874TIP3   OH257036   0.625   4.075   1.762 -0.7829  0.0848  0.1099
11874TIP3    H157037   0.597   4.163   1.787 -1.2260  0.2631 -0.9988
11874TIP3    H257038   0.672   4.088   1.680 -1.5447 -0.8091 -0.4717
11875TIP3   OH257039   3.408   1.557  13.210 -0.1339 -0.4512  0.3220
11875TIP3    H157040   3.391   1.597  13.125 -0.8913 -2.0835 -0.3123
11875TIP3    H257041   3.497   1.586  13.232 -0.5548  1.3208 -0.2430
11876TIP3   OH257042   3.481   1.684  13.488 -0.5734 -0.6122  0.0538
11876TIP3    H157043   3.411   1.711  13.428  0.5952  0.2735 -0.9413
11876TIP3    H257044   3.561   1.695  13.437  0.4414  0.2476  1.8028
11877TIP3   OH257045   1.708   2.440  10.337  0.0818 -0.3327  0.2516
11877TIP3    H157046   1.722   2.523  10.381  0.0877  0.3973 -1.0855
11877TIP3    H257047   1.790   2.392  10.348  0.6186  0.4562 -0.2537
11878TIP3   OH257048   2.370   2.105  12.474  0.2442  0.0731 -0.6812
11878TIP3    H157049   2.378   2.177  12.536  2.1559 -0.6255 -0.0727
11878TIP3    H257050   2.449   2.111  12.420 -0.2557 -0.7403 -1.5281
11879TIP3   OH257051   4.998   0.227  16.069  0.1953 -0.4437  0.2523
11879TIP3    H157052   5.020   0.320  16.071  0.7145 -0.5150 -1.5341
11879TIP3    H257053   4.954   0.214  15.985 -0.1174 -1.7537  0.6081
11880TIP3   OH257054   6.558   1.122   5.864  0.2957  0.5342  0.5919
11880TIP3    H157055   6.575   1.114   5.958  0.2452 -0.6505  0.5022
11880TIP3    H257056   6.639   1.159   5.828  1.2744 -1.4092  0.7384
11881TIP3   OH257057   5.333   4.730   5.160 -0.2673  0.0054 -0.3944
11881TIP3    H157058   5.396   4.662   5.137  1.4222  1.1889  0.5832
11881TIP3    H257059   5.292   4.754   5.077 -0.0819 -1.4122 -0.9098
11882TIP3   OH257060   0.154   0.479   5.467  0.4547  0.0843  0.1771
11882TIP3    H157061   0.095   0.524   5.528  1.0134 -0.1848  0.9318
11882TIP3    H257062   0.096   0.436   5.405 -0.1068  1.1643 -0.0626
11883TIP3   OH257063   2.138   4.379  11.457 -0.7627 -0.4717  0.1143
11883TIP3    H157064   2.176   4.437  11.390  1.0415  1.2218  2.5330
11883TIP3    H257065   2.185   4.297  11.447 -0.3638 -0.1694 -0.5472
11884TIP3   OH257066   6.541   0.133  16.446 -0.0642 -0.0340 -0.5916
11884TIP3    H157067   6.635   0.152  16.451  0.3199 -1.5970 -1.4661
11884TIP3    H257068   6.516   0.157  16.357 -0.0919 -1.3141 -0.9353
11885TIP3   OH257069   2.371   4.448   0.316 -0.9378  0.5836  0.6950
11885TIP3    H157070   2.353   4.380   0.382 -1.1957  1.2730  1.3318
11885TIP3    H257071   2.321   4.420   0.239 -1.9072  0.6205  1.3042
11886TIP3   OH257072   5.649   4.370  13.224 -0.0682  0.0748  0.0064
11886TIP3    H157073   5.561   4.399  13.250 -0.0717 -0.3861  0.5190
11886TIP3    H257074   5.707   4.440  13.256 -0.1628 -0.0528  0.4609
11887TIP3   OH257075   0.027   6.151  16.968 -0.4431  0.8436 -0.2295
11887TIP3    H157076   0.053   6.234  17.008 -0.3903  0.6426  0.1507
11887TIP3    H257077  -0.068   6.159  16.956 -0.8506 -0.0507  2.1641
11888TIP3   OH257078   5.812   3.151  12.289  0.2843 -0.3069 -0.8392
11888TIP3    H157079   5.843   3.193  12.370  0.3338 -1.4396 -0.2622
11888TIP3    H257080   5.766   3.221  12.242  1.5718  0.7555 -0.5517
11889TIP3   OH257081   3.430   4.419  17.106  0.0981 -0.3259  0.6631
11889TIP3    H157082   3.349   4.375  17.130 -0.1288 -0.4368 -0.2852
11889TIP3    H257083   3.499   4.364  17.144 -0.2283 -0.8892  0.4498
11890TIP3   OH257084   4.568   0.453   2.070  0.8317 -0.2470 -0.1790
11890TIP3    H157085   4.620   0.374   2.083  1.5510  0.5595  2.2143
11890TIP3    H257086   4.502   0.450   2.139  0.2172  0.7317 -0.7038
11891TIP3   OH257087   0.254   1.548   2.983  1.1928 -0.1278 -0.5677
11891TIP3    H157088   0.283   1.612   2.917 -2.1173  1.2817 -0.7345
11891TIP3    H257089   0.161   1.534   2.964  0.5552 -0.9330  2.8281
11892TIP3   OH257090   5.087   2.133  15.769  0.4646 -0.0882  0.0692
11892TIP3    H157091   5.170   2.181  15.774  1.2856 -1.5154  0.3379
11892TIP3    H257092   5.022   2.200  15.749  1.4228  1.3116  1.5726
11893TIP3   OH257093   4.051   3.543   3.267  0.2632 -0.1820 -0.3199
11893TIP3    H157094   4.097   3.488   3.330  1.8165  0.2642 -1.0299
11893TIP3    H257095   4.081   3.632   3.287 -0.4816  0.1402 -0.6308
11894TIP3   OH257096   2.039   3.739  12.906  0.4059 -0.9402 -0.1169
11894TIP3    H157097   2.038   3.819  12.853 -2.0239 -1.4783 -0.9538
11894TIP3    H257098   2.119   3.746  12.959  1.1635  1.1695 -1.4716
11895TIP3   OH257099   1.746   2.677   1.105  0.0780  0.1541 -0.4314
11895TIP3    H157100   1.687   2.724   1.046 -0.1497 -1.3284 -1.4219
11895TIP3    H257101   1.743   2.587   1.074  1.9243 -0.1723  0.2738
11896TIP3   OH257102   1.462   4.530   4.152  0.0096  0.6332 -0.0019
11896TIP3    H157103   1.443   4.619   4.180  0.1059 -0.2233  2.9893
11896TIP3    H257104   1.377   4.487   4.147  0.1767  0.1098  1.4592
11897TIP3   OH257105   1.238   1.208   0.299  0.0794  0.1119  0.1165
11897TIP3    H157106   1.271   1.148   0.232  0.0675  1.6357 -1.3104
11897TIP3    H257107   1.252   1.163   0.382  1.9308 -0.9922 -0.7767
11898TIP3   OH257108   4.310   2.851  12.219 -0.8606  0.0451 -0.7909
11898TIP3    H157109   4.332   2.944  12.217 -0.6147 -0.0148 -0.7917
11898TIP3    H257110   4.385   2.809  12.260 -1.1615 -0.1010 -0.3824
11899TIP3   OH257111   6.659   3.804   5.019  0.1032  0.3982 -0.2143
11899TIP3    H157112   6.596   3.755   4.967 -1.4848  0.4959  1.5684
11899TIP3    H257113   6.685   3.743   5.089  1.8353  0.4363 -0.7903
11900TIP3   OH257114   3.491   4.393   1.107  0.4549  0.0709  0.5327
11900TIP3    H157115   3.498   4.360   1.196  0.2274 -1.4713 -0.0015
11900TIP3    H257116   3.476   4.315   1.054 -0.1951  1.0560 -0.7590
11901TIP3   OH257117   0.593   1.496  11.252 -0.4374 -0.1584  0.8163
11901TIP3    H157118   0.642   1.467  11.174 -0.5733 -0.0839  0.7027
11901TIP3    H257119   0.655   1.551  11.300 -0.4386  0.0152  0.6225
11902TIP3   OH257120   2.234   5.045  14.482  0.5978  0.0725  0.1306
11902TIP3    H157121   2.290   5.090  14.546 -0.8161  2.4247 -0.2185
11902TIP3    H257122   2.161   5.011  14.535  0.0912  0.9013 -0.0179
11903TIP3   OH257123   5.017   5.304  14.049 -0.1430  0.5343 -0.7108
11903TIP3    H157124   4.979   5.257  13.974 -2.7295  2.1727 -0.4966
11903TIP3    H257125   4.942   5.322  14.106  1.5744  0.5897  1.6007
11904TIP3   OH257126   2.254   6.043   0.296 -0.0237 -0.1042  0.4138
11904TIP3    H157127   2.194   5.974   0.270 -0.0308 -0.4628  1.3682
11904TIP3    H257128   2.338   6.017   0.258 -0.1226 -0.4266  0.4119
11905TIP3   OH257129   2.702   5.941   1.098  1.2562 -0.0415 -0.5401
11905TIP3    H157130   2.772   5.891   1.056 -0.2629 -2.1853 -0.6097
11905TIP3    H257131   2.625   5.925   1.043  0.1236  0.2080  0.9513
11906TIP3   OH257132   3.137   4.453   5.583  0.1210  0.0948 -0.2277
11906TIP3    H157133   3.098   4.372   5.548 -0.0432  1.4068 -3.2702
11906TIP3    H257134   3.232   4.439   5.574  0.1047  0.1091 -0.4183
11907TIP3   OH257135   6.648   1.188  16.576  0.2872  0.2926  0.1175
11907TIP3    H157136   6.624   1.268  16.621  0.1556  0.5366 -0.3777
11907TIP3    H257137   6.713   1.216  16.510 -1.0329  0.2828 -1.2181
11908TIP3   OH257138   0.012   3.604   4.663 -0.1982 -0.3299 -0.6644
11908TIP3    H157139  -0.078   3.637   4.660 -0.6165 -1.2494  1.2367
11908TIP3    H257140   0.066   3.680   4.638 -1.5894 -0.3219 -3.8100
11909TIP3   OH257141   4.403   3.335  10.957 -0.3335  0.1921  0.1289
11909TIP3    H157142   4.442   3.420  10.976 -0.5433  0.2757  0.1930
11909TIP3    H257143   4.347   3.350  10.881  1.5657 -0.4505 -1.4288
11910TIP3   OH257144   5.872   0.467   5.230 -0.5175  0.5909 -0.0998
11910TIP3    H157145   5.880   0.482   5.136 -0.3156  1.5025  0.0579
11910TIP3    H257146   5.955   0.497   5.267 -0.8971  0.9929  0.4542
11911TIP3   OH257147   4.793   0.754  13.678 -0.4247 -0.4381 -0.0939
11911TIP3    H157148   4.703   0.720  13.684 -0.9229  0.7981 -0.5022
11911TIP3    H257149   4.792   0.810  13.600  0.6516 -0.2663  0.0155
11912TIP3   OH257150   6.592   3.624   5.819  0.8794  0.5275 -0.0860
11912TIP3    H157151   6.612   3.708   5.859  0.5811  1.2356 -1.3864
11912TIP3    H257152   6.527   3.645   5.752  0.5287 -0.7989 -0.1719
11913TIP3   OH257153   0.183   5.525   3.586  0.3854 -0.4703 -0.4853
11913TIP3    H157154   0.238   5.590   3.542  0.9434 -0.1959  0.5878
11913TIP3    H257155   0.245   5.470   3.634 -0.0512 -2.0414 -1.6686
11914TIP3   OH257156   6.585   4.736  13.669 -0.5140 -0.3849 -0.3952
11914TIP3    H157157   6.622   4.687  13.742 -0.6310  0.4739  0.2352
11914TIP3    H257158   6.492   4.715  13.671 -0.6833  0.4497  0.3214
11915TIP3   OH257159   0.532   0.536   4.865  0.2058 -0.1776  0.1979
11915TIP3    H157160   0.476   0.499   4.796  0.8044 -0.7014 -0.0052
11915TIP3    H257161   0.538   0.629   4.843  0.7114 -0.4131 -0.6736
11916TIP3   OH257162   5.056   5.289   0.771  0.5286  0.7395  0.8695
11916TIP3    H157163   5.071   5.209   0.822  1.0032  0.9124  1.0054
11916TIP3    H257164   5.141   5.332   0.768  1.0591 -0.4548 -2.1110
11917TIP3   OH257165   5.473   0.853   4.873 -0.3286 -0.6887  0.6313
11917TIP3    H157166   5.525   0.821   4.946 -0.5910  2.1438  2.1120
11917TIP3    H257167   5.531   0.912   4.825 -1.1360 -0.0722  0.3949
11918TIP3   OH257168   0.533   0.865  15.624 -0.0039 -0.4682  0.3878
11918TIP3    H157169   0.554   0.781  15.666  0.6906 -0.4364  0.1117
11918TIP3    H257170   0.479   0.841  15.549  0.5909 -0.7122  0.0347
11919TIP3   OH257171   5.636   2.120   3.149 -0.4519  0.5400  0.5325
11919TIP3    H157172   5.599   2.059   3.086  0.2716  0.5589  0.0819
11919TIP3    H257173   5.718   2.079   3.178  1.1591  2.2654 -1.4108
11920TIP3   OH257174   1.186   5.248   3.847 -0.7555 -0.1118 -0.5255
11920TIP3    H157175   1.282   5.240   3.842 -0.9237 -2.3294 -0.3060
11920TIP3    H257176   1.162   5.287   3.763  0.1362 -1.7464 -1.5720
11921TIP3   OH257177   4.948   4.204  16.837  0.8562 -0.0045  0.5535
11921TIP3    H157178   5.007   4.155  16.780  1.8132  0.5828  1.0274
11921TIP3    H257179   4.996   4.214  16.919 -0.2687 -0.3192  1.2589
11922TIP3   OH257180   4.509   4.567  17.194  0.2022 -0.3170  0.0491
11922TIP3    H157181   4.491   4.612  17.276 -0.6863 -1.4013  0.4645
11922TIP3    H257182   4.586   4.611  17.159 -0.0370  0.8341  0.9473
11923TIP3   OH257183   0.457   3.875  16.830 -0.0879 -0.2363 -0.0887
11923TIP3    H157184   0.438   3.910  16.917 -0.0007  1.6863 -0.8104
11923TIP3    H257185   0.404   3.796  16.823 -1.3050  0.4732  1.1041
11924TIP3   OH257186   5.135   5.063  17.050  0.5806  0.0316  0.3831
11924TIP3    H157187   5.131   5.145  17.000  1.4234 -0.5690 -0.7026
11924TIP3    H257188   5.059   5.066  17.108  0.4303  1.4409  0.1319
11925TIP3   OH257189   0.363   0.407   3.251  0.4733  0.0917  0.0448
11925TIP3    H157190   0.437   0.350   3.232  1.2351  0.6976  1.0595
11925TIP3    H257191   0.365   0.473   3.182  3.8002  2.8491  2.5421
11926TIP3   OH257192   6.361   4.892  16.821  0.6912  0.0960 -0.1807
11926TIP3    H157193   6.368   4.797  16.834  0.1299  0.3379  1.9734
11926TIP3    H257194   6.449   4.919  16.798  1.5124 -0.5473  2.0703
11927TIP3   OH257195   1.537   1.989  15.405 -0.3639  0.6859  0.1851
11927TIP3    H157196   1.480   2.008  15.331 -1.1009 -1.8413  0.0720
11927TIP3    H257197   1.527   2.066  15.463 -1.3950  1.7103 -1.3164
11928TIP3   OH257198   0.155   1.933  12.066 -0.4856 -0.6044 -0.3303
11928TIP3    H157199   0.246   1.905  12.063 -0.1019  0.5268  0.4455
11928TIP3    H257200   0.148   2.001  11.999 -0.2349  0.7679  1.0087
11929TIP3   OH257201   2.419   1.011  12.546  0.2185  0.0918  0.3660
11929TIP3    H157202   2.342   0.956  12.552 -1.7145  2.8581  2.1029
11929TIP3    H257203   2.493   0.950  12.554 -1.7239 -2.6395 -1.7068
11930TIP3   OH257204   2.364   6.022   4.969 -0.1971  0.7571  0.8314
11930TIP3    H157205   2.278   6.038   4.931 -0.4068  0.7731  1.3167
11930TIP3    H257206   2.415   6.100   4.946  0.2169  0.0023 -0.9557
11931TIP3   OH257207   1.270   5.993  15.131  0.0263 -0.0900  0.3141
11931TIP3    H157208   1.344   5.935  15.148  1.1223  1.4926  1.0583
11931TIP3    H257209   1.280   6.018  15.039  0.7008  0.4934  0.5397
11932TIP3   OH257210   3.511   4.842  14.642 -0.0855  0.8362  0.4151
11932TIP3    H157211   3.600   4.831  14.678 -0.6101 -0.6383  1.2938
11932TIP3    H257212   3.463   4.888  14.711 -0.2493  0.8053  0.3216
11933TIP3   OH257213   0.786   3.036   2.244 -0.3530 -0.6615  0.5682
11933TIP3    H157214   0.876   3.008   2.263 -0.6197  0.1703  3.2627
11933TIP3    H257215   0.742   2.956   2.214  1.3768 -0.9839 -1.1899
11934TIP3   OH257216   3.709   5.561  10.547 -0.2073 -0.1311 -0.5460
11934TIP3    H157217   3.772   5.565  10.619  0.0790  1.5944 -0.8569
11934TIP3    H257218   3.633   5.516  10.583  0.2070  0.1119  0.6336
11935TIP3   OH257219   4.193   4.612  17.161 -0.2813 -0.1097 -0.4251
11935TIP3    H157220   4.132   4.685  17.146  0.1422  0.2205 -0.5627
11935TIP3    H257221   4.252   4.614  17.086  0.1248 -0.1982 -0.1117
11936TIP3   OH257222   1.606   5.221   3.284  0.1109  0.1288  0.0093
11936TIP3    H157223   1.672   5.263   3.340  0.9238 -0.3175 -0.5978
11936TIP3    H257224   1.522   5.251   3.318  0.6233  0.4320  1.0166
11937TIP3   OH257225   3.947   1.117  14.282 -0.2913  0.4047 -0.5066
11937TIP3    H157226   3.898   1.080  14.209 -0.5298  0.0955 -0.1905
11937TIP3    H257227   4.025   1.155  14.242  0.0004 -0.5173 -0.8153
11938TIP3   OH257228   2.153   2.187   0.119  0.4633 -0.3528 -0.0179
11938TIP3    H157229   2.222   2.248   0.092  1.0370 -0.7275  0.5794
11938TIP3    H257230   2.140   2.205   0.212  1.1738 -1.6497  0.3400
11939TIP3   OH257231   2.730   2.586   3.569  0.3973 -0.1652  0.2164
11939TIP3    H157232   2.778   2.611   3.490  1.7199  0.8699  1.2957
11939TIP3    H257233   2.733   2.665   3.624 -2.1689 -0.2248  0.5245
11940TIP3   OH257234   0.973   3.447  15.375 -0.3255 -0.0481  0.0305
11940TIP3    H157235   0.994   3.361  15.340  1.3360  0.9993 -1.6322
11940TIP3    H257236   0.940   3.496  15.299 -0.5471  1.0072  0.8025
11941TIP3   OH257237   5.775   6.349  11.416  0.1249 -0.3772  0.0153
11941TIP3    H157238   5.853   6.297  11.398  0.8863  0.8687 -0.3971
11941TIP3    H257239   5.720   6.338  11.339 -1.1591 -3.0692  1.2574
11942TIP3   OH257240   0.719   2.483  16.210 -1.0008  0.2867  0.1526
11942TIP3    H157241   0.755   2.524  16.289 -0.8986 -0.6298  0.5920
11942TIP3    H257242   0.795   2.463  16.155 -1.0274  0.4648  0.0538
11943TIP3   OH257243   2.621   5.747  10.471 -0.7026  0.4681 -0.3408
11943TIP3    H157244   2.611   5.683  10.401 -0.1512 -2.7958  2.4407
11943TIP3    H257245   2.713   5.744  10.494 -1.0754  0.7019  1.2578
11944TIP3   OH257246   1.586   4.323   2.970  0.1639 -0.3402 -0.0232
11944TIP3    H157247   1.562   4.264   3.042  1.9590 -1.6600 -0.4871
11944TIP3    H257248   1.572   4.272   2.891  0.6942  0.2173 -0.4831
11945TIP3   OH257249   4.440   1.877   0.376 -0.5025  0.6830  0.3794
11945TIP3    H157250   4.447   1.791   0.334 -0.0883  2.7413 -3.9910
11945TIP3    H257251   4.525   1.889   0.419 -1.0497 -1.5908  2.2368
11946TIP3   OH257252   2.990   0.626   0.981  0.9549 -0.6921 -0.2654
11946TIP3    H157253   3.046   0.615   0.905  0.6274 -0.5465 -0.5271
11946TIP3    H257254   2.918   0.681   0.951  1.2736  0.0891  0.3713
11947TIP3   OH257255   4.862   1.378   4.897 -0.3745 -0.4783  0.4629
11947TIP3    H157256   4.828   1.298   4.858  1.2547 -1.6063  1.2884
11947TIP3    H257257   4.931   1.349   4.956  0.7888  1.5987  0.1911
11948TIP3   OH257258   3.519   3.592  11.597 -0.4127 -0.5169  0.9971
11948TIP3    H157259   3.426   3.615  11.596 -0.5821 -1.2068  0.4026
11948TIP3    H257260   3.563   3.671  11.567 -0.9206 -0.6400 -0.0977
11949TIP3   OH257261   1.283   0.071   4.847 -0.7691  0.3058  0.3214
11949TIP3    H157262   1.369   0.105   4.820 -0.5116 -2.2480 -2.1828
11949TIP3    H257263   1.220   0.134   4.813 -0.0164  1.2015  0.5621
11950TIP3   OH257264   4.296   2.459  14.247  0.0247 -0.0747  0.1742
11950TIP3    H157265   4.207   2.475  14.278  0.2288  0.7377  0.3566
11950TIP3    H257266   4.320   2.375  14.287 -0.7074 -0.3654  0.0087
11951TIP3   OH257267   3.444   3.517  12.795  0.1898  0.1837 -0.3022
11951TIP3    H157268   3.522   3.473  12.828 -0.2123 -0.9541 -0.8123
11951TIP3    H257269   3.447   3.502  12.700 -0.0138  1.1774 -0.4686
11952TIP3   OH257270   2.898   1.480  12.662 -0.3539 -0.1400 -0.0550
11952TIP3    H157271   2.934   1.464  12.749  0.2863 -0.0243 -0.2955
11952TIP3    H257272   2.953   1.550  12.626  0.3345 -1.1980 -1.1122
11953TIP3   OH257273   6.709   0.432  15.104 -0.2710 -0.1288  0.2147
11953TIP3    H157274   6.641   0.487  15.142 -1.8667 -0.8850 -1.4491
11953TIP3    H257275   6.683   0.343  15.126  0.5044 -0.3920  0.0843
11954TIP3   OH257276   3.172   1.263  12.734  0.3358  0.7376 -0.1242
11954TIP3    H157277   3.104   1.323  12.765 -0.2600  0.3749 -0.7199
11954TIP3    H257278   3.153   1.180  12.777 -2.3976 -0.6753 -3.7805
11955TIP3   OH257279   1.057   4.845   4.964 -0.1411  0.3579 -0.4646
11955TIP3    H157280   0.969   4.829   4.997  0.0805  0.3684  0.1520
11955TIP3    H257281   1.091   4.758   4.943 -0.4598  0.3931 -1.1349
11956TIP3   OH257282   6.315   4.482  12.005  0.0752 -0.0445  0.1859
11956TIP3    H157283   6.409   4.492  11.996  0.2398 -1.6967 -0.0999
11956TIP3    H257284   6.297   4.505  12.096  0.8468 -0.2901  0.4058
11957TIP3   OH257285   1.012   5.492  17.198 -0.5420  0.2155  0.0867
11957TIP3    H157286   0.938   5.461  17.251  1.4028 -1.7743  1.7290
11957TIP3    H257287   1.062   5.547  17.258 -0.1587  0.7725 -0.7411
11958TIP3   OH257288   3.426   5.919  15.588  0.0210 -0.4334 -0.0761
11958TIP3    H157289   3.386   5.854  15.647  1.5683  0.5770  2.1551
11958TIP3    H257290   3.470   5.866  15.522 -0.5614 -1.6428  0.4768
11959TIP3   OH257291   2.164   3.562  13.841 -0.0166  0.1964 -0.8192
11959TIP3    H157292   2.079   3.539  13.877  1.2610 -2.6084  0.4919
11959TIP3    H257293   2.182   3.494  13.776  0.9373  1.1612 -1.5920
11960TIP3   OH257294   3.114   1.868   5.891  0.7664  0.0471 -0.1136
11960TIP3    H157295   3.119   1.950   5.841  1.4349  0.2282  0.2532
11960TIP3    H257296   3.027   1.871   5.931  0.1344 -0.1954 -1.4113
11961TIP3   OH257297   1.571   4.134   3.855  0.9404  0.0422  0.4120
11961TIP3    H157298   1.572   4.132   3.759  0.4665  1.0463  0.3815
11961TIP3    H257299   1.567   4.227   3.877  1.7827 -0.1538  1.4192
11962TIP3   OH257300   3.695   1.350   1.531  0.6003 -0.1565  0.1332
11962TIP3    H157301   3.611   1.351   1.576  0.2088 -0.4615 -0.5707
11962TIP3    H257302   3.703   1.437   1.493 -0.4556 -0.8048 -1.6737
11963TIP3   OH257303   0.593   4.844  11.798 -0.3482 -0.0364 -0.0490
11963TIP3    H157304   0.557   4.914  11.744 -0.9349 -0.0858  0.2659
11963TIP3    H257305   0.663   4.806  11.746  0.4038  1.2130  0.0473
11964TIP3   OH257306   0.752   6.749  16.040 -0.6435  0.3159  0.2150
11964TIP3    H157307   0.712   6.818  15.988  0.3980 -0.4483 -1.6255
11964TIP3    H257308   0.702   6.670  16.017  1.2610 -0.4716 -1.4187
11965TIP3   OH257309   3.906   0.509  13.412 -0.0307 -0.0199  0.2901
11965TIP3    H157310   3.971   0.556  13.465 -1.2055  0.9582  0.8966
11965TIP3    H257311   3.907   0.554  13.328 -0.0129  0.0895  0.3468
11966TIP3   OH257312   5.029   6.104   0.993 -0.4004 -0.0960 -0.0655
11966TIP3    H157313   4.940   6.078   0.969 -0.4101  1.7882 -2.2058
11966TIP3    H257314   5.082   6.027   0.974 -1.2373 -0.4445 -1.0084
11967TIP3   OH257315   3.821   1.478  15.009  0.1064 -0.2397  0.1997
11967TIP3    H157316   3.861   1.410  14.955  1.2399  1.3669 -1.0205
11967TIP3    H257317   3.732   1.485  14.975  0.6687  0.4381 -1.1724
11968TIP3   OH257318   2.352   4.941   2.351 -0.6336  0.2188  0.0708
11968TIP3    H157319   2.404   4.949   2.431 -0.8630  0.5496  0.1845
11968TIP3    H257320   2.407   4.890   2.292  0.9176  2.7356 -0.7332
11969TIP3   OH257321   1.428   5.189  10.659 -0.4437  0.0587  0.8797
11969TIP3    H157322   1.496   5.224  10.717  1.4374  0.7761 -1.6415
11969TIP3    H257323   1.357   5.253  10.664  0.6232  1.2938  0.7243
11970TIP3   OH257324   2.624   3.336   2.856  0.3859  0.5949  0.0562
11970TIP3    H157325   2.714   3.365   2.839  0.2086  0.7878 -0.5620
11970TIP3    H257326   2.634   3.254   2.903  0.9070 -0.5210 -1.9174
11971TIP3   OH257327   4.839   2.785  11.444 -0.2339 -0.0559  0.5102
11971TIP3    H157328   4.768   2.850  11.443  1.0984  1.4240  0.8669
11971TIP3    H257329   4.868   2.782  11.535  0.2580 -0.5714  0.3377
11972TIP3   OH257330   2.692   2.522   4.825  0.0389  0.0972  0.2596
11972TIP3    H157331   2.746   2.504   4.902  0.7282 -0.0819 -0.2522
11972TIP3    H257332   2.730   2.466   4.757  1.0591  2.1208 -0.8817
11973TIP3   OH257333   5.049   0.123  12.129  0.3319  0.1596  0.2363
11973TIP3    H157334   5.037   0.028  12.131 -0.3471  0.2624  1.9021
11973TIP3    H257335   5.139   0.137  12.158  0.6922 -0.0141 -0.7934
11974TIP3   OH257336   2.307   0.792   1.033 -0.0709 -0.1097  0.7658
11974TIP3    H157337   2.217   0.823   1.046  0.2511  1.7404 -1.1854
11974TIP3    H257338   2.355   0.825   1.110 -0.2365  2.3477 -0.1322
11975TIP3   OH257339   3.950   3.226   2.235  0.2602 -0.2048 -0.0230
11975TIP3    H157340   3.981   3.153   2.180 -0.9278 -1.0100  0.3690
11975TIP3    H257341   4.009   3.299   2.213  0.7132 -0.9402 -1.2850
11976TIP3   OH257342   4.842   5.968  16.985 -0.1586 -0.6640  0.0496
11976TIP3    H157343   4.890   5.892  16.951  0.4089  0.2468 -1.1827
11976TIP3    H257344   4.797   6.004  16.909 -0.9260 -0.1264  0.7605
11977TIP3   OH257345   6.159   3.725  14.516 -0.3205  0.2602  0.0414
11977TIP3    H157346   6.126   3.636  14.528 -0.8729  0.7353  2.1082
11977TIP3    H257347   6.081   3.777  14.498  0.0793  0.2287 -1.9162
11978TIP3   OH257348   1.162   3.126   5.836  0.3366  0.4728  0.0161
11978TIP3    H157349   1.101   3.185   5.880  1.0396  1.9545 -0.9314
11978TIP3    H257350   1.217   3.091   5.906  0.5989  1.7927  0.4828
11979TIP3   OH257351   4.583   5.615   2.335 -0.4508 -0.1339  0.3499
11979TIP3    H157352   4.490   5.593   2.330 -0.7025  1.0711 -0.5468
11979TIP3    H257353   4.625   5.557   2.271 -0.4508 -1.3156  1.4051
11980TIP3   OH257354   2.587   6.182   2.592 -0.6198  0.2167 -0.4946
11980TIP3    H157355   2.519   6.163   2.528 -0.7751 -1.3427  0.1248
11980TIP3    H257356   2.546   6.165   2.676 -0.3496  2.0464  0.0274
11981TIP3   OH257357   2.826   4.432  13.856  0.0924  0.0824 -0.5045
11981TIP3    H157358   2.878   4.354  13.835 -0.7249  0.0614 -2.5401
11981TIP3    H257359   2.763   4.439  13.784 -1.2787  1.3714  0.8029
11982TIP3   OH257360   5.485   5.597  12.058  0.7509  0.2085 -0.3034
11982TIP3    H157361   5.529   5.679  12.037  1.0441  0.3719  0.9201
11982TIP3    H257362   5.522   5.570  12.142  1.0455 -1.4496 -0.9485
11983TIP3   OH257363   3.848   1.690  13.140  0.2019  0.0846  0.3435
11983TIP3    H157364   3.926   1.715  13.190 -0.9533  0.1966  2.1143
11983TIP3    H257365   3.787   1.763  13.152 -0.6918 -0.6104  0.1191
11984TIP3   OH257366   6.726   6.544  11.490  0.1383 -0.4527 -0.5887
11984TIP3    H157367   6.752   6.557  11.581  1.4966 -0.1234 -1.0068
11984TIP3    H257368   6.677   6.623  11.467  0.0584 -0.3982 -0.2270
11985TIP3   OH257369   6.781   4.744  14.368  0.4012 -0.4042 -0.4926
11985TIP3    H157370   6.752   4.801  14.298  1.7926 -1.0432 -1.6103
11985TIP3    H257371   6.860   4.787  14.403  0.9837 -1.2173 -0.7984
11986TIP3   OH257372   1.726   0.120   1.877 -0.2653  0.0846 -0.0511
11986TIP3    H157373   1.710   0.121   1.783 -0.1961  2.1851 -0.0510
11986TIP3    H257374   1.821   0.127   1.885 -0.0805 -2.2775  0.1555
11987TIP3   OH257375   1.767   6.262  16.484 -0.5056  0.3112 -0.0549
11987TIP3    H157376   1.861   6.244  16.477 -0.8389 -1.1047 -1.1968
11987TIP3    H257377   1.762   6.347  16.528  1.3393  0.9327 -0.9861
11988TIP3   OH257378   3.229   3.755   5.180  0.3916  0.0830  0.2459
11988TIP3    H157379   3.237   3.704   5.261  0.2048  0.1039  0.2780
11988TIP3    H257380   3.290   3.828   5.191  0.7957 -0.2352  0.1230
11989TIP3   OH257381   5.620   0.680   5.009 -0.2842  0.1143  0.5152
11989TIP3    H157382   5.574   0.596   5.009  1.4896 -0.9003 -0.2954
11989TIP3    H257383   5.702   0.662   4.963  1.0668  1.7680  2.1818
11990TIP3   OH257384   4.878   1.307  12.397 -1.1948 -0.2994  0.3940
11990TIP3    H157385   4.892   1.215  12.378 -1.5945 -0.3430  0.2946
11990TIP3    H257386   4.842   1.343  12.315 -1.1463 -0.0815  0.4673
11991TIP3   OH257387   6.440   1.966  15.557  0.2896 -0.5480 -0.2701
11991TIP3    H157388   6.500   1.960  15.632 -0.1824  0.0395  0.1616
11991TIP3    H257389   6.361   2.004  15.594 -0.4338 -1.5240 -0.7954
11992TIP3   OH257390   6.275   0.227   3.433  0.5339 -0.5234  0.0364
11992TIP3    H157391   6.222   0.160   3.477  0.2497 -0.0533  0.4064
11992TIP3    H257392   6.340   0.253   3.499 -0.9417  1.3988  0.7750
11993TIP3   OH257393   6.475   0.278  12.304 -0.1791 -0.4567  0.3602
11993TIP3    H157394   6.567   0.267  12.280  0.1960  0.2260  1.4086
11993TIP3    H257395   6.476   0.347  12.371 -1.2002 -1.9401  1.9560
11994TIP3   OH257396   2.839   5.905   5.290 -0.1582  0.2470 -0.2269
11994TIP3    H157397   2.876   5.983   5.249 -0.9567  0.2308 -1.0003
11994TIP3    H257398   2.813   5.934   5.377  0.6891  0.5202 -0.0539
11995TIP3   OH257399   0.117   0.373   2.141  0.2379  0.1434 -0.0867
11995TIP3    H157400   0.069   0.425   2.076  0.7306 -1.3337 -1.6664
11995TIP3    H257401   0.207   0.406   2.137  0.2974 -0.0379 -0.2546
11996TIP3   OH257402   3.307   0.444  14.203 -0.0330  0.2893  0.3176
11996TIP3    H157403   3.363   0.464  14.278  0.9024 -0.8353 -0.0666
11996TIP3    H257404   3.365   0.450  14.127 -1.1188  2.0319 -0.3938
11997TIP3   OH257405   5.549   3.446   2.249  0.0497 -0.0470 -0.1129
11997TIP3    H157406   5.637   3.456   2.286  0.5766  0.3453 -1.4555
11997TIP3    H257407   5.493   3.495   2.309  0.6575 -0.7234  1.0411
11998TIP3   OH257408   4.586   1.368   4.055  0.3120 -0.5949  0.5878
11998TIP3    H157409   4.510   1.311   4.069 -1.2428  0.4449 -2.9122
11998TIP3    H257410   4.565   1.448   4.102 -0.2021 -0.7766  0.6738
11999TIP3   OH257411   1.154   5.562   0.358  0.4027 -0.0279 -0.1093
11999TIP3    H157412   1.229   5.545   0.416 -0.6904  1.0977  1.6709
11999TIP3    H257413   1.081   5.514   0.399 -0.2328  0.2318 -0.9257
12000TIP3   OH257414   4.847   6.176  16.793  0.8868 -0.0248  0.3609
12000TIP3    H157415   4.859   6.149  16.702  3.8205  1.2051  0.3310
12000TIP3    H257416   4.872   6.268  16.794  0.4680  0.0830  2.3304
12001TIP3   OH257417   3.690   5.261  14.755  0.4501 -0.1477 -0.1077
12001TIP3    H157418   3.746   5.275  14.831 -0.0755 -2.1331  0.6629
12001TIP3    H257419   3.751   5.258  14.681  0.7969  3.8893 -0.1251
12002TIP3   OH257420   4.780   5.064   3.088 -0.6099  0.2388  0.2790
12002TIP3    H157421   4.836   5.071   3.165  1.0171  3.2836 -1.0958
12002TIP3    H257422   4.813   4.989   3.039  0.7184  0.5451  0.7060
12003TIP3   OH257423   0.988   6.182  10.687  0.7775 -0.2421  0.3662
12003TIP3    H157424   0.969   6.272  10.714  0.7874 -0.0863 -0.1461
12003TIP3    H257425   0.910   6.132  10.711 -0.4552  0.4585 -2.0722
12004TIP3   OH257426   3.145   5.255  15.118  0.3896 -0.1446  0.0235
12004TIP3    H157427   3.068   5.271  15.063  0.5884  0.1156 -0.1838
12004TIP3    H257428   3.167   5.163  15.103  0.8218  0.0927 -0.8269
12005TIP3   OH257429   3.067   5.838  16.245 -0.0270  0.2547  0.3248
12005TIP3    H157430   3.080   5.924  16.286  0.8910 -0.0513  0.6766
12005TIP3    H257431   3.063   5.857  16.151 -1.0921  0.8299  0.4723
12006TIP3   OH257432   1.115   4.642   3.622 -0.1323  0.2816  0.5926
12006TIP3    H157433   1.084   4.713   3.565 -0.7516 -0.2655  0.2460
12006TIP3    H257434   1.175   4.592   3.566  0.6462  0.7823  0.9709
12007TIP3   OH257435   5.587   1.718  13.415  0.4162  0.3841 -0.2953
12007TIP3    H157436   5.582   1.623  13.413  1.3798  0.3487 -2.0297
12007TIP3    H257437   5.498   1.748  13.398  0.0936 -0.1948  0.3637
12008TIP3   OH257438   3.534   0.670  12.184 -0.8709  0.4620  0.0627
12008TIP3    H157439   3.536   0.616  12.106 -0.4971 -0.9333  1.0281
12008TIP3    H257440   3.616   0.651  12.229 -0.4209  2.3251  0.0947
12009TIP3   OH257441   2.350   5.435   4.688 -0.1533 -0.6730  0.2171
12009TIP3    H157442   2.293   5.361   4.669 -0.6368 -0.0102 -0.9788
12009TIP3    H257443   2.304   5.510   4.650  1.1491 -0.0155 -0.0564
12010TIP3   OH257444   2.612   5.002   3.333  0.3574  0.2601 -0.2269
12010TIP3    H157445   2.638   5.081   3.286  0.7382  0.8295  0.9175
12010TIP3    H257446   2.616   5.027   3.426  1.7803 -1.4670  0.2069
12011TIP3   OH257447   1.461   1.734  13.808  0.1387 -0.2102 -0.5342
12011TIP3    H157448   1.411   1.702  13.883 -1.3792  0.0086 -1.4238
12011TIP3    H257449   1.533   1.783  13.847 -0.7262  0.0503  0.7851
12012TIP3   OH257450   1.689   5.675  17.102  0.2849  0.6556  0.1165
12012TIP3    H157451   1.595   5.676  17.083 -0.0574 -1.0491  1.5628
12012TIP3    H257452   1.694   5.687  17.197  1.3888 -1.3465  0.3508
12013TIP3   OH257453   1.054   3.272   3.965  0.0651 -0.2958 -0.0965
12013TIP3    H157454   0.966   3.304   3.988  0.4497  0.9122 -0.2470
12013TIP3    H257455   1.055   3.273   3.869 -0.3794 -2.0808 -0.1332
12014TIP3   OH257456   3.866   5.848  16.527 -0.4400  0.0320 -0.2890
12014TIP3    H157457   3.932   5.862  16.596 -0.5938  1.6506 -0.4398
12014TIP3    H257458   3.917   5.822  16.450 -0.0217  0.7214 -0.2521
12015TIP3   OH257459   0.277   4.701   1.083 -0.0031  0.1858 -0.0936
12015TIP3    H157460   0.287   4.796   1.095 -2.8429  0.3462  1.2844
12015TIP3    H257461   0.360   4.674   1.045  1.3669  3.0263  0.6914
12016TIP3   OH257462   0.196   4.132   5.307 -0.1166 -0.4289  0.0554
12016TIP3    H157463   0.172   4.096   5.392 -0.0056  2.8957  1.5610
12016TIP3    H257464   0.287   4.159   5.317 -1.0227  2.8928 -0.0220
12017TIP3   OH257465   5.813   6.010   3.453 -0.1800  0.3059 -0.7527
12017TIP3    H157466   5.843   6.078   3.513 -2.5934 -0.0821  0.9310
12017TIP3    H257467   5.894   5.969   3.421  1.1798  1.6668  0.8857
12018TIP3   OH257468   4.090   0.885   5.416 -0.1402  0.4823 -0.2642
12018TIP3    H157469   4.135   0.826   5.477  0.3445 -0.2704 -1.3423
12018TIP3    H257470   4.160   0.927   5.367 -0.5705 -0.1243 -1.4248
12019TIP3   OH257471   6.489   0.101  15.756  0.1301  0.1885  0.1914
12019TIP3    H157472   6.554   0.097  15.686 -0.4978 -0.5609 -0.3528
12019TIP3    H257473   6.478   0.195  15.773  0.9063  0.3427 -0.1137
12020TIP3   OH257474   3.347   6.091  12.323 -0.2537 -0.1433  0.0091
12020TIP3    H157475   3.351   6.136  12.238 -0.0777  0.1621  0.1778
12020TIP3    H257476   3.260   6.051  12.324 -0.8307  1.0670  0.2832
12021TIP3   OH257477   4.251   1.398   0.994  0.5291 -0.1865  0.0721
12021TIP3    H157478   4.327   1.411   0.937 -0.7588 -0.9898 -1.9032
12021TIP3    H257479   4.201   1.479   0.985 -0.4580 -0.9180 -1.2004
12022TIP3   OH257480   4.284   6.054  12.397  0.2187 -0.5781 -0.6972
12022TIP3    H157481   4.317   6.075  12.310 -0.7866 -1.5710 -1.3306
12022TIP3    H257482   4.296   6.135  12.447  2.1150 -0.4246 -1.3448
12023TIP3   OH257483   3.828   0.360   5.555  0.1166  0.1662  0.0299
12023TIP3    H157484   3.825   0.455   5.566  0.8616 -0.1080  2.9434
12023TIP3    H257485   3.736   0.335   5.546 -0.0985  1.1211 -0.5919
12024TIP3   OH257486   0.559   4.592   0.970  0.5525 -0.4053 -0.1266
12024TIP3    H157487   0.609   4.673   0.981  0.0776  0.1557 -1.8297
12024TIP3    H257488   0.568   4.572   0.877 -1.8749 -0.6247 -0.3290
12025TIP3   OH257489   2.139   2.973  16.565  0.1048  0.0735 -0.1377
12025TIP3    H157490   2.098   3.009  16.486  0.9464  1.4756  0.0471
12025TIP3    H257491   2.187   3.046  16.602 -0.0528 -0.6599  1.5341
12026TIP3   OH257492   4.203   2.843  15.278 -0.3759  0.7609  0.0936
12026TIP3    H157493   4.202   2.754  15.244 -1.4145  0.7095  0.2253
12026TIP3    H257494   4.269   2.842  15.348 -1.5040 -0.3233  1.1734
12027TIP3   OH257495   6.508   3.615   0.273  0.5170  0.4217  0.1757
12027TIP3    H157496   6.462   3.592   0.193 -2.7223  1.0298  1.7893
12027TIP3    H257497   6.501   3.537   0.328  0.2494  0.9833  0.9448
12028TIP3   OH257498   5.074   1.348   4.216  0.5127  0.3838  0.1364
12028TIP3    H157499   4.985   1.345   4.251  0.9751 -2.0721  1.2079
12028TIP3    H257500   5.069   1.294   4.137  1.0111  0.3684  0.1186
12029TIP3   OH257501   6.363   3.688   4.214 -0.1957 -0.0719 -0.1333
12029TIP3    H157502   6.445   3.686   4.263 -0.0920 -1.0312 -0.3353
12029TIP3    H257503   6.337   3.596   4.208 -2.1572  0.3529  1.4188
12030TIP3   OH257504   4.989   4.819   5.120 -0.0449  0.1632  0.1743
12030TIP3    H157505   4.979   4.806   5.214 -1.8219  0.2517  0.0162
12030TIP3    H257506   4.989   4.731   5.083  3.0715  0.0027  0.4479
12031TIP3   OH257507   5.295   5.707  11.752 -0.3644  0.2122 -0.9079
12031TIP3    H157508   5.209   5.695  11.711  0.0472  0.7747 -1.9737
12031TIP3    H257509   5.277   5.739  11.840 -1.2929 -1.4537 -0.4677
12032TIP3   OH257510   4.205   0.087   4.022 -0.0840  0.7293 -0.4684
12032TIP3    H157511   4.276   0.148   4.040  0.0109  0.6989 -0.7371
12032TIP3    H257512   4.169   0.066   4.108  0.7677  0.0967 -0.2693
12033TIP3   OH257513   5.224   3.239   5.988  0.4589 -0.2665  0.2820
12033TIP3    H157514   5.165   3.174   5.949  0.4968  0.1839 -0.5431
12033TIP3    H257515   5.225   3.218   6.081  1.1593 -2.0144 -0.0878
12034TIP3   OH257516   3.916   3.971   5.692  0.5675  0.1893 -0.0994
12034TIP3    H157517   3.967   3.891   5.702  1.8983  1.1362  0.8948
12034TIP3    H257518   3.895   3.997   5.781 -0.7193  0.4106 -0.4632
12035TIP3   OH257519   2.935   0.023   6.120 -0.8975 -0.3951 -0.8814
12035TIP3    H157520   3.021   0.064   6.119 -0.5263 -0.9911  2.2158
12035TIP3    H257521   2.950  -0.063   6.160 -2.4376 -1.7420 -3.0756
12036TIP3   OH257522   3.267   2.356  10.933 -0.0091 -0.4277  0.4673
12036TIP3    H157523   3.293   2.272  10.971 -1.2533 -1.4664 -0.8995
12036TIP3    H257524   3.196   2.334  10.873 -1.4889  1.8458  1.3330
12037TIP3   OH257525   0.289   3.137  13.359 -0.0521  0.2255  0.0405
12037TIP3    H157526   0.241   3.128  13.441  0.6857 -0.1150  0.4479
12037TIP3    H257527   0.379   3.158  13.386  0.5515 -1.4238 -0.6119
12038TIP3   OH257528   4.681   1.694   5.416 -0.1856  0.7996 -0.1017
12038TIP3    H157529   4.704   1.777   5.457  0.6894  1.2342 -1.4106
12038TIP3    H257530   4.603   1.714   5.364 -2.2613 -0.1385  2.5788
12039TIP3   OH257531   5.582   2.966   4.363 -0.3674 -0.8210  0.2248
12039TIP3    H157532   5.550   2.939   4.277  0.3899 -1.5203  0.1580
12039TIP3    H257533   5.666   2.921   4.372 -0.2515 -0.4154  1.1527
12040TIP3   OH257534   2.912   2.470  10.977  0.0067  0.4768  0.2035
12040TIP3    H157535   2.947   2.551  11.013 -0.6207  0.8517 -0.0253
12040TIP3    H257536   2.843   2.444  11.039 -1.7316  1.6303 -1.1959
12041TIP3   OH257537   3.454   1.717  11.550  0.4836  0.6815  0.2468
12041TIP3    H157538   3.527   1.685  11.497  0.9429  2.2544 -0.0941
12041TIP3    H257539   3.380   1.662  11.525  0.8895  0.8908 -1.4491
12042TIP3   OH257540   3.552   0.333   5.367  0.4228  0.1924  0.0355
12042TIP3    H157541   3.570   0.240   5.377  0.8690  0.2647 -0.1098
12042TIP3    H257542   3.482   0.337   5.301 -0.8440 -0.1388  1.3232
12043TIP3   OH257543   2.679   3.683   0.405  0.2133 -0.0775  0.1533
12043TIP3    H157544   2.756   3.726   0.369  1.3628 -1.8653  0.4588
12043TIP3    H257545   2.672   3.601   0.357 -1.7738  0.2550 -0.1834
12044TIP3   OH257546   3.290   5.961   4.938  0.1958  0.1711  0.8499
12044TIP3    H157547   3.283   5.921   5.025 -0.9213 -0.4296  0.4968
12044TIP3    H257548   3.227   6.034   4.940 -3.5201 -2.8325 -1.0452
12045TIP3   OH257549   1.387   3.275  11.805  0.2677  0.4375  0.1016
12045TIP3    H157550   1.344   3.221  11.871  0.8524  1.5684  1.4298
12045TIP3    H257551   1.473   3.295  11.843  1.9799 -1.7206 -2.4627
12046TIP3   OH257552   2.413   3.882   5.698  0.1330 -0.5732  0.4765
12046TIP3    H157553   2.493   3.933   5.709 -1.0144  1.2554  0.5313
12046TIP3    H257554   2.345   3.935   5.738 -1.5515 -0.8906 -1.8588
12047TIP3   OH257555   5.392   2.063   0.393  0.2204 -0.6091 -0.2216
12047TIP3    H157556   5.379   2.073   0.488  0.3662  1.4148 -0.4009
12047TIP3    H257557   5.364   1.973   0.375  0.2284 -1.0393  1.7465
12048TIP3   OH257558   6.223   3.347   5.394  0.0526  0.1724 -0.0450
12048TIP3    H157559   6.185   3.390   5.470 -1.8639 -1.3328 -0.1061
12048TIP3    H257560   6.241   3.258   5.423  0.2449 -0.1286 -1.0600
12049TIP3   OH257561   2.081   2.078   1.568 -0.0207 -0.8499  0.0300
12049TIP3    H157562   2.088   2.102   1.475  1.6768  1.0686  0.6092
12049TIP3    H257563   2.022   2.144   1.605  2.4247  0.8217  1.0745
12050TIP3   OH257564   2.490   4.012  11.233 -0.0546  0.0921 -0.5213
12050TIP3    H157565   2.476   3.953  11.307  1.3033  0.5996  0.1514
12050TIP3    H257566   2.506   3.954  11.159  3.0738 -0.4229  0.4894
12051TIP3   OH257567   0.033   2.940  12.410  0.6295  0.1963  0.1541
12051TIP3    H157568   0.007   2.890  12.487 -1.3857  0.8790 -0.0674
12051TIP3    H257569   0.090   2.880  12.361 -1.0555 -1.5966  0.3397
12052TIP3   OH257570   5.093   6.621  13.060 -0.2697  0.5245  0.2614
12052TIP3    H157571   5.098   6.658  12.972  1.9174 -0.8952 -0.2375
12052TIP3    H257572   5.182   6.591  13.079 -1.4964 -2.4745  1.5123
12053TIP3   OH257573   3.714   6.368  14.868  0.1572 -0.3124  0.3672
12053TIP3    H157574   3.758   6.325  14.941 -0.7726 -1.4448  0.2679
12053TIP3    H257575   3.693   6.297  14.807 -0.2788  0.4455 -0.3802
12054TIP3   OH257576   5.078   6.419   4.741  0.6944  0.4031  0.9416
12054TIP3    H157577   5.061   6.372   4.823 -0.3791  1.4327  1.3261
12054TIP3    H257578   5.125   6.498   4.768  1.2503  0.2503  0.4452
12055TIP3   OH257579   3.408   2.040   4.931  0.2661  0.1753  0.1458
12055TIP3    H157580   3.436   1.988   4.855 -1.1016 -0.5613  0.1219
12055TIP3    H257581   3.487   2.085   4.959  0.8525  0.3085 -1.6034
12056TIP3   OH257582   3.272   1.226   3.443 -0.3377 -0.1043  0.2797
12056TIP3    H157583   3.291   1.294   3.378 -2.5495 -0.6290 -0.9432
12056TIP3    H257584   3.334   1.243   3.514  0.6350  1.8196 -0.9941
12057TIP3   OH257585   6.160   1.180  12.943  0.1746  0.3283 -0.0813
12057TIP3    H157586   6.106   1.258  12.955  1.4368  1.1662  0.3827
12057TIP3    H257587   6.161   1.137  13.028 -0.1633  0.0505 -0.2185
12058TIP3   OH257588   5.140   2.916   0.622 -0.2761  0.1046  0.4998
12058TIP3    H157589   5.123   2.913   0.528  1.4555  0.1435  0.1661
12058TIP3    H257590   5.146   2.824   0.648  0.8999  0.1034  0.2454
12059TIP3   OH257591   6.263   3.712  12.418 -0.1310 -0.1268  0.5365
12059TIP3    H157592   6.236   3.774  12.486 -1.0490 -1.2050  1.1773
12059TIP3    H257593   6.267   3.764  12.338 -1.0235  0.7392  1.0419
12060TIP3   OH257594   2.248   2.735  11.021  0.4843  0.0328  0.0811
12060TIP3    H157595   2.245   2.645  10.988  2.0086  0.2365 -0.6577
12060TIP3    H257596   2.317   2.777  10.970  0.1799  1.4725  0.8205
12061TIP3   OH257597   4.288   4.768   4.326  0.1288  0.1004  0.0313
12061TIP3    H157598   4.263   4.859   4.309 -1.6967 -0.1549  1.2283
12061TIP3    H257599   4.225   4.717   4.276  1.2050 -0.5245 -0.7082
12062TIP3   OH257600   6.356   5.345  13.349 -0.1791 -0.1877  0.0578
12062TIP3    H157601   6.320   5.409  13.411 -0.7926 -2.5856  2.2494
12062TIP3    H257602   6.368   5.395  13.268  0.4368  2.9922  1.9919
12063TIP3   OH257603   2.076   1.208   4.678  0.0248  0.2105 -0.2581
12063TIP3    H157604   2.153   1.258   4.650  1.1539 -1.4539 -0.1427
12063TIP3    H257605   2.052   1.246   4.762  1.2076  0.2037  0.0857
12064TIP3   OH257606   5.374   4.303   5.082  0.2487 -0.1748 -0.4538
12064TIP3    H157607   5.345   4.356   5.008  0.6846 -0.7506 -1.0383
12064TIP3    H257608   5.393   4.367   5.151  0.3530  0.4004 -1.0107
12065TIP3   OH257609   5.287   2.263  13.754 -0.6097  0.4889 -0.1758
12065TIP3    H157610   5.254   2.300  13.836 -1.3660  0.8716 -0.6460
12065TIP3    H257611   5.302   2.339  13.698  0.6624  0.2837 -0.1192
12066TIP3   OH257612   5.005   1.383   0.679 -0.2993 -0.2648  0.4665
12066TIP3    H157613   4.945   1.331   0.733 -0.6068 -0.9541 -0.5198
12066TIP3    H257614   4.974   1.473   0.689 -0.6699 -0.4544  1.0359
12067TIP3   OH257615   3.916   0.653   3.159 -0.4216  0.0873 -0.8151
12067TIP3    H157616   3.986   0.634   3.221 -1.1836 -0.0723 -0.0081
12067TIP3    H257617   3.919   0.580   3.097 -0.7310 -0.5941 -0.0270
12068TIP3   OH257618   0.737   1.300  12.683  0.0923  0.3557 -0.3530
12068TIP3    H157619   0.658   1.283  12.633  0.4552  1.6719 -1.3898
12068TIP3    H257620   0.714   1.274  12.773 -0.7006 -1.5640 -1.0832
12069TIP3   OH257621   2.050   5.528  13.088  0.2100  0.1612 -0.3377
12069TIP3    H157622   2.004   5.611  13.099 -1.5268 -0.7298 -0.7022
12069TIP3    H257623   1.980   5.463  13.084  1.5340 -1.2594 -0.5773
12070TIP3   OH257624   2.867   2.373  14.936 -0.4114  0.2055 -0.2948
12070TIP3    H157625   2.940   2.318  14.966 -0.7982 -1.4813 -2.3655
12070TIP3    H257626   2.827   2.405  15.017  0.1979 -2.0613  0.9470
12071TIP3   OH257627   0.824   0.189   4.577  0.3279 -0.3015 -0.0033
12071TIP3    H157628   0.841   0.263   4.519 -1.6985  0.4585  0.3094
12071TIP3    H257629   0.730   0.196   4.597  0.3547 -2.3111  0.9197
12072TIP3   OH257630   2.500   6.570   2.013  0.1962 -0.2337 -0.3199
12072TIP3    H157631   2.469   6.550   2.101  1.5705 -0.9426  0.0214
12072TIP3    H257632   2.589   6.534   2.011  0.4319  0.4227 -1.7544
12073TIP3   OH257633   3.158   0.998   4.395 -0.7804  0.3016 -0.0746
12073TIP3    H157634   3.182   0.907   4.408 -0.5519  0.1358 -1.4926
12073TIP3    H257635   3.105   1.021   4.471 -1.9154 -1.3947 -0.3249
12074TIP3   OH257636   6.098   1.085  13.220  0.1276 -1.4905  0.0306
12074TIP3    H157637   6.017   1.087  13.270  0.1571 -1.2515  0.0688
12074TIP3    H257638   6.149   1.014  13.259  0.9138 -0.1210  1.5199
12075TIP3   OH257639   3.467   3.038  10.989  0.2650 -0.3064  0.2906
12075TIP3    H157640   3.474   2.990  10.906  0.4873  0.4584 -0.1336
12075TIP3    H257641   3.460   3.130  10.963 -1.6519 -0.2327  1.0633
12076TIP3   OH257642   2.516   4.905  15.446  0.1178 -0.0595 -0.2409
12076TIP3    H157643   2.456   4.947  15.508 -1.2189  0.8896 -2.1097
12076TIP3    H257644   2.485   4.934  15.360  1.6890 -1.6459 -1.3739
12077TIP3   OH257645   2.318   0.867  14.346  0.0580  0.5611  0.0712
12077TIP3    H157646   2.249   0.933  14.338 -0.4554  0.2401  1.7600
12077TIP3    H257647   2.381   0.905  14.407  0.2812 -0.0745  0.2350
12078TIP3   OH257648   1.928   5.833  11.379  0.1433 -0.1918 -0.1541
12078TIP3    H157649   1.930   5.920  11.338  0.0446 -0.8417 -1.5696
12078TIP3    H257650   1.985   5.841  11.456  0.9985  0.8232 -0.8880
12079TIP3   OH257651   1.458   4.237  12.560  0.0186  0.2652  0.0700
12079TIP3    H157652   1.375   4.236  12.607 -0.3854 -0.4707 -0.6263
12079TIP3    H257653   1.500   4.319  12.585 -0.7916  0.5050  0.6496
12080TIP3   OH257654   3.811   2.682  16.944  0.4320  0.1409 -0.1198
12080TIP3    H157655   3.784   2.757  16.997  0.3800  0.8320 -1.1227
12080TIP3    H257656   3.898   2.705  16.912  0.1601  0.0422 -0.9345
12081TIP3   OH257657   6.161   0.990  11.467 -0.0932  0.5675 -0.6944
12081TIP3    H157658   6.166   0.993  11.563 -0.5101  0.6238 -0.6722
12081TIP3    H257659   6.121   1.074  11.443  0.1582  0.6217 -0.9293
12082TIP3   OH257660   3.160   1.673  11.785  0.1452  0.2633  0.3999
12082TIP3    H157661   3.252   1.690  11.805  0.6232 -0.9159 -0.7474
12082TIP3    H257662   3.139   1.736  11.716  0.6630 -0.7872 -0.7326
12083TIP3   OH257663   5.471   2.156   3.390 -0.7468 -0.2976 -0.2346
12083TIP3    H157664   5.545   2.151   3.329  1.3091  0.3469  2.1180
12083TIP3    H257665   5.420   2.077   3.372 -0.4921  0.1225 -3.1042
12084TIP3   OH257666   2.970   0.752   5.615  0.5818  0.1089  0.6245
12084TIP3    H157667   3.005   0.818   5.675  1.0443  0.6109 -0.1874
12084TIP3    H257668   2.913   0.698   5.669  0.5016  0.9416  1.3801
12085TIP3   OH257669   4.609   2.564   4.162 -0.3955  0.6071  0.1158
12085TIP3    H157670   4.592   2.484   4.113 -0.7058  0.1132  1.0180
12085TIP3    H257671   4.595   2.539   4.254  0.4536  1.4358  0.4770
12086TIP3   OH257672   4.925   5.871  15.981  0.0167 -0.0931 -0.6520
12086TIP3    H157673   4.950   5.851  16.071 -0.4439 -0.9717 -0.7112
12086TIP3    H257674   4.844   5.822  15.968  1.8630 -2.7493 -2.6605
12087TIP3   OH257675   0.402   0.676   1.372  0.5518  0.2403 -0.3776
12087TIP3    H157676   0.334   0.610   1.361 -0.7963  1.1753  1.9494
12087TIP3    H257677   0.477   0.627   1.405  0.3842 -0.5097 -1.0942
12088TIP3   OH257678   1.329   1.340  14.009 -0.6502 -0.2892  0.0061
12088TIP3    H157679   1.373   1.399  14.070 -3.0925  0.6628  0.9319
12088TIP3    H257680   1.290   1.397  13.943 -2.1826 -0.9193  0.3351
12089TIP3   OH257681   6.091   6.194   3.627  0.0566  0.4419 -0.3302
12089TIP3    H157682   6.104   6.139   3.550 -3.0893 -1.1262  0.1568
12089TIP3    H257683   6.115   6.138   3.701  1.1826  1.2800 -0.0492
12090TIP3   OH257684   5.066   1.359  13.774  0.2989  0.7320  0.3599
12090TIP3    H157685   5.160   1.375  13.775 -0.0162  2.8723 -0.3515
12090TIP3    H257686   5.027   1.445  13.792 -1.5546  0.5519 -2.4582
12091TIP3   OH257687   1.166   4.706   4.598 -0.3899 -0.7329 -0.0980
12091TIP3    H157688   1.129   4.793   4.614  2.5191  0.6614 -0.7031
12091TIP3    H257689   1.146   4.657   4.679 -0.5533  1.0047  0.9491
12092TIP3   OH257690   2.564   6.189   3.996 -0.5685  0.1074  0.1969
12092TIP3    H157691   2.494   6.229   4.048  0.5516  1.3124  0.7887
12092TIP3    H257692   2.542   6.096   3.995 -2.1035  0.4515  0.5010
12093TIP3   OH257693   1.154   3.034  14.902 -0.3562  0.0574 -0.1558
12093TIP3    H157694   1.073   3.018  14.853 -0.6472 -0.3227  0.4453
12093TIP3    H257695   1.153   3.128  14.919 -0.2002  0.2142 -0.9683
12094TIP3   OH257696   5.879   4.959  11.084 -0.2510 -0.3109  0.1613
12094TIP3    H157697   5.799   4.999  11.049  0.5903 -0.8640 -2.5135
12094TIP3    H257698   5.849   4.904  11.156 -2.2415 -0.1686 -0.5305
12095TIP3   OH257699   6.064   6.200   0.905  0.0092  1.2874  0.0213
12095TIP3    H157700   6.153   6.219   0.874  0.5616 -0.2668  0.5740
12095TIP3    H257701   6.060   6.240   0.992  0.7416 -0.0079  0.6711
12096TIP3   OH257702   4.387   3.699   2.071  0.1725 -0.3792  0.0019
12096TIP3    H157703   4.444   3.682   2.145  0.4547  1.8713  0.3379
12096TIP3    H257704   4.299   3.680   2.103  0.5744 -2.4434 -0.0718
12097TIP3   OH257705   0.777   0.391   5.844 -0.8677  0.4515  0.6484
12097TIP3    H157706   0.860   0.438   5.835 -1.2807  1.0979  0.2136
12097TIP3    H257707   0.720   0.452   5.890 -1.4782  0.4622 -0.1165
12098TIP3   OH257708   5.741   2.313   4.900  0.0049  0.4732 -0.5245
12098TIP3    H157709   5.669   2.360   4.943 -0.4530  0.1812 -0.9557
12098TIP3    H257710   5.820   2.359   4.927 -0.2090 -0.1525  1.2043
12099TIP3   OH257711   5.602   2.473  14.736 -0.0089 -0.6604  0.0001
12099TIP3    H157712   5.683   2.463  14.786 -0.3383 -2.9012  0.1149
12099TIP3    H257713   5.613   2.416  14.660 -1.3962 -0.8444 -0.0780
12100TIP3   OH257714   1.139   0.159  16.874 -0.5986 -0.0432 -0.4504
12100TIP3    H157715   1.217   0.187  16.825  0.0004 -0.5283  0.2272
12100TIP3    H257716   1.128   0.067  16.850 -1.1996  0.1229 -0.8447
12101TIP3   OH257717   5.774   1.808  11.350  0.0838 -0.9719 -0.3251
12101TIP3    H157718   5.749   1.900  11.339 -1.3769 -1.1949  1.0585
12101TIP3    H257719   5.858   1.812  11.396  0.3506 -0.3242 -0.8544
12102TIP3   OH257720   1.461   4.973   1.214 -0.5958  0.3277 -0.1752
12102TIP3    H157721   1.416   5.056   1.197 -0.2859  0.1610 -1.8792
12102TIP3    H257722   1.398   4.906   1.188 -0.7574  0.0234  0.9777
12103TIP3   OH257723   2.560   3.197   4.544 -0.2992  0.4078 -0.4359
12103TIP3    H157724   2.575   3.275   4.490  1.2166 -0.3269 -1.1188
12103TIP3    H257725   2.501   3.143   4.492 -1.1842  0.9918 -0.0547
12104TIP3   OH257726   1.161   3.588   5.497 -0.2858 -0.0760 -0.4470
12104TIP3    H157727   1.148   3.588   5.592  0.9008  1.5137 -0.2433
12104TIP3    H257728   1.165   3.496   5.473  3.0737 -0.5856  1.6340
12105TIP3   OH257729   0.872   1.785   3.189 -0.7579 -0.1453 -0.1601
12105TIP3    H157730   0.835   1.771   3.276 -0.5772 -0.6586 -0.1605
12105TIP3    H257731   0.837   1.713   3.136 -0.9648  0.2347 -0.5447
12106TIP3   OH257732   5.878   1.304   0.419  0.2893 -0.5016 -0.0430
12106TIP3    H157733   5.974   1.314   0.414  0.1614  0.7595 -0.3812
12106TIP3    H257734   5.851   1.295   0.328 -0.0845  1.0939 -0.1052
12107TIP3   OH257735   2.701   5.900  12.573 -0.5599  0.2220  0.1352
12107TIP3    H157736   2.648   5.827  12.539  0.1661 -0.0372 -0.4616
12107TIP3    H257737   2.753   5.927  12.498  0.9824 -0.2659  1.0154
12108TIP3   OH257738   3.868   4.403   4.504  0.1284  0.7045  0.1041
12108TIP3    H157739   3.782   4.445   4.507  0.1239  0.6897  0.1913
12108TIP3    H257740   3.850   4.315   4.471 -0.1386  0.0875  1.8044
12109TIP3   OH257741   0.010   0.859  16.339  0.1269  1.1019 -0.3947
12109TIP3    H157742   0.070   0.798  16.383 -0.5926  0.9443  0.3804
12109TIP3    H257743   0.059   0.941  16.333 -0.1449  1.4430  1.6848
12110TIP3   OH257744   1.597   0.786  11.605 -0.3310 -0.4324  0.1672
12110TIP3    H157745   1.594   0.690  11.611 -1.1475 -0.3519  1.1712
12110TIP3    H257746   1.556   0.816  11.685  2.2936  0.7799  1.0995
12111TIP3   OH257747   0.966   3.843  15.495  0.2025 -0.0050  0.0942
12111TIP3    H157748   0.981   3.874  15.405 -0.5540  0.5397  0.1480
12111TIP3    H257749   0.983   3.919  15.550 -2.0075  0.4648  0.2023
12112TIP3   OH257750   4.415   2.610  12.610  0.3024 -0.1753  0.6137
12112TIP3    H157751   4.376   2.690  12.648  0.4382  0.3502 -0.3321
12112TIP3    H257752   4.466   2.642  12.535 -0.9223 -1.3061 -0.7314
12113TIP3   OH257753   0.515   1.165   0.333  0.5891 -0.2230  0.2531
12113TIP3    H157754   0.530   1.182   0.240  2.8560  0.2476  0.6808
12113TIP3    H257755   0.575   1.225   0.378 -1.6789  0.7364  2.0681
12114TIP3   OH257756   2.381   4.668  15.236 -0.0065 -0.3914 -0.3019
12114TIP3    H157757   2.303   4.687  15.288  0.4625  0.0287  0.2472
12114TIP3    H257758   2.356   4.592  15.183 -0.4730 -0.8526  0.5589
12115TIP3   OH257759   3.043   5.288   1.888 -0.8439  0.1506  0.1044
12115TIP3    H157760   3.054   5.327   1.801  0.4552  0.1395  0.2512
12115TIP3    H257761   3.059   5.195   1.874  0.2281  0.2693  0.5040
12116TIP3   OH257762   3.735   6.499  15.307  0.5534 -0.0208 -0.0708
12116TIP3    H157763   3.657   6.501  15.253  0.7061  1.0276 -0.2511
12116TIP3    H257764   3.750   6.405  15.323 -0.1973 -0.2708 -0.7953
12117TIP3   OH257765   3.186   3.341  11.118  0.5810  0.2233  0.0767
12117TIP3    H157766   3.200   3.283  11.043  0.4518  0.9776 -0.5381
12117TIP3    H257767   3.106   3.389  11.096 -0.2261 -0.5154  1.3212
12118TIP3   OH257768   3.102   1.491   3.074  0.3629  0.0255  0.3391
12118TIP3    H157769   3.023   1.437   3.083  0.2677  0.1464  0.2260
12118TIP3    H257770   3.144   1.458   2.994  0.5306 -0.1712  0.5053
12119TIP3   OH257771   3.928   1.182   3.687  0.4991  0.2263 -0.1106
12119TIP3    H157772   3.984   1.157   3.761  1.2332 -0.8365 -1.0037
12119TIP3    H257773   3.909   1.275   3.701 -0.6009 -0.3252  2.2041
12120TIP3   OH257774   4.234   1.749  16.361  0.4743  0.1579  0.0772
12120TIP3    H157775   4.328   1.734  16.360  0.7547  1.8132  0.9257
12120TIP3    H257776   4.223   1.834  16.402 -1.3394  0.4024 -0.8369
12121TIP3   OH257777   4.583   4.584  11.801 -0.5840  0.4330 -0.4788
12121TIP3    H157778   4.550   4.513  11.746  0.2131  0.5762 -1.1397
12121TIP3    H257779   4.625   4.645  11.741  1.0377  0.1841  0.3649
12122TIP3   OH257780   3.676   5.245  15.092 -0.0228 -0.2560  0.3310
12122TIP3    H157781   3.726   5.314  15.047  0.6329 -1.3987 -0.7093
12122TIP3    H257782   3.585   5.274  15.087  0.3416  0.9535  0.6320
12123TIP3   OH257783   0.921   5.832  12.931 -0.0636  0.7687 -0.2834
12123TIP3    H157784   0.974   5.911  12.924 -0.4745  1.1243  0.5459
12123TIP3    H257785   0.904   5.823  13.025  1.0005 -0.9760 -0.2145
12124TIP3   OH257786   1.606   6.636  11.510 -0.3565 -0.4408 -0.1358
12124TIP3    H157787   1.545   6.674  11.574 -1.3947  0.0602 -1.3819
12124TIP3    H257788   1.679   6.698  11.507 -1.2098  0.5409 -0.8474
12125TIP3   OH257789   4.995   4.768  12.197  0.1788  0.4932 -0.2902
12125TIP3    H157790   4.973   4.767  12.104  0.0981  1.1052 -0.2824
12125TIP3    H257791   4.947   4.843  12.232  1.4662  1.2234 -0.0627
12126TIP3   OH257792   2.541   2.840  13.101 -1.0106 -0.4919  0.4789
12126TIP3    H157793   2.579   2.754  13.119  2.7169  0.2816 -2.8907
12126TIP3    H257794   2.476   2.824  13.032  0.8297 -0.5020 -1.3201
12127TIP3   OH257795   5.679   3.086  14.485  1.0234  0.0978  0.7022
12127TIP3    H157796   5.738   3.160  14.473  1.9356 -0.3059  2.5449
12127TIP3    H257797   5.681   3.068  14.579 -0.0668 -1.5369  0.4405
12128TIP3   OH257798   1.327   2.772   1.913  0.1627  0.3136 -0.4431
12128TIP3    H157799   1.399   2.759   1.851 -0.1532  0.5284 -0.8550
12128TIP3    H257800   1.367   2.818   1.986  0.4638  0.3551 -0.6342
12129TIP3   OH257801   0.726   5.321   3.292  0.5566  0.5204 -0.0860
12129TIP3    H157802   0.649   5.291   3.341  0.2621  1.1680 -0.1501
12129TIP3    H257803   0.752   5.402   3.336  1.4658  0.0776  0.2078
12130TIP3   OH257804   2.571   1.950  17.176 -0.3204  0.0136  0.0021
12130TIP3    H157805   2.626   1.957  17.254  0.5761 -0.6390 -0.5585
12130TIP3    H257806   2.625   1.986  17.106  0.3942 -2.9199 -1.0211
12131TIP3   OH257807   5.300   2.643  13.962  0.4475  0.1946  0.2513
12131TIP3    H157808   5.373   2.582  13.948  0.3347 -0.6139  2.8619
12131TIP3    H257809   5.224   2.586  13.970  0.1640  0.7435  1.5673
12132TIP3   OH257810   4.872   2.984  15.962 -0.6315  0.8557 -0.0476
12132TIP3    H157811   4.800   3.037  15.928 -0.7859  1.0635  0.5990
12132TIP3    H257812   4.930   2.972  15.887 -1.0385  1.1902 -0.4231
12133TIP3   OH257813   5.184   4.481   3.304  0.4832  0.2314 -0.3565
12133TIP3    H157814   5.240   4.519   3.372  1.0818  0.9574 -1.2445
12133TIP3    H257815   5.127   4.553   3.277  1.0563  0.2887 -1.4587
12134TIP3   OH257816   3.144   3.279   4.985  0.5524 -0.1713  0.0400
12134TIP3    H157817   3.225   3.293   4.935  1.0834  1.3302  1.2908
12134TIP3    H257818   3.162   3.318   5.071 -1.0829 -0.8912  0.7255
12135TIP3   OH257819   3.806   5.522   2.874 -0.1296  0.4367 -0.4242
12135TIP3    H157820   3.789   5.516   2.780  5.1359 -0.0180 -1.5554
12135TIP3    H257821   3.777   5.438   2.909  1.0937 -0.8595 -2.3594
12136TIP3   OH257822   0.663   3.277   1.147 -0.1411  0.4037  0.3420
12136TIP3    H157823   0.641   3.367   1.123 -0.2102  0.1892 -0.4016
12136TIP3    H257824   0.682   3.234   1.064  0.5637 -0.0898  0.7549
12137TIP3   OH257825   5.091   5.776   3.219 -0.4571  0.4059 -0.3679
12137TIP3    H157826   5.180   5.806   3.235 -0.6951  0.3047  1.2523
12137TIP3    H257827   5.037   5.855   3.226 -0.4375  0.5734 -1.9622
12138TIP3   OH257828   2.210   5.355  12.098 -0.6528 -0.4441 -0.2751
12138TIP3    H157829   2.127   5.310  12.110 -0.6176 -0.8171 -1.3718
12138TIP3    H257830   2.187   5.448  12.097 -0.7873 -0.4424  1.4656
12139TIP3   OH257831   0.589   1.405   6.047  0.3847  0.7004 -0.2361
12139TIP3    H157832   0.674   1.363   6.052  0.5251  1.0228  0.1348
12139TIP3    H257833   0.608   1.498   6.038  0.0788  0.9191  1.1735
12140TIP3   OH257834   5.678   2.042   0.946 -0.1951 -0.2509 -0.1240
12140TIP3    H157835   5.734   1.977   0.988 -1.5650 -0.4295  1.4778
12140TIP3    H257836   5.705   2.041   0.854  2.3192 -0.4239  0.5651
12141TIP3   OH257837   0.810   4.490  10.607  0.1577  0.1134 -0.5061
12141TIP3    H157838   0.813   4.415  10.547  0.1389  1.7966 -2.6540
12141TIP3    H257839   0.842   4.564  10.555 -0.8239  1.8232  1.2652
12142TIP3   OH257840   0.161   6.275   1.098 -0.5260 -0.5703  0.0752
12142TIP3    H157841   0.087   6.325   1.062 -1.2876 -0.3640  1.8633
12142TIP3    H257842   0.236   6.334   1.089 -0.7814 -0.3606 -0.7622
12143TIP3   OH257843   2.151   1.394  12.657  0.3068 -0.1581 -0.2405
12143TIP3    H157844   2.167   1.366  12.747 -0.0764  0.7256  0.1029
12143TIP3    H257845   2.192   1.326  12.603  0.4887 -0.7151  0.5978
12144TIP3   OH257846   2.301   2.279  14.049  0.0726  0.3163 -0.0953
12144TIP3    H157847   2.211   2.280  14.018 -0.2091 -0.7759  0.6528
12144TIP3    H257848   2.354   2.301  13.972 -0.7937  0.4931 -0.6447
12145TIP3   OH257849   5.124   0.083  15.484  0.0121 -0.0092  0.2766
12145TIP3    H157850   5.103   0.106  15.393 -0.5928  1.4645  0.7801
12145TIP3    H257851   5.110  -0.012  15.488 -1.0159  0.0765 -0.8958
12146TIP3   OH257852   0.079   4.166  14.111 -0.5825 -0.1281  0.0295
12146TIP3    H157853   0.043   4.124  14.189  0.2219 -0.4851  0.2153
12146TIP3    H257854   0.032   4.126  14.039 -1.7553  0.6348  0.3570
12147TIP3   OH257855   4.402   5.755   5.870 -0.0079  0.2112 -0.0382
12147TIP3    H157856   4.453   5.717   5.799 -0.4760  0.9004 -0.7414
12147TIP3    H257857   4.463   5.757   5.945  0.2140 -1.3154 -0.1634
12148TIP3   OH257858   3.588   4.153  16.104  0.1355 -0.3502  0.3361
12148TIP3    H157859   3.628   4.073  16.070  1.4224  0.1160  0.7283
12148TIP3    H257860   3.524   4.178  16.038  3.0179  0.8940 -2.1061
12149TIP3   OH257861   4.668   2.889  12.889 -0.0684 -1.0679  0.0480
12149TIP3    H157862   4.599   2.952  12.907  0.0023 -1.2679  1.0756
12149TIP3    H257863   4.722   2.889  12.968  1.2573 -0.7183 -0.8372
12150TIP3   OH257864   3.285   0.722   4.427  0.4083  0.0074 -0.1457
12150TIP3    H157865   3.333   0.759   4.501  0.0981 -1.2803  0.7110
12150TIP3    H257866   3.321   0.767   4.351 -0.2990  2.4381  0.8950
12151TIP3   OH257867   3.043   6.121   3.666 -1.2435 -0.1313  0.4362
12151TIP3    H157868   3.128   6.118   3.710 -0.7729  0.3879 -0.4146
12151TIP3    H257869   3.052   6.193   3.603 -1.8619 -0.9206 -0.5628
12152TIP3   OH257870   3.294   4.839   6.518 -0.4348 -0.1727 -0.4588
12152TIP3    H157871   3.271   4.922   6.476  0.6423 -0.4196 -1.5951
12152TIP3    H257872   3.218   4.816   6.570 -0.8072  1.4593 -0.2422
12153TIP3   OH257873   4.625   6.413   3.275  0.0190  0.3025 -0.1204
12153TIP3    H157874   4.541   6.458   3.275 -0.4794 -0.6126 -0.1493
12153TIP3    H257875   4.603   6.322   3.253  0.9273 -0.0932  0.6023
12154TIP3   OH257876   5.752   3.528   5.357  0.2505  0.8561 -0.4798
12154TIP3    H157877   5.692   3.602   5.354  0.5787  1.1495  0.2171
12154TIP3    H257878   5.788   3.529   5.445 -0.3109 -0.5934 -0.2163
12155TIP3   OH257879   2.226   1.320   4.284  0.0373  0.3587 -0.4101
12155TIP3    H157880   2.155   1.346   4.225 -0.6634  1.6777  0.9909
12155TIP3    H257881   2.222   1.383   4.356  2.4526  0.2686 -0.1638
12156TIP3   OH257882   3.678   4.854   1.577 -0.3307  0.1221  0.0898
12156TIP3    H157883   3.591   4.858   1.538 -0.0898 -3.0296 -0.9152
12156TIP3    H257884   3.680   4.768   1.620  2.5736 -0.1911 -0.6209
12157TIP3   OH257885   4.367   2.126   0.294  0.2286 -0.5522 -0.0049
12157TIP3    H157886   4.437   2.172   0.340 -0.4873 -0.9735  1.5293
12157TIP3    H257887   4.393   2.034   0.296  0.0266 -0.6117 -0.1237
12158TIP3   OH257888   6.279   1.588  15.829 -0.7446 -0.4006 -0.2243
12158TIP3    H157889   6.268   1.571  15.923 -2.7298  2.1016  0.0203
12158TIP3    H257890   6.192   1.579  15.792 -0.4482  1.3259 -1.3848
12159TIP3   OH257891   2.120   2.573   4.043 -0.4067  0.2507  0.1686
12159TIP3    H157892   2.144   2.666   4.042 -1.5401  0.5438  0.1263
12159TIP3    H257893   2.031   2.571   4.078 -0.2077 -0.8666  0.6356
12160TIP3   OH257894   0.220   5.341   4.927 -0.0314 -0.0744 -0.3828
12160TIP3    H157895   0.194   5.255   4.959  0.7778 -0.1197  0.1766
12160TIP3    H257896   0.139   5.382   4.897 -0.8082 -0.0247  1.7406
12161TIP3   OH257897   6.729   4.504  15.182  0.0219 -0.4232  0.8699
12161TIP3    H157898   6.766   4.516  15.094  0.0928 -1.3785  0.7687
12161TIP3    H257899   6.692   4.590  15.204  0.2327 -0.1070  0.0165
12162TIP3   OH257900   1.825   5.585  14.570  0.3917 -0.1285 -0.1913
12162TIP3    H157901   1.737   5.552  14.588  0.1414  0.2942 -0.6341
12162TIP3    H257902   1.870   5.583  14.655  0.1522 -0.9297 -0.0828
12163TIP3   OH257903   2.333   5.405  11.825  0.9745  0.3231 -0.1375
12163TIP3    H157904   2.302   5.403  11.916  0.3342  3.5974 -0.2224
12163TIP3    H257905   2.428   5.406  11.833  0.9097  1.5733  0.5238
12164TIP3   OH257906   1.879   1.843   2.111 -0.1224  0.0164 -0.3377
12164TIP3    H157907   1.784   1.857   2.117 -0.4862 -1.1732 -2.7817
12164TIP3    H257908   1.915   1.930   2.094 -0.9774  0.2147 -1.2121
12165TIP3   OH257909   6.645   4.216   2.412  0.2449 -0.7262 -0.2105
12165TIP3    H157910   6.680   4.140   2.364 -2.4681 -1.7707 -0.5839
12165TIP3    H257911   6.639   4.186   2.503 -0.0531 -0.6842 -0.2170
12166TIP3   OH257912   1.623   1.012  15.819 -0.7082  0.9719 -0.3432
12166TIP3    H157913   1.556   0.955  15.782  0.1413 -1.1321  1.2360
12166TIP3    H257914   1.695   1.007  15.757 -1.2024  1.5093 -0.9583
12167TIP3   OH257915   2.932   4.348   2.300 -0.2538  0.1367 -0.4390
12167TIP3    H157916   2.910   4.259   2.327 -0.1353  1.0559  2.8953
12167TIP3    H257917   2.917   4.348   2.205 -1.0011 -3.1862 -0.4001
12168TIP3   OH257918   3.873   0.933   4.652  0.2286 -0.0130  0.0586
12168TIP3    H157919   3.919   0.865   4.602 -1.4193 -1.2214  0.1624
12168TIP3    H257920   3.820   0.979   4.587  0.5758  0.5329  0.1586
12169TIP3   OH257921   3.673   6.325   2.851  0.3165 -0.9413 -0.3349
12169TIP3    H157922   3.700   6.402   2.901  1.7399 -0.7664 -1.3539
12169TIP3    H257923   3.581   6.313   2.873  0.4877  0.1386  1.0173
12170TIP3   OH257924   2.782   2.193   5.208  0.3825 -0.1033 -0.1263
12170TIP3    H157925   2.747   2.110   5.242 -1.8308  0.8047 -0.1267
12170TIP3    H257926   2.801   2.175   5.115 -0.3529 -0.5171 -0.1938
12171TIP3   OH257927   2.875   5.670  13.809  0.5701 -0.1009  0.0426
12171TIP3    H157928   2.909   5.741  13.863  1.1509  0.9269 -1.6401
12171TIP3    H257929   2.893   5.591  13.860  2.3550  0.7268  0.7455
12172TIP3   OH257930   3.292   4.180   5.793  0.5643 -0.6159 -0.3345
12172TIP3    H157931   3.230   4.240   5.834  1.1046  0.4599 -1.0812
12172TIP3    H257932   3.245   4.096   5.791  0.3889 -0.6263  2.1099
12173TIP3   OH257933   2.675   3.978  10.913  0.0821 -0.0883  0.1443
12173TIP3    H157934   2.605   3.928  10.953 -0.3229  0.0919 -0.3286
12173TIP3    H257935   2.751   3.920  10.914 -0.0591 -0.2563  0.7207
12174TIP3   OH257936   2.075   4.987  16.578 -0.0693 -0.1082 -0.1239
12174TIP3    H157937   2.117   5.062  16.618  1.7307 -1.1361 -0.0204
12174TIP3    H257938   2.100   4.913  16.633 -2.3310 -0.7155  0.1454
12175TIP3   OH257939   3.692   1.921  13.162 -0.0929 -0.3708  0.5423
12175TIP3    H157940   3.730   1.973  13.091  1.3506 -0.1258  1.4934
12175TIP3    H257941   3.677   1.984  13.233 -0.3494 -0.8609  0.9287
12176TIP3   OH257942   4.969   6.468   3.470  0.1268  0.6279  0.3774
12176TIP3    H157943   5.020   6.532   3.519  1.0140 -0.5264  0.9749
12176TIP3    H257944   5.021   6.388   3.472  0.3529  0.6361 -2.7723
12177TIP3   OH257945   6.119   4.116   0.317 -0.2712 -0.3733 -0.0250
12177TIP3    H157946   6.175   4.071   0.381  0.6322 -1.5889 -1.6220
12177TIP3    H257947   6.155   4.204   0.311  0.1822 -0.5204  0.5150
12178TIP3   OH257948   1.415   3.901   2.106 -0.1145 -0.2276 -0.0121
12178TIP3    H157949   1.450   3.956   2.176 -0.0628 -1.7434  1.1648
12178TIP3    H257950   1.321   3.918   2.107 -0.6122 -2.6952  2.6751
12179TIP3   OH257951   5.337   2.019   1.012 -0.2084 -0.2144 -0.0297
12179TIP3    H157952   5.427   1.997   0.987  0.6038  2.4941  0.3187
12179TIP3    H257953   5.319   1.965   1.089 -0.1462 -3.2877 -2.0827
12180TIP3   OH257954   0.693   3.051   3.770 -1.0048 -0.3538  0.3258
12180TIP3    H157955   0.719   2.990   3.701 -0.1067 -0.2774  0.5803
12180TIP3    H257956   0.722   3.137   3.737 -2.1841 -0.0716  0.0052
12181TIP3   OH257957   6.145   1.625  14.124  0.6062  0.5518 -1.2992
12181TIP3    H157958   6.119   1.539  14.155 -1.2438  1.2993 -0.7448
12181TIP3    H257959   6.151   1.679  14.203  2.6196  0.7399 -1.5379
12182TIP3   OH257960   5.435   4.015   5.036 -0.1507  0.7072 -0.1423
12182TIP3    H157961   5.385   3.996   5.115 -2.9861 -0.6624 -2.2223
12182TIP3    H257962   5.408   4.103   5.011 -1.5406 -0.0220 -1.2502
12183TIP3   OH257963   1.792   4.348   0.088  0.5563 -0.1234  0.3482
12183TIP3    H157964   1.708   4.393   0.074  1.9356  2.7427  0.9601
12183TIP3    H257965   1.767   4.263   0.124 -2.0706  1.3316  2.2255
12184TIP3   OH257966   2.356   5.041  13.654 -0.4262  0.1207  0.2785
12184TIP3    H157967   2.399   5.037  13.568  0.9757  1.0999  0.9142
12184TIP3    H257968   2.389   4.964  13.700  1.4041  1.3613  1.0920
12185TIP3   OH257969   2.873   1.500   4.286  0.4612 -0.3163 -0.2212
12185TIP3    H157970   2.936   1.521   4.217 -0.3344  1.4907 -0.4426
12185TIP3    H257971   2.850   1.586   4.323 -1.8485 -0.9506 -0.1427
12186TIP3   OH257972   0.841   4.862   5.210  0.0495  0.0152 -0.4691
12186TIP3    H157973   0.881   4.824   5.288 -1.3880 -0.4498  0.0532
12186TIP3    H257974   0.816   4.951   5.238  1.9076  0.7979 -1.1982
12187TIP3   OH257975   5.369   1.623   1.548  0.1184  0.4530  0.1321
12187TIP3    H157976   5.294   1.570   1.522  0.4690  0.6109 -1.2111
12187TIP3    H257977   5.340   1.713   1.534 -0.0912  0.5920  1.3859
12188TIP3   OH257978   4.773   2.905   3.649 -0.1303  0.3895  0.3871
12188TIP3    H157979   4.729   2.930   3.568 -0.1398  0.4840  0.4216
12188TIP3    H257980   4.727   2.826   3.677 -0.7913  0.9317  0.8431
12189TIP3   OH257981   5.589   6.147   1.693  0.4660 -0.0497 -0.1464
12189TIP3    H157982   5.626   6.122   1.778 -0.9866  1.1813  0.8625
12189TIP3    H257983   5.545   6.067   1.662 -0.3388 -0.0537  0.9886
12190TIP3   OH257984   0.449   6.391   6.026  0.8039 -0.4874  0.2003
12190TIP3    H157985   0.448   6.306   6.071  1.3261  0.2650  1.6694
12190TIP3    H257986   0.358   6.421   6.030  1.3621  1.0632  3.7473
12191TIP3   OH257987   2.822   6.669   4.557  0.4035 -0.2608 -0.3938
12191TIP3    H157988   2.893   6.608   4.540  1.4969  0.8657  0.0943
12191TIP3    H257989   2.806   6.713   4.474 -1.1866 -2.0235 -1.0534
12192TIP3   OH257990   4.050   1.087   4.312  0.9905  0.2441  0.1744
12192TIP3    H157991   4.051   1.087   4.216 -3.3237  0.7582  0.0424
12192TIP3    H257992   4.025   0.997   4.335  1.9776  0.1346  0.8115
12193TIP3   OH257993   6.216   4.258  14.316 -0.5054 -0.2937 -0.0721
12193TIP3    H157994   6.164   4.330  14.281  0.4172 -0.4147 -1.7353
12193TIP3    H257995   6.164   4.225  14.390 -1.3434  1.5005  0.1761
12194TIP3   OH257996   4.414   1.588  14.299 -0.4628  0.0119  0.2082
12194TIP3    H157997   4.404   1.494  14.316  1.6056 -0.2949 -0.1289
12194TIP3    H257998   4.346   1.629  14.353  0.3481 -1.5049  2.4978
12195TIP3   OH257999   2.821   0.576  11.352  0.4516 -0.0008  0.0280
12195TIP3    H158000   2.906   0.581  11.395 -0.4195 -0.1093  1.8442
12195TIP3    H258001   2.806   0.664  11.317  1.1005  0.1418  0.1012
12196TIP3   OH258002   3.122   1.585  10.286  0.1633 -0.1658 -0.2869
12196TIP3    H158003   3.085   1.661  10.330 -0.0753  1.2488 -2.8138
12196TIP3    H258004   3.179   1.622  10.218  0.8297 -2.2518 -0.9115
12197TIP3   OH258005   0.743   5.229   5.697 -0.6806  0.1484 -0.1514
12197TIP3    H158006   0.648   5.222   5.697 -0.6357 -0.8597 -1.8891
12197TIP3    H258007   0.764   5.264   5.610  0.4607  1.5807  0.6867
12198TIP3   OH258008   1.161   2.433  10.734  0.3330 -0.3247 -0.7011
12198TIP3    H158009   1.104   2.431  10.657 -1.7347  2.0706  0.6666
12198TIP3    H258010   1.208   2.516  10.727 -2.2300  1.4604  2.1465
12199TIP3   OH258011   4.797   1.429   4.281 -0.3518  0.2190  0.5657
12199TIP3    H158012   4.747   1.403   4.204 -0.1564  0.6254  0.3001
12199TIP3    H258013   4.763   1.515   4.303 -1.0697 -0.2936  1.5064
12200TIP3   OH258014   2.361   2.818  15.974 -0.6459  0.6465  0.3127
12200TIP3    H158015   2.448   2.854  15.955  0.1778 -1.1677  0.4523
12200TIP3    H258016   2.331   2.783  15.890 -0.9032  0.5693  0.4371
12201TIP3   OH258017   1.870   2.723   1.633  0.5528  0.1864  0.0689
12201TIP3    H158018   1.818   2.740   1.555  0.6689  1.7590  0.3285
12201TIP3    H258019   1.865   2.628   1.645 -2.3787  0.3089  0.1692
12202TIP3   OH258020   4.982   5.815  10.658 -0.0084  0.3435 -0.0583
12202TIP3    H158021   4.895   5.782  10.636  0.1944 -0.0679 -0.2381
12202TIP3    H258022   5.039   5.782  10.589  0.3336  0.4288  0.1807
12203TIP3   OH258023   5.879   5.489  16.399 -0.2593 -0.2986 -0.1364
12203TIP3    H158024   5.892   5.432  16.322  0.1326 -2.0168  1.1678
12203TIP3    H258025   5.789   5.471  16.426 -1.3854  2.4129 -1.8190
12204TIP3   OH258026   0.131   2.198  16.412  0.1770 -0.6042  0.7388
12204TIP3    H158027   0.054   2.230  16.364  1.1251 -0.0149 -0.4270
12204TIP3    H258028   0.143   2.109  16.380 -0.4834 -0.9769  1.5111
12205TIP3   OH258029   1.794   4.439  11.425  0.1360 -0.3477  0.6761
12205TIP3    H158030   1.756   4.516  11.382 -0.4951 -0.9402  0.1612
12205TIP3    H258031   1.806   4.375  11.354 -0.2698 -1.0822  1.2623
12206TIP3   OH258032   3.153   4.616  16.214 -0.0678  0.6956 -0.1821
12206TIP3    H158033   3.072   4.667  16.222  0.2855  1.0340  1.5186
12206TIP3    H258034   3.141   4.544  16.276  0.3785 -0.0263 -0.9251
12207TIP3   OH258035   6.128   2.274  12.776 -0.2651 -0.0697  0.1079
12207TIP3    H158036   6.144   2.202  12.838 -1.2003 -1.5742 -1.3566
12207TIP3    H258037   6.046   2.251  12.733 -0.5173  1.8407 -0.4743
12208TIP3   OH258038   2.713   2.020   2.668 -0.0498 -0.0722 -0.2528
12208TIP3    H158039   2.714   1.998   2.575 -1.8032 -1.5086  0.0351
12208TIP3    H258040   2.758   1.946   2.710 -0.9063 -0.3430  0.1987
12209TIP3   OH258041   1.639   1.781  13.358 -0.5354  0.0405 -0.3249
12209TIP3    H158042   1.724   1.818  13.337 -0.1109 -0.8633 -0.2189
12209TIP3    H258043   1.633   1.702  13.304 -1.1861 -0.0564 -0.1251
12210TIP3   OH258044   1.876   4.765  15.233 -0.2685  0.1998 -0.3756
12210TIP3    H158045   1.944   4.698  15.234 -0.0749  0.3825  1.8851
12210TIP3    H258046   1.918   4.842  15.272 -2.0892 -0.0404  2.1600
12211TIP3   OH258047   5.768   3.420   2.744  0.2517 -0.0463 -0.3699
12211TIP3    H158048   5.711   3.354   2.705 -1.5696  0.9711  0.5210
12211TIP3    H258049   5.846   3.419   2.688 -0.9443 -0.9178 -2.0906
12212TIP3   OH258050   5.823   4.729   6.560  0.0895 -0.1106  0.0675
12212TIP3    H158051   5.874   4.736   6.480  1.4741 -0.7397  0.8867
12212TIP3    H258052   5.733   4.716   6.530  0.2824  1.7952 -1.3834
12213TIP3   OH258053   3.594   2.901  16.781  0.4010  0.0846  0.4183
12213TIP3    H158054   3.677   2.907  16.734  0.7904 -0.0969  1.0832
12213TIP3    H258055   3.580   2.989  16.816  0.3830  0.0764  0.4308
12214TIP3   OH258056   2.768   1.683  14.611  0.4891  0.4184 -0.0652
12214TIP3    H158057   2.793   1.602  14.566 -2.4303 -0.1093 -0.8507
12214TIP3    H258058   2.822   1.684  14.690  0.8899 -2.0614 -0.2622
12215TIP3   OH258059   6.024   1.234   1.934 -0.3042  0.3230 -1.0007
12215TIP3    H158060   6.066   1.251   1.850  0.5393  2.5628 -0.1908
12215TIP3    H258061   5.975   1.315   1.953 -2.1184 -0.9076 -0.2718
12216TIP3   OH258062   3.879   4.249  13.935 -0.1523  0.0088  0.6262
12216TIP3    H158063   3.807   4.312  13.935 -1.2686 -1.2583  0.5702
12216TIP3    H258064   3.926   4.267  14.016 -0.7232  0.6141  0.8285
12217TIP3   OH258065   2.749   1.434   3.908  0.2155  0.4283  0.0757
12217TIP3    H158066   2.725   1.375   3.980 -3.1683 -0.8073 -1.9252
12217TIP3    H258067   2.833   1.401   3.876 -0.0444 -1.2899  1.1321
12218TIP3   OH258068   2.593   4.240   4.885  0.3356 -0.3252  0.3294
12218TIP3    H158069   2.508   4.264   4.848 -0.0121 -0.6956  0.8889
12218TIP3    H258070   2.638   4.195   4.814  0.1092 -0.0366 -0.0015
12219TIP3   OH258071   5.928   2.154  12.658 -0.0479  0.0984 -0.1921
12219TIP3    H158072   5.883   2.070  12.648  0.8661 -0.2234 -1.9286
12219TIP3    H258073   5.943   2.183  12.568  0.8351  1.4799  0.3916
12220TIP3   OH258074   5.134   3.774   4.149  0.4219  0.1259  0.1471
12220TIP3    H158075   5.144   3.813   4.237  0.6999 -1.5798  0.8861
12220TIP3    H258076   5.195   3.701   4.149  1.6462  1.1080 -2.0885
12221TIP3   OH258077   2.606   1.729  11.451 -0.3063  0.3417 -0.1783
12221TIP3    H158078   2.646   1.696  11.371 -0.1562 -0.5431  0.2586
12221TIP3    H258079   2.577   1.818  11.428  0.6881  0.4908 -0.8926
12222TIP3   OH258080   6.700   6.340   3.762 -0.5330 -0.0727  0.0393
12222TIP3    H158081   6.782   6.320   3.807 -0.0851 -0.0064 -0.7293
12222TIP3    H258082   6.682   6.262   3.710  1.2636  1.4605 -3.0420
12223TIP3   OH258083   6.375   2.145   3.709  0.9052 -0.7982  0.1624
12223TIP3    H158084   6.280   2.143   3.710  0.9018 -3.5694 -0.6106
12223TIP3    H258085   6.401   2.084   3.779  2.0844 -1.2080 -0.6196
12224TIP3   OH258086   2.871   3.487  13.291 -0.6199 -0.0173  1.1317
12224TIP3    H158087   2.881   3.486  13.196 -1.1860  0.4680  1.0582
12224TIP3    H258088   2.961   3.483  13.325 -0.3299  1.1082  0.5527
12225TIP3   OH258089   4.837   1.759   1.910 -0.2331 -0.4205  0.2640
12225TIP3    H158090   4.826   1.776   2.004  0.9307  1.1658  0.1328
12225TIP3    H258091   4.865   1.843   1.874 -2.5203 -0.5264 -1.8442
12226TIP3   OH258092   5.453   4.987  15.565  0.1279 -0.3618  0.0700
12226TIP3    H158093   5.505   5.035  15.630 -0.4527  0.3306  0.0266
12226TIP3    H258094   5.500   5.001  15.482 -0.7796  1.2769 -0.1817
12227TIP3   OH258095   2.293   1.961   6.230  0.1118 -0.1184  0.1731
12227TIP3    H158096   2.317   1.885   6.283  1.2054  1.5605  2.1840
12227TIP3    H258097   2.215   1.996   6.274 -1.1229 -0.7841 -1.4705
12228TIP3   OH258098   5.175   2.120   0.811 -0.1167 -0.6585  0.3654
12228TIP3    H158099   5.222   2.095   0.891 -0.1734 -1.9593  0.0123
12228TIP3    H258100   5.240   2.106   0.741 -0.8614 -1.9977 -0.0750
12229TIP3   OH258101   5.632   0.983   0.979  0.0244  0.2928  0.4166
12229TIP3    H158102   5.676   1.010   1.060 -1.3630  1.6765  0.7323
12229TIP3    H258103   5.561   1.047   0.968 -2.5290 -2.4497  0.4225
12230TIP3   OH258104   4.074   1.402   3.022  0.2296 -0.3604  0.3322
12230TIP3    H158105   4.106   1.461   2.954  1.0910  0.4339  1.4084
12230TIP3    H258106   3.979   1.415   3.022  0.3332  0.4281 -0.0030
12231TIP3   OH258107   3.685   1.810   3.624 -0.2323 -0.2606  0.2469
12231TIP3    H158108   3.760   1.767   3.666  0.0521  0.4924  0.5130
12231TIP3    H258109   3.723   1.881   3.573 -0.6334 -0.8154 -0.8490
12232TIP3   OH258110   5.126   3.308  11.832 -0.1522  0.5907 -0.5687
12232TIP3    H158111   5.193   3.361  11.876 -0.6730  0.7130  0.0856
12232TIP3    H258112   5.175   3.237  11.790  0.1086 -1.3062  2.7655
12233TIP3   OH258113   5.552   4.561  13.973 -0.3588  0.2478 -0.1107
12233TIP3    H158114   5.635   4.605  13.952  0.4164 -0.5355  1.2425
12233TIP3    H258115   5.510   4.619  14.036 -0.1383 -0.1013  0.3559
12234TIP3   OH258116   0.218   3.191   2.391  0.1164  0.0307  0.4523
12234TIP3    H158117   0.232   3.203   2.297 -0.2176 -1.1327  0.2563
12234TIP3    H258118   0.128   3.220   2.406  0.0596 -0.1033  0.3646
12235TIP3   OH258119   3.335   2.520   4.576  0.1239 -0.0703  0.8843
12235TIP3    H158120   3.382   2.602   4.592  1.8539 -0.7200 -0.7356
12235TIP3    H258121   3.379   2.455   4.632  0.5622 -0.4759  0.0794
12236TIP3   OH258122   4.265   0.704  17.130  0.0508 -0.1916  0.2007
12236TIP3    H158123   4.217   0.692  17.212 -0.1330  0.8686  0.2559
12236TIP3    H258124   4.249   0.623  17.081  0.0226 -0.7560  1.1346
12237TIP3   OH258125   4.636   2.175  14.502 -0.2743  0.2058 -0.5054
12237TIP3    H158126   4.666   2.260  14.472  0.3537  0.1589 -0.0190
12237TIP3    H258127   4.673   2.113  14.439  0.4757  0.1650 -0.0172
12238TIP3   OH258128   1.522   0.417  13.426 -0.0965  0.2651 -0.1063
12238TIP3    H158129   1.590   0.484  13.422 -0.6687  0.8751  0.0633
12238TIP3    H258130   1.453   0.458  13.479 -1.0282  0.0577 -1.1413
12239TIP3   OH258131   0.627   2.429   4.901  0.1135  0.2304  0.2767
12239TIP3    H158132   0.562   2.419   4.971  0.9096  0.7898  1.1182
12239TIP3    H258133   0.664   2.342   4.891 -1.2369 -0.2438 -0.6868
12240TIP3   OH258134   5.269   5.151  15.149 -0.6710 -0.4008  0.1260
12240TIP3    H158135   5.229   5.136  15.234  1.6194  2.0486  1.7234
12240TIP3    H258136   5.270   5.065  15.107 -1.9262 -1.6209  2.5068
12241TIP3   OH258137   6.752   4.075  14.332  0.5868  0.1921  0.2362
12241TIP3    H158138   6.674   4.130  14.328  0.3027 -0.0807  1.8201
12241TIP3    H258139   6.719   3.985  14.319  0.7598  0.1716 -0.0617
12242TIP3   OH258140   4.605   0.842   0.231 -0.4932  0.3696 -0.0679
12242TIP3    H158141   4.542   0.770   0.220 -0.6282 -0.1953  3.7389
12242TIP3    H258142   4.691   0.800   0.225 -0.5128  0.4760 -1.2128
12243TIP3   OH258143   1.251   2.649  14.626  0.2176  0.2912 -0.2680
12243TIP3    H158144   1.282   2.565  14.660  1.0658 -0.0927 -1.9237
12243TIP3    H258145   1.322   2.680  14.570 -0.1834  2.0198  0.1338
12244TIP3   OH258146   4.443   2.206  16.223  0.1171  0.0577  0.3279
12244TIP3    H158147   4.365   2.215  16.167  1.5759 -1.7182 -2.0833
12244TIP3    H258148   4.428   2.125  16.271  0.4057 -0.1895 -0.0015
12245TIP3   OH258149   4.594   1.367  16.119 -0.3456  0.9412 -0.0630
12245TIP3    H158150   4.677   1.365  16.167  0.8340  1.6259 -1.9995
12245TIP3    H258151   4.543   1.295  16.155  1.8781 -0.7569 -0.2064
12246TIP3   OH258152   5.552   2.746   3.227  0.0464  0.1177 -0.3125
12246TIP3    H158153   5.607   2.709   3.158  0.1425 -0.6053  0.1470
12246TIP3    H258154   5.463   2.736   3.194 -0.0291 -1.8975  0.4455
12247TIP3   OH258155   5.300   5.032  13.469 -0.0285  0.0943 -0.4997
12247TIP3    H158156   5.252   5.077  13.538 -1.7915 -0.6423 -1.2245
12247TIP3    H258157   5.319   5.100  13.404 -0.0621  0.3927 -0.1961
12248TIP3   OH258158   5.034   1.843   4.776  0.3511  0.0178 -0.2619
12248TIP3    H158159   5.036   1.766   4.718  0.2973 -0.1727 -0.0119
12248TIP3    H258160   5.116   1.839   4.824  0.0569 -0.2551  0.2286
12249TIP3   OH258161   6.256   4.338   0.345 -0.4265 -0.5465 -0.1130
12249TIP3    H158162   6.279   4.420   0.301  0.1942 -1.2433 -1.0878
12249TIP3    H258163   6.324   4.327   0.411 -0.4571 -0.3300 -0.0436
12250TIP3   OH258164   5.342   1.830  13.382  0.4441  0.8265 -0.4646
12250TIP3    H158165   5.285   1.760  13.352  0.7598 -0.8308  2.6176
12250TIP3    H258166   5.299   1.910  13.353 -1.6819 -0.5147 -1.1261
12251TIP3   OH258167   4.670   6.286   2.969  0.4486 -0.6452 -0.3262
12251TIP3    H158168   4.680   6.251   3.058  2.5750 -1.0018 -0.6731
12251TIP3    H258169   4.695   6.378   2.977 -0.6196 -0.3500 -0.3158
12252TIP3   OH258170   2.474   0.162   0.887  0.0189  0.3659 -0.4504
12252TIP3    H158171   2.405   0.123   0.941 -0.5226 -0.9077 -1.9934
12252TIP3    H258172   2.555   0.131   0.926 -0.3367  0.1216  0.1090
12253TIP3   OH258173   3.878   5.047   6.252 -0.8607  0.0587 -0.6173
12253TIP3    H158174   3.908   5.122   6.201  3.0399 -0.8777  0.0715
12253TIP3    H258175   3.838   5.086   6.330 -2.1959  1.4189 -1.9410
12254TIP3   OH258176   1.910   0.878   5.730 -0.2808 -0.2579 -0.2551
12254TIP3    H158177   1.850   0.840   5.665 -0.2438 -1.3970  0.3530
12254TIP3    H258178   1.878   0.967   5.743 -1.7022 -0.7777 -0.1141
12255TIP3   OH258179   4.467   4.722  14.604 -0.3769  0.0934  0.6718
12255TIP3    H158180   4.466   4.725  14.699  0.0449  0.9144  0.6487
12255TIP3    H258181   4.422   4.801  14.576 -0.6917 -0.2506  0.1879
12256TIP3   OH258182   3.254   0.898   2.240 -0.0049 -0.4448  0.0412
12256TIP3    H158183   3.254   0.878   2.334  0.9091  0.7638  0.3173
12256TIP3    H258184   3.307   0.829   2.201 -2.0446 -2.0852  0.1422
12257TIP3   OH258185   3.380   5.896   0.064 -0.0042  0.5243  0.1928
12257TIP3    H158186   3.391   5.979   0.017  0.0433  0.3396 -0.1216
12257TIP3    H258187   3.414   5.829   0.004 -0.7006  0.2030  0.1476
12258TIP3   OH258188   1.986   6.136   3.722 -0.2329  0.1619 -0.1689
12258TIP3    H158189   1.892   6.139   3.738 -0.1237 -0.8149  0.7221
12258TIP3    H258190   1.998   6.180   3.638 -1.2657  2.1455  0.6763
12259TIP3   OH258191   2.471   3.389   3.827 -0.5380  0.2781  0.4926
12259TIP3    H158192   2.445   3.471   3.784  1.0335  0.1088 -0.8228
12259TIP3    H258193   2.561   3.375   3.799 -0.5892 -1.5936  1.2122
12260TIP3   OH258194   3.797   6.355   0.469 -0.3219 -0.7595  0.2082
12260TIP3    H158195   3.864   6.308   0.518 -1.5879 -0.6593  2.1133
12260TIP3    H258196   3.844   6.427   0.426  0.8566 -0.9385  1.1803
12261TIP3   OH258197   4.642   3.635   3.584  0.2120 -0.0261 -0.5272
12261TIP3    H158198   4.730   3.596   3.581 -0.0882 -0.9542  1.9499
12261TIP3    H258199   4.583   3.561   3.595 -0.8188  0.6846 -1.1849
12262TIP3   OH258200   5.267   4.160  11.733 -0.0556  0.7842  0.4933
12262TIP3    H158201   5.244   4.136  11.823 -1.0364 -1.5235 -0.3210
12262TIP3    H258202   5.185   4.188  11.694 -0.0513 -0.1751 -0.2409
12263TIP3   OH258203   0.172   0.873   2.961 -0.1186 -0.6385 -0.3572
12263TIP3    H158204   0.159   0.843   3.051 -0.5051 -2.0424 -0.8682
12263TIP3    H258205   0.265   0.857   2.944  0.4919  1.7946  0.5581
12264TIP3   OH258206   5.698   0.208  12.891 -0.0180  0.1575 -0.8324
12264TIP3    H158207   5.695   0.290  12.842 -0.0831  1.3447  1.1131
12264TIP3    H258208   5.777   0.215  12.945 -0.4398 -0.7239 -0.0758
12265TIP3   OH258209   1.852   3.584   3.777  0.0981  0.2258  0.1913
12265TIP3    H158210   1.891   3.655   3.829 -2.1082  1.1565  0.6084
12265TIP3    H258211   1.800   3.534   3.839 -1.0531  0.2306 -0.7585
12266TIP3   OH258212   6.690   4.239  15.261 -0.3729 -0.0541  0.0478
12266TIP3    H158213   6.709   4.332  15.249 -1.3096  0.5691  2.8583
12266TIP3    H258214   6.765   4.205  15.309  0.3622 -0.9495 -1.7343
12267TIP3   OH258215   0.317   3.011  14.011  0.2700 -0.5685  0.1744
12267TIP3    H158216   0.246   3.053  14.058  0.8536 -0.9653  1.4181
12267TIP3    H258217   0.281   2.927  13.982  0.2315 -0.7764  0.8209
12268TIP3   OH258218   1.577   4.347  12.082  0.2670 -1.1585 -0.3402
12268TIP3    H158219   1.646   4.368  12.145 -0.2371  1.9916 -0.7418
12268TIP3    H258220   1.624   4.318  12.004  1.2229  1.3619 -0.7534
12269TIP3   OH258221   2.487   0.460   5.237  0.4730  0.0768  0.5286
12269TIP3    H158222   2.552   0.390   5.241 -2.8349 -3.0958  0.8595
12269TIP3    H258223   2.435   0.449   5.317 -2.2817  0.6597 -1.1215
12270TIP3   OH258224   0.834   1.939   1.508 -0.3332  0.1198  0.4270
12270TIP3    H158225   0.879   1.863   1.543 -1.5342 -0.7561  0.1096
12270TIP3    H258226   0.769   1.962   1.575 -2.4586 -1.4036 -1.0166
12271TIP3   OH258227   3.933   4.666  15.208  0.0008  0.2061 -0.6379
12271TIP3    H158228   3.856   4.718  15.229 -1.0312 -1.4116 -0.3490
12271TIP3    H258229   4.006   4.714  15.247 -1.0843  0.7340  0.7790
12272TIP3   OH258230   2.936   3.846   4.663 -0.0487 -0.1985  0.3597
12272TIP3    H158231   2.971   3.783   4.600  0.4992  1.3241 -0.8914
12272TIP3    H258232   3.001   3.916   4.665 -1.4186  1.0870  0.5267
12273TIP3   OH258233   5.913   3.693  12.455  0.1079 -0.2703 -0.5609
12273TIP3    H158234   5.949   3.767  12.504 -3.4655  2.6126 -2.0257
12273TIP3    H258235   5.871   3.639  12.522  1.6881 -0.3866  0.3763
12274TIP3   OH258236   6.351   2.756  11.986 -0.1318 -0.2211 -0.2483
12274TIP3    H158237   6.323   2.710  11.907  0.1721 -3.9374  1.6611
12274TIP3    H258238   6.274   2.803  12.016 -1.0085 -0.9467 -1.3306
12275TIP3   OH258239   5.447   2.618   4.516 -0.2904 -0.0704  0.0282
12275TIP3    H158240   5.449   2.522   4.510  0.2791 -0.0313 -0.5001
12275TIP3    H258241   5.521   2.646   4.463 -0.5013  0.6691  0.1259
12276TIP3   OH258242   2.769   1.346   1.323  0.1549  0.3586  0.2952
12276TIP3    H158243   2.823   1.360   1.401  1.2499  0.8619 -0.5534
12276TIP3    H258244   2.831   1.327   1.253 -0.9445 -2.4964  0.0260
12277TIP3   OH258245   4.834   2.590  13.060  0.1195 -0.2447 -0.0765
12277TIP3    H158246   4.740   2.592  13.041 -0.1955  1.2708  1.4567
12277TIP3    H258247   4.840   2.613  13.153  2.0734  0.6613 -0.3964
12278TIP3   OH258248   3.826   1.210   0.408  0.1619  0.7722 -0.1248
12278TIP3    H158249   3.782   1.292   0.387  0.4183  1.3875  1.6385
12278TIP3    H258250   3.869   1.226   0.492 -1.7458 -1.8965  1.4658
12279TIP3   OH258251   4.269   0.559   6.274  0.2325 -0.6198  0.3702
12279TIP3    H158252   4.318   0.492   6.323 -1.3645 -0.8906  1.6567
12279TIP3    H258253   4.247   0.517   6.191 -1.3267 -1.9474  1.4330
12280TIP3   OH258254   3.203   2.261   5.250  0.1312 -0.6343 -0.3967
12280TIP3    H158255   3.184   2.306   5.332 -1.1934 -0.3786 -0.8419
12280TIP3    H258256   3.230   2.330   5.190 -1.2846 -0.4894 -0.8903
12281TIP3   OH258257   1.455   2.353   3.557 -0.6701 -0.2949  0.1993
12281TIP3    H158258   1.522   2.284   3.553  1.6025  1.7891  0.7923
12281TIP3    H258259   1.409   2.336   3.639  1.1732 -0.0099  1.3365
12282TIP3   OH258260   0.410   0.523  13.464  0.2419  0.2338 -0.1483
12282TIP3    H158261   0.386   0.583  13.534  0.0749  0.5910 -0.5145
12282TIP3    H258262   0.470   0.573  13.409 -1.4914  0.7352 -1.5865
12283TIP3   OH258263   0.090   4.513   0.989 -0.4541  0.1395 -0.1153
12283TIP3    H158264   0.152   4.481   0.924 -1.6363 -1.0386 -0.6872
12283TIP3    H258265   0.135   4.586   1.032  1.7879 -1.4214  0.2765
12284TIP3   OH258266   6.220   4.690  12.614 -0.9303  0.2174 -0.3338
12284TIP3    H158267   6.219   4.716  12.522 -2.5356 -1.1266 -0.7234
12284TIP3    H258268   6.140   4.638  12.625  0.1618 -1.1459  1.3873
12285TIP3   OH258269   6.475   0.860   1.522  0.1979  0.5276 -0.5282
12285TIP3    H158270   6.513   0.843   1.608 -0.1496 -0.2524 -0.5192
12285TIP3    H258271   6.525   0.933   1.487  0.4520  0.7359  0.2695
12286TIP3   OH258272   3.922   1.041   5.623  0.1994  0.3107  0.9193
12286TIP3    H158273   3.970   1.043   5.540 -0.7246  1.6038  0.4100
12286TIP3    H258274   3.965   1.108   5.676 -0.0512  0.3836  1.0274
12287TIP3   OH258275   5.909   5.003  14.916  0.1927  0.0370  0.2278
12287TIP3    H158276   5.979   5.024  14.854  1.3618  0.3432  1.6212
12287TIP3    H258277   5.906   5.078  14.975 -1.3838  0.0533  0.1413
12288TIP3   OH258278   4.060   6.359   4.123  0.0955 -0.0230  0.2651
12288TIP3    H158279   4.040   6.272   4.158  0.5119  0.7455  2.5014
12288TIP3    H258280   4.131   6.392   4.180 -0.5052  2.0312 -0.1326
12289TIP3   OH258281   0.156   2.359   5.323  0.0178 -0.2101 -0.5524
12289TIP3    H158282   0.102   2.321   5.393 -0.6503 -1.3838 -1.6885
12289TIP3    H258283   0.193   2.283   5.278  1.9532  0.5752 -0.3066
12290TIP3   OH258284   3.638   4.881  11.872 -0.4023 -0.0327  0.1242
12290TIP3    H158285   3.710   4.865  11.932 -0.6901 -2.4463 -0.1061
12290TIP3    H258286   3.676   4.868  11.785 -0.8632 -0.3863 -0.0310
12291TIP3   OH258287   3.153   1.142  11.109 -0.5795 -0.5459 -0.0474
12291TIP3    H158288   3.115   1.097  11.033  0.5144 -0.4337 -0.6858
12291TIP3    H258289   3.230   1.187  11.073  0.0966 -0.7039  1.1803
12292TIP3   OH258290   3.761   5.381  11.770 -0.0802  0.5196 -0.3917
12292TIP3    H158291   3.698   5.337  11.713  0.2886  0.8556 -1.0720
12292TIP3    H258292   3.838   5.394  11.714 -0.0183  1.5973 -0.0638
12293TIP3   OH258293   1.185   0.026  15.041 -0.3043 -0.6290 -0.7611
12293TIP3    H158294   1.180   0.097  14.977 -2.2659  0.0690  0.1228
12293TIP3    H258295   1.171  -0.054  14.990 -0.1661 -0.2060 -1.4613
12294TIP3   OH258296   4.914   2.332   1.363 -0.6681  0.0701 -0.2564
12294TIP3    H158297   4.972   2.359   1.434 -2.3158  2.1433  0.3720
12294TIP3    H258298   4.970   2.280   1.305  1.3075  0.3727  1.3013
12295TIP3   OH258299   0.706   4.167  14.836  0.1289  0.2036  0.0115
12295TIP3    H158300   0.669   4.253  14.855  0.4809  1.1832 -3.4373
12295TIP3    H258301   0.801   4.180  14.840  0.2085  0.4076 -2.1472
12296TIP3   OH258302   6.633   2.751  15.900  0.4119  0.3155 -0.2961
12296TIP3    H158303   6.651   2.661  15.870 -0.4766  0.4217 -1.1610
12296TIP3    H258304   6.717   2.781  15.936  0.8032 -0.7470 -0.3002
12297TIP3   OH258305   1.815   2.570   4.630  0.1031  0.5510  0.0581
12297TIP3    H158306   1.768   2.583   4.712  0.5101  0.5997  0.2853
12297TIP3    H258307   1.902   2.606   4.646  0.5190 -0.3976 -0.0430
12298TIP3   OH258308   1.594   2.203   5.815 -0.1445 -0.6108 -0.0379
12298TIP3    H158309   1.630   2.116   5.831 -0.9822 -0.7707  1.0075
12298TIP3    H258310   1.671   2.260   5.814  0.1281 -0.8717  2.6933
12299TIP3   OH258311   0.483   6.454  15.822  0.9377  0.4054 -0.8431
12299TIP3    H158312   0.389   6.468  15.831  1.1979  1.7798 -0.2112
12299TIP3    H258313   0.494   6.423  15.732 -0.1007  0.3012 -0.9439
12300TIP3   OH258314   4.095   2.212   1.160 -0.6633 -0.7086  0.3859
12300TIP3    H158315   4.164   2.153   1.190  0.0653  0.3301  0.7721
12300TIP3    H258316   4.093   2.202   1.065  0.6174 -0.1078  0.2840
12301TIP3   OH258317   0.809   5.188   2.777  0.2553  0.1519  0.6922
12301TIP3    H158318   0.715   5.167   2.774  0.3437 -0.1425 -0.4756
12301TIP3    H258319   0.848   5.116   2.827  0.2603 -1.4341 -1.4692
12302TIP3   OH258320   0.443   5.247  11.602 -0.3412 -0.0529  0.3593
12302TIP3    H158321   0.439   5.304  11.525 -0.3944 -2.8822 -1.7665
12302TIP3    H258322   0.361   5.198  11.600 -0.0985 -0.5514  1.9300
12303TIP3   OH258323   0.829   6.486   6.280 -0.4965  0.7445  0.4196
12303TIP3    H158324   0.890   6.551   6.316 -0.6614  0.9970  0.2434
12303TIP3    H258325   0.751   6.536   6.258 -0.3931  0.5927 -0.3034
12304TIP3   OH258326   3.982   2.407   5.297  0.1988 -0.6202 -0.0376
12304TIP3    H158327   4.044   2.345   5.259 -0.7946 -0.2317 -2.4013
12304TIP3    H258328   4.027   2.443   5.374  1.9373 -2.0755 -0.3577
12305TIP3   OH258329   4.768   5.910  11.282  0.0844 -0.5887  0.4217
12305TIP3    H158330   4.786   5.988  11.228  2.8768 -1.1134  0.4935
12305TIP3    H258331   4.783   5.939  11.372  1.3220 -1.2158  0.4356
12306TIP3   OH258332   3.213   2.151  16.717  0.0228  0.0790 -0.3208
12306TIP3    H158333   3.273   2.197  16.658 -0.6129  0.7338 -0.4661
12306TIP3    H258334   3.143   2.119  16.660 -0.0836 -0.1483 -0.0666
12307TIP3   OH258335   4.996   3.611   5.883 -0.2314 -0.1902 -0.1067
12307TIP3    H158336   5.023   3.530   5.840  0.8307 -0.0847  0.3479
12307TIP3    H258337   5.004   3.593   5.976  1.1243  0.8006 -0.0144
12308TIP3   OH258338   3.584   6.625  14.091 -0.4478  0.2880  0.5056
12308TIP3    H158339   3.496   6.658  14.069 -1.2278 -2.2625 -0.4475
12308TIP3    H258340   3.568   6.538  14.129  1.7031 -0.5880 -0.4872
12309TIP3   OH258341   1.850   3.360  16.286 -0.0873 -0.1223  0.4079
12309TIP3    H158342   1.764   3.401  16.292  1.0939  2.3934  0.9846
12309TIP3    H258343   1.845   3.283  16.343 -1.2336  1.3441  2.3396
12310TIP3   OH258344   3.916   0.506   0.624  0.1396  0.1451  0.3336
12310TIP3    H158345   3.867   0.582   0.654 -1.1644 -0.2374 -0.8006
12310TIP3    H258346   3.998   0.510   0.673  0.8270  3.2403 -0.9104
12311TIP3   OH258347   6.283   2.479  16.277  0.2834 -0.0706 -0.1354
12311TIP3    H158348   6.345   2.544  16.245  0.2245  0.1425  0.1817
12311TIP3    H258349   6.330   2.396  16.272  1.5054  0.4304  2.5570
12312TIP3   OH258350   4.058   4.619   0.346 -0.2751 -0.7818 -0.1084
12312TIP3    H158351   4.148   4.588   0.337 -0.1758 -0.1052 -1.5669
12312TIP3    H258352   4.012   4.547   0.389  1.1705 -0.7415  1.5690
12313TIP3   OH258353   1.045   5.311  11.649 -0.0640 -0.0240 -0.1797
12313TIP3    H158354   1.051   5.262  11.731 -0.4754 -0.6951 -0.5478
12313TIP3    H258355   1.095   5.259  11.586  4.8227  3.1403  0.8354
12314TIP3   OH258356   5.964   4.112  15.621  0.0970  0.0794 -0.3782
12314TIP3    H158357   5.925   4.084  15.703  0.0086  0.8273 -0.1695
12314TIP3    H258358   5.919   4.060  15.554 -0.1166 -0.2282  0.0072
12315TIP3   OH258359   3.414   4.644  13.589 -0.3177  0.0365 -0.5564
12315TIP3    H158360   3.398   4.722  13.536  0.3573 -0.5120 -1.5953
12315TIP3    H258361   3.347   4.647  13.657  0.4832  2.1742  0.1721
12316TIP3   OH258362   0.504   6.320   6.409  0.4686  0.4197  0.3435
12316TIP3    H158363   0.506   6.393   6.471  1.2477  2.1808 -1.7119
12316TIP3    H258364   0.413   6.290   6.411  0.0398  1.7339  0.8765
12317TIP3   OH258365   3.620   3.451  16.615 -0.4985  0.3363 -0.5760
12317TIP3    H158366   3.527   3.458  16.637 -0.0065  2.8531  1.0538
12317TIP3    H258367   3.637   3.526  16.558  0.3997 -0.4951 -1.4230
12318TIP3   OH258368   5.483   5.096   2.880 -0.0290 -0.0154 -0.2001
12318TIP3    H158369   5.440   5.154   2.942  1.2331  0.2611  0.4295
12318TIP3    H258370   5.506   5.152   2.806 -1.0578 -0.2391 -0.7054
12319TIP3   OH258371   6.162   0.327  15.135  0.6910 -0.2963 -0.3066
12319TIP3    H158372   6.194   0.417  15.139 -0.1500 -0.0379  0.8550
12319TIP3    H258373   6.179   0.300  15.045 -0.5642  1.5998 -1.1541
12320TIP3   OH258374   3.480   0.953  15.680 -0.2727 -0.5854  0.2634
12320TIP3    H158375   3.399   0.964  15.630  1.3697 -0.6669 -2.5498
12320TIP3    H258376   3.532   1.030  15.657  0.2921 -0.2920  2.4026
12321TIP3   OH258377   6.470   6.107  14.231  0.2792  0.2274  0.1691
12321TIP3    H158378   6.449   6.118  14.138  1.7597  0.3067 -0.1582
12321TIP3    H258379   6.393   6.064  14.268  0.0842 -0.7075 -1.2858
12322TIP3   OH258380   0.428   1.006  17.004  0.3123  0.3233  0.2529
12322TIP3    H158381   0.487   0.944  16.961  0.9695  1.1473 -0.0730
12322TIP3    H258382   0.372   1.038  16.933 -0.2657 -0.1545  0.4879
12323TIP3   OH258383   1.705   1.698  14.737 -0.3822 -0.5383 -0.1906
12323TIP3    H158384   1.627   1.704  14.792 -0.2147  1.1491 -0.1254
12323TIP3    H258385   1.689   1.761  14.666  1.6158  1.0515  0.7244
12324TIP3   OH258386   2.681   2.076   0.752 -0.0879 -0.0768 -0.8204
12324TIP3    H158387   2.702   1.983   0.759 -1.1607 -0.2544  0.1598
12324TIP3    H258388   2.587   2.080   0.765  0.0930  1.2562  0.1299
12325TIP3   OH258389   1.048   2.522   2.841 -0.2122  0.0804 -0.2084
12325TIP3    H158390   1.045   2.614   2.869 -0.5955 -0.1574  0.5576
12325TIP3    H258391   1.074   2.474   2.919  0.2187 -0.4414 -0.6711
12326TIP3   OH258392   2.859   1.695   1.369  0.5543  0.5006 -0.4422
12326TIP3    H158393   2.870   1.773   1.422 -0.4164 -0.1373  0.7310
12326TIP3    H258394   2.790   1.645   1.414  1.3172 -1.1223 -1.0290
12327TIP3   OH258395   3.606   0.580  13.743  0.0495  0.3032  0.9459
12327TIP3    H158396   3.693   0.546  13.761 -0.5238 -2.4143 -1.1321
12327TIP3    H258397   3.614   0.623  13.657 -0.7210 -0.3041  0.5608
12328TIP3   OH258398   3.221   0.111  13.490  0.4950 -0.0693  0.7389
12328TIP3    H158399   3.203   0.156  13.407  0.9885 -1.6213 -0.2568
12328TIP3    H258400   3.155   0.143  13.551  1.7893  3.1442  0.5286
12329TIP3   OH258401   5.208   0.342   2.875 -0.1115  0.3529  0.1215
12329TIP3    H158402   5.234   0.377   2.960 -0.4020  0.5130  0.1469
12329TIP3    H258403   5.112   0.336   2.880 -0.2209  1.3334 -0.5586
12330TIP3   OH258404   0.029   1.873  15.649 -0.4584 -0.0855  0.5810
12330TIP3    H158405  -0.044   1.824  15.687 -0.6947  1.2801  1.9106
12330TIP3    H258406   0.003   1.965  15.655 -0.0241  0.2423 -1.9026
12331TIP3   OH258407   2.500   2.059  11.823  0.1021  0.0718  0.9139
12331TIP3    H158408   2.578   2.114  11.833  0.2396  0.0409  0.0409
12331TIP3    H258409   2.522   1.978  11.869 -0.1493  0.7846  2.3160
12332TIP3   OH258410   1.923   4.093  16.564  0.2256  0.8770 -0.3942
12332TIP3    H158411   1.913   4.036  16.488  1.2596  2.0861 -1.4743
12332TIP3    H258412   2.001   4.060  16.609 -0.4809  0.0598  0.2546
12333TIP3   OH258413   3.664   5.143  13.014  0.0737 -0.8822 -0.7519
12333TIP3    H158414   3.579   5.121  12.978  0.4800 -4.6820  0.4221
12333TIP3    H258415   3.654   5.135  13.108  2.1156 -2.9949 -0.6725
12334TIP3   OH258416   1.260   2.671  10.967  0.7443 -0.2254  0.0373
12334TIP3    H158417   1.177   2.702  10.932  0.8354 -0.8423 -0.7518
12334TIP3    H258418   1.326   2.709  10.910  0.9819 -0.0103  0.4562
12335TIP3   OH258419   4.408   3.897   3.012  0.6901  0.2500  0.2224
12335TIP3    H158420   4.334   3.837   3.020  0.5133  0.3741 -0.4392
12335TIP3    H258421   4.407   3.948   3.093  0.7356 -0.5177  0.7131
12336TIP3   OH258422   0.176   4.452   4.748 -0.1737 -0.4114 -0.2119
12336TIP3    H158423   0.108   4.463   4.681  0.1279  0.3483 -0.4005
12336TIP3    H258424   0.153   4.371   4.793 -0.5717 -0.7456 -1.0156
12337TIP3   OH258425   5.442   1.508   0.851  0.2791 -0.2800 -0.0964
12337TIP3    H158426   5.384   1.472   0.918  1.3474 -1.6337  0.1231
12337TIP3    H258427   5.384   1.531   0.779 -0.6855 -0.3477  0.6464
12338TIP3   OH258428   1.522   2.061  14.910 -0.5662  0.4408 -0.0570
12338TIP3    H158429   1.445   2.024  14.866 -0.7309  0.4849  0.1973
12338TIP3    H258430   1.501   2.154  14.920 -0.3846  0.4955 -0.1909
12339TIP3   OH258431   6.584   0.412   0.203 -0.2011  0.6017 -0.2227
12339TIP3    H158432   6.538   0.391   0.122 -0.9158 -0.4170  0.4416
12339TIP3    H258433   6.625   0.497   0.185 -0.4432  0.4484 -1.6036
12340TIP3   OH258434   1.616   5.062   2.570 -0.2267  0.2282  0.3716
12340TIP3    H158435   1.640   4.974   2.542  0.2641  0.1620  1.0025
12340TIP3    H258436   1.663   5.120   2.510 -0.6058  0.0702 -0.0898
12341TIP3   OH258437   4.418   5.575   4.604 -0.2228  0.0129 -0.3819
12341TIP3    H158438   4.424   5.614   4.517 -0.0172 -0.3568 -0.5331
12341TIP3    H258439   4.349   5.509   4.595 -1.6375  1.3545  0.2561
12342TIP3   OH258440   0.552   4.163  12.644  0.6421 -0.5871 -0.0465
12342TIP3    H158441   0.532   4.246  12.688  2.1958 -1.4199  2.3018
12342TIP3    H258442   0.562   4.187  12.551  1.3916  1.8921  0.6370
12343TIP3   OH258443   3.998   4.132   1.503 -0.4909 -0.4205 -0.1691
12343TIP3    H158444   4.007   4.228   1.498 -0.5696 -0.3895  0.2863
12343TIP3    H258445   4.087   4.099   1.488 -0.0688 -0.2016  1.7237
12344TIP3   OH258446   5.506   6.670  11.707  0.4576  0.0659 -0.3157
12344TIP3    H158447   5.565   6.604  11.670 -1.1178 -0.1190 -2.5423
12344TIP3    H258448   5.543   6.754  11.677  1.8794  0.1775  1.6728
12345TIP3   OH258449   3.726   2.541   3.734  0.2525 -0.2146  0.0855
12345TIP3    H158450   3.806   2.530   3.682 -0.2540 -0.8952 -0.5573
12345TIP3    H258451   3.668   2.592   3.678  0.3064  0.4461  0.6295
12346TIP3   OH258452   5.300   1.395  14.002 -0.0250  0.7867 -0.2671
12346TIP3    H158453   5.330   1.475  13.958  2.2658  0.6777  0.9779
12346TIP3    H258454   5.216   1.419  14.041  0.4705  2.4859 -0.2055
12347TIP3   OH258455   3.115   6.772   4.676  0.3155 -0.0332 -0.3779
12347TIP3    H158456   3.107   6.677   4.677 -0.4277 -0.0009 -2.0702
12347TIP3    H258457   3.192   6.790   4.623  1.1415  0.2881  0.9018
12348TIP3   OH258458   4.490   1.705  16.975 -0.7728  0.6431  0.6968
12348TIP3    H158459   4.434   1.695  16.898  0.0778  0.2612  0.1230
12348TIP3    H258460   4.437   1.754  17.037 -0.8680  2.4661 -0.7729
12349TIP3   OH258461   4.615   6.069  14.007 -0.4558 -0.1251 -0.1674
12349TIP3    H158462   4.619   6.081  14.102 -2.4088  1.0209 -0.2103
12349TIP3    H258463   4.684   6.126  13.972  0.0805 -0.3399  0.5306
12350TIP3   OH258464   1.185   5.307   0.594  0.7024 -0.8642 -0.2593
12350TIP3    H158465   1.255   5.373   0.600  1.3380 -1.3815 -1.6681
12350TIP3    H258466   1.119   5.337   0.656  0.9425  1.1507 -0.9185
12351TIP3   OH258467   5.086   0.418  14.735  0.1133  0.2607  1.0493
12351TIP3    H158468   5.162   0.392  14.682 -0.2017 -0.3174  0.8727
12351TIP3    H258469   5.012   0.412  14.675 -0.0999  0.6410  1.2728
12352TIP3   OH258470   4.607   0.447   2.896 -0.0009 -0.3595 -0.3860
12352TIP3    H158471   4.668   0.465   2.968 -1.1071  0.4073  0.3651
12352TIP3    H258472   4.614   0.353   2.882  0.5833 -0.4351  0.3876
12353TIP3   OH258473   6.128   0.795   1.844 -0.2867 -0.2229  0.5425
12353TIP3    H158474   6.209   0.845   1.847 -0.0564 -0.4536 -1.2170
12353TIP3    H258475   6.058   0.860   1.843 -0.1024 -0.0111  1.2095
12354TIP3   OH258476   2.915   4.019   1.181  0.8683  0.6133  0.2070
12354TIP3    H158477   2.872   3.993   1.262  0.6041 -0.4749 -0.2730
12354TIP3    H258478   2.843   4.038   1.121  1.0642  0.4053 -0.0945
12355TIP3   OH258479   2.317   2.640  15.535  0.7546  0.7016 -0.0430
12355TIP3    H158480   2.398   2.662  15.490  1.7380 -1.3702  0.6863
12355TIP3    H258481   2.255   2.620  15.465  1.1167  1.3995 -0.5665
12356TIP3   OH258482   4.537   5.461  15.112 -0.4686 -0.4206 -0.3497
12356TIP3    H158483   4.501   5.468  15.024 -1.0530 -0.3631 -0.1065
12356TIP3    H258484   4.487   5.524  15.164 -2.4288 -2.8388  0.7717
12357TIP3   OH258485   4.453   3.858   0.876 -0.4040  0.0568 -0.2211
12357TIP3    H158486   4.547   3.862   0.860  0.0067  2.0431  2.2153
12357TIP3    H258487   4.419   3.940   0.842 -0.8883  0.3199  0.8620
12358TIP3   OH258488   3.798   1.796  13.438  0.0517  0.3353  0.3578
12358TIP3    H158489   3.750   1.873  13.468  1.9873  1.4139  0.7291
12358TIP3    H258490   3.889   1.813  13.463  0.6719 -1.5826 -0.5291
12359TIP3   OH258491   6.380   2.553   1.379 -0.2400  0.2264  0.3370
12359TIP3    H158492   6.336   2.634   1.403  0.7631  0.6090  0.9459
12359TIP3    H258493   6.382   2.502   1.459  1.2561  0.6233  0.5766
12360TIP3   OH258494   4.019   4.431  11.346 -0.3719 -0.5869  1.0567
12360TIP3    H158495   4.043   4.378  11.422  0.8588 -0.9923  0.3943
12360TIP3    H258496   4.037   4.375  11.271  0.0389  0.4268  0.3929
12361TIP3   OH258497   5.396   5.065  11.303 -0.1736  0.2855  0.7420
12361TIP3    H158498   5.332   5.030  11.364  0.3486 -1.2478  0.4392
12361TIP3    H258499   5.443   5.132  11.353 -0.6736  0.0190  1.5737
12362TIP3   OH258500   3.722   2.684  14.871 -0.2050  0.1259  0.4030
12362TIP3    H158501   3.703   2.591  14.888  1.4530 -0.3940 -0.5085
12362TIP3    H258502   3.790   2.707  14.935 -1.6073  1.1194  1.5698
12363TIP3   OH258503   2.686   4.293   4.108  0.0599  0.2465  0.2820
12363TIP3    H158504   2.779   4.284   4.090  0.0098  0.8254 -0.3050
12363TIP3    H258505   2.681   4.363   4.173  0.0380  0.1949  0.3362
12364TIP3   OH258506   0.069   3.037  13.197  0.3398 -0.3974  0.1317
12364TIP3    H158507   0.010   3.109  13.173 -0.5920 -0.7296  1.3850
12364TIP3    H258508   0.115   3.068  13.274  0.7394 -0.7209  0.0244
12365TIP3   OH258509   2.430   0.558  15.696 -0.4289 -0.5333  0.2008
12365TIP3    H158510   2.365   0.539  15.763 -1.0892 -1.1501 -0.6004
12365TIP3    H258511   2.381   0.604  15.628 -0.0370 -1.0109 -0.4134
12366TIP3   OH258512   2.045   0.111   5.258 -0.2121 -0.5732 -0.6915
12366TIP3    H158513   2.089   0.157   5.186 -0.7286  0.3649 -0.4152
12366TIP3    H258514   1.985   0.176   5.295  0.3122 -0.9404  0.8282
12367TIP3   OH258515   1.618   6.521   4.482  0.3159  0.0049  0.4698
12367TIP3    H158516   1.569   6.455   4.434 -0.5818  0.0899  1.2556
12367TIP3    H258517   1.702   6.480   4.500 -0.2595 -0.9552  1.0149
12368TIP3   OH258518   4.123   2.728  12.649  0.1324  0.2452 -0.0950
12368TIP3    H158519   4.124   2.807  12.595 -0.5549  0.7333  0.6000
12368TIP3    H258520   4.051   2.742  12.711  1.2784 -0.0540  1.3276
12369TIP3   OH258521   6.594   4.789   2.867  0.0150 -0.3962  0.0668
12369TIP3    H158522   6.551   4.873   2.882 -1.9926 -1.4490  0.4954
12369TIP3    H258523   6.686   4.811   2.853 -0.6428  1.9345 -0.8280
12370TIP3   OH258524   6.432   5.586   4.609  0.4196  0.5339  0.4488
12370TIP3    H158525   6.356   5.528   4.605 -0.1196  1.2851 -0.2648
12370TIP3    H258526   6.397   5.668   4.643  1.0244  0.7011  0.6614
12371TIP3   OH258527   5.504   3.595  11.530  0.2477  0.2212 -0.1865
12371TIP3    H158528   5.434   3.651  11.497  0.7556  1.2890  0.5523
12371TIP3    H258529   5.468   3.555  11.609 -0.4104 -1.1423 -1.1600
12372TIP3   OH258530   0.020   6.728   1.904 -0.6375  0.5395  0.1166
12372TIP3    H158531   0.098   6.710   1.957 -1.0123  1.5287  1.0093
12372TIP3    H258532  -0.040   6.656   1.925 -0.2282  0.1439 -0.0637
12373TIP3   OH258533   2.572   3.426   0.380  0.5125 -0.1207 -0.0401
12373TIP3    H158534   2.601   3.337   0.357  0.3110 -0.3878  0.7319
12373TIP3    H258535   2.491   3.413   0.428 -0.2822  0.5706 -1.1628
12374TIP3   OH258536   0.523   4.001  17.113  0.2186  0.6741 -0.2755
12374TIP3    H158537   0.547   4.080  17.065 -0.2114 -0.5016 -2.4840
12374TIP3    H258538   0.591   3.993  17.181 -0.2966  3.4495  0.6405
12375TIP3   OH258539   3.147   2.690  11.636 -0.0979 -0.2122 -0.0104
12375TIP3    H158540   3.116   2.649  11.717  2.0428 -0.4286  0.7269
12375TIP3    H258541   3.166   2.616  11.578 -0.1054 -0.1076 -0.1470
12376TIP3   OH258542   3.594   3.704  17.133 -0.5810  0.0024 -0.1774
12376TIP3    H158543   3.678   3.658  17.130 -0.1326  0.8790 -2.2947
12376TIP3    H258544   3.575   3.724  17.041 -1.7893  2.1722  0.5135
12377TIP3   OH258545   3.372   6.648  16.297 -0.0368 -0.0121  0.1480
12377TIP3    H158546   3.396   6.599  16.376 -0.1996 -1.3986 -0.6491
12377TIP3    H258547   3.276   6.653  16.300 -0.0988 -0.8748 -0.4413
12378TIP3   OH258548   2.181   1.842   4.546  0.1466 -0.5432  0.0746
12378TIP3    H158549   2.253   1.789   4.579 -0.4845 -1.0397  0.6599
12378TIP3    H258550   2.176   1.917   4.605 -0.8293 -1.3118  1.0011
12379TIP3   OH258551   1.882   5.039  14.207  0.2284  0.5404  0.1968
12379TIP3    H158552   1.825   5.049  14.283 -0.0122  1.1798 -0.0609
12379TIP3    H258553   1.971   5.038  14.244 -0.0210 -4.4616  1.0105
12380TIP3   OH258554   3.627   4.506   4.428 -0.2391 -0.0725  0.1454
12380TIP3    H158555   3.534   4.497   4.410 -0.0626  1.4156 -1.7135
12380TIP3    H258556   3.664   4.539   4.346  1.9384 -0.7628  0.8156
12381TIP3   OH258557   6.708   1.928   3.534 -0.1957 -0.0856  0.8841
12381TIP3    H158558   6.647   1.854   3.543 -0.5490  0.1417  0.3557
12381TIP3    H258559   6.654   2.000   3.503 -0.0041  0.6243  2.1448
12382TIP3   OH258560   2.916   1.118  13.435  0.0819  0.1419 -0.0619
12382TIP3    H158561   2.934   1.043  13.491 -0.6082  0.3174  0.3977
12382TIP3    H258562   2.894   1.189  13.495 -0.3275  0.4257 -0.5379
12383TIP3   OH258563   0.018   5.619   4.357  0.1933 -0.1759 -0.4207
12383TIP3    H158564  -0.054   5.557   4.365  0.2172 -0.1289  0.1332
12383TIP3    H258565   0.080   5.575   4.299  0.3996 -0.8413  0.2963
12384TIP3   OH258566   3.390   4.710   3.174 -0.5475 -0.0997 -0.6749
12384TIP3    H158567   3.408   4.765   3.250  0.0908 -1.2923  0.0401
12384TIP3    H258568   3.335   4.640   3.207  0.5037 -1.1429 -1.1102
12385TIP3   OH258569   6.638   3.805   4.088  0.1642 -0.1443  0.0457
12385TIP3    H158570   6.569   3.871   4.095 -0.3916 -0.5865 -0.9826
12385TIP3    H258571   6.679   3.803   4.174 -3.5933 -2.5726  1.9486
12386TIP3   OH258572   1.977   2.711   1.247  0.0112  0.1661  0.2324
12386TIP3    H158573   1.972   2.617   1.263 -0.3363  0.2409  0.5753
12386TIP3    H258574   1.901   2.730   1.191  0.5666  0.0988 -0.5407
12387TIP3   OH258575   4.348   1.162   4.284  0.6683  0.3499  0.2854
12387TIP3    H158576   4.328   1.189   4.195  0.6513  0.5678  0.3562
12387TIP3    H258577   4.407   1.087   4.274 -2.3906 -2.1150  0.0215
12388TIP3   OH258578   2.138   3.569   2.801 -0.3875 -0.2331 -0.2995
12388TIP3    H158579   2.108   3.657   2.821 -0.8310  0.1002 -2.3299
12388TIP3    H258580   2.217   3.557   2.854 -0.1284  1.5131 -0.2761
12389TIP3   OH258581   5.553   5.802   0.745 -0.9103  0.1218  0.7757
12389TIP3    H158582   5.501   5.741   0.797  0.4252 -1.8557 -0.1433
12389TIP3    H258583   5.548   5.768   0.655 -0.5590  1.6593  0.1558
12390TIP3   OH258584   3.402   6.098   4.456  0.4647  0.1248  0.8883
12390TIP3    H158585   3.414   6.184   4.497  2.5940 -0.2859  1.1679
12390TIP3    H258586   3.409   6.036   4.529  1.6195 -0.4509  0.2845
12391TIP3   OH258587   1.368   2.772  12.607  0.8919 -0.2189  0.2133
12391TIP3    H158588   1.431   2.845  12.609  0.8513 -0.1868  0.3305
12391TIP3    H258589   1.354   2.750  12.699  2.7857 -2.0142  0.1105
12392TIP3   OH258590   3.769   5.544   4.899 -0.6184 -0.3948 -0.2810
12392TIP3    H158591   3.787   5.474   4.961  0.7569 -0.9027 -1.2336
12392TIP3    H258592   3.848   5.598   4.899 -1.3065  0.6274 -0.2481
12393TIP3   OH258593   6.150   2.776   1.077 -0.2411  0.6078 -0.5197
12393TIP3    H158594   6.145   2.853   1.020  0.2069 -0.5356 -2.1431
12393TIP3    H258595   6.103   2.802   1.156  0.6133  2.8496 -0.6872
12394TIP3   OH258596   4.556   1.527  11.619 -0.6999 -0.7761  0.2170
12394TIP3    H158597   4.508   1.447  11.600  0.6995 -1.8971  1.3375
12394TIP3    H258598   4.638   1.498  11.658 -0.6304  1.2308  1.6668
12395TIP3   OH258599   3.819   2.522  13.014  0.2809  0.3807 -0.0809
12395TIP3    H158600   3.762   2.596  13.033  0.5310  0.9873 -1.6641
12395TIP3    H258601   3.794   2.493  12.927 -0.4118 -1.9744  0.8478
12396TIP3   OH258602   4.787   5.837   4.542 -0.0077  0.2113 -0.1772
12396TIP3    H158603   4.721   5.866   4.604  1.1992  0.2810  1.0860
12396TIP3    H258604   4.767   5.884   4.461 -0.5927  1.3649  0.6352
12397TIP3   OH258605   3.071   1.275   0.333 -0.2905 -0.2407 -0.2949
12397TIP3    H158606   3.110   1.193   0.301  2.1901  1.0937 -0.7834
12397TIP3    H258607   3.093   1.340   0.266 -2.4073  0.8068 -0.0088
12398TIP3   OH258608   6.647   1.694  14.672 -0.3455  0.0267 -0.0389
12398TIP3    H158609   6.596   1.664  14.747 -0.7694  1.5273  0.2871
12398TIP3    H258610   6.610   1.779  14.650  2.4739  1.5145  0.6929
12399TIP3   OH258611   0.169   1.187   1.610 -0.2052 -0.0578  0.3549
12399TIP3    H158612   0.094   1.209   1.554  0.2569  0.9150  0.1106
12399TIP3    H258613   0.147   1.223   1.695  0.3534  0.9788  0.0682
12400TIP3   OH258614   4.787   3.314  17.012 -0.0636 -0.5232  0.1174
12400TIP3    H158615   4.806   3.245  16.948  1.6769 -1.0865  1.2113
12400TIP3    H258616   4.862   3.373  17.006 -1.4163  1.1943 -0.6333
12401TIP3   OH258617   3.191   3.440   0.644 -0.0982  0.0923  0.2402
12401TIP3    H158618   3.167   3.510   0.705 -1.1502 -0.9367  1.0190
12401TIP3    H258619   3.107   3.410   0.608  0.4905  0.5904 -1.6322
12402TIP3   OH258620   1.234   3.857   3.299 -0.5181 -0.7096 -0.3236
12402TIP3    H158621   1.326   3.850   3.326 -0.7241 -3.7355 -0.2826
12402TIP3    H258622   1.185   3.816   3.370 -1.7103 -1.2121 -1.4111
12403TIP3   OH258623   6.183   4.556  14.453 -0.0772 -0.8551  0.6653
12403TIP3    H158624   6.171   4.469  14.490 -1.0748 -0.3279  1.6187
12403TIP3    H258625   6.102   4.603  14.475 -0.1681 -0.1317 -1.0961
12404TIP3   OH258626   3.812   5.641  11.191  0.7003  0.6278  0.2140
12404TIP3    H158627   3.786   5.683  11.273  0.4931  0.4744  0.2278
12404TIP3    H258628   3.906   5.660  11.183  0.9337 -0.1578  0.9771
12405TIP3   OH258629   2.332   0.340  16.343 -0.1241  0.3219  0.5590
12405TIP3    H158630   2.403   0.327  16.279 -1.8690 -0.1401 -1.3540
12405TIP3    H258631   2.320   0.435  16.346 -0.3383  0.3206 -0.1583
12406TIP3   OH258632   1.293   6.381   5.757 -0.7699 -0.0517 -0.1847
12406TIP3    H158633   1.298   6.374   5.852 -2.6361 -1.2602 -0.1434
12406TIP3    H258634   1.228   6.315   5.732 -0.4001  0.3508 -2.2786
12407TIP3   OH258635   4.896   3.054  11.995 -0.1707  0.0569 -0.0845
12407TIP3    H158636   4.896   3.090  11.907  2.4253 -0.8091 -0.4792
12407TIP3    H258637   4.810   3.014  12.005 -1.1632  1.8055 -1.5246
12408TIP3   OH258638   0.692   3.058  14.406  0.2722 -0.6321 -0.3523
12408TIP3    H158639   0.606   3.024  14.383 -0.2594  0.0559  0.6165
12408TIP3    H258640   0.737   2.985  14.449 -0.8093 -0.1835  1.5903
12409TIP3   OH258641   0.944   4.427   1.354  0.1442 -0.8796  0.1188
12409TIP3    H158642   0.912   4.433   1.264  1.8636  1.5555 -0.3879
12409TIP3    H258643   0.871   4.459   1.407 -0.8180 -2.1752 -0.3859
12410TIP3   OH258644   6.759   5.787  16.650 -0.0795 -1.2110  0.2713
12410TIP3    H158645   6.758   5.805  16.744 -1.0141  0.7670 -0.0991
12410TIP3    H258646   6.667   5.792  16.623 -0.0804 -3.9079 -0.3809
12411TIP3   OH258647   5.201   5.731   6.120 -0.8655  0.2960  0.3414
12411TIP3    H158648   5.187   5.809   6.173 -0.2856  0.3422  0.4289
12411TIP3    H258649   5.113   5.698   6.102 -1.0703  0.4278  1.1139
12412TIP3   OH258650   2.638   2.603  17.082  0.1466  0.2126 -0.2501
12412TIP3    H158651   2.730   2.581  17.066 -0.0139  0.5946 -1.8019
12412TIP3    H258652   2.641   2.680  17.138  0.7613 -0.1759  0.2640
12413TIP3   OH258653   0.587   3.797   6.070  0.0213  0.4980 -0.0200
12413TIP3    H158654   0.498   3.788   6.106  0.8264  1.4292  2.3255
12413TIP3    H258655   0.631   3.716   6.094 -0.0451  0.2212 -0.8074
12414TIP3   OH258656   0.359   3.872   3.513  0.0719 -0.1530 -0.7304
12414TIP3    H158657   0.440   3.907   3.550  1.3373 -3.8070  0.0739
12414TIP3    H258658   0.319   3.823   3.585 -0.1625 -2.8348 -2.6479
12415TIP3   OH258659   2.949   4.636   4.159 -0.0434 -0.6293  0.6765
12415TIP3    H158660   2.896   4.657   4.236 -0.1247  0.8163  0.2612
12415TIP3    H258661   3.037   4.667   4.181 -0.3719  1.0992 -0.3165
12416TIP3   OH258662   2.016   5.521   5.718  0.7957 -0.3196 -0.0265
12416TIP3    H158663   1.925   5.494   5.728  1.4013 -2.3487  0.3223
12416TIP3    H258664   2.062   5.480   5.792  2.6410 -2.6193 -2.3032
12417TIP3   OH258665   5.375   4.728  17.074 -0.5904  0.6493  0.1135
12417TIP3    H158666   5.341   4.657  17.019 -0.7669  0.1355  0.8822
12417TIP3    H258667   5.297   4.777  17.101 -0.4834  1.0433 -0.2902
12418TIP3   OH258668   3.015   5.563  14.817 -0.0332  0.4802 -0.0685
12418TIP3    H158669   2.945   5.504  14.789  0.6485 -0.7481  0.7645
12418TIP3    H258670   2.971   5.646  14.838 -1.7776 -1.3198  3.8452
12419TIP3   OH258671   1.025   2.344  12.196 -0.5075 -0.0550  0.1010
12419TIP3    H158672   1.119   2.361  12.192 -0.8331  1.3660 -2.3793
12419TIP3    H258673   1.019   2.251  12.220  1.5868 -0.6986 -1.6484
12420TIP3   OH258674   3.670   2.601   4.355  0.8519 -0.1136 -0.0296
12420TIP3    H158675   3.609   2.605   4.282 -0.2289 -2.3826  0.7218
12420TIP3    H258676   3.617   2.623   4.432  0.9839 -1.8873  0.5964
12421TIP3   OH258677   6.173   0.888   1.525 -0.3487  0.0265  0.2890
12421TIP3    H158678   6.265   0.863   1.532 -0.1206  0.9406  0.6024
12421TIP3    H258679   6.132   0.850   1.603 -0.0573  0.3701  0.6151
12422TIP3   OH258680   3.698   6.779   5.398 -0.3168 -0.5950 -0.1066
12422TIP3    H158681   3.623   6.776   5.458 -1.1656  3.0066 -0.8766
12422TIP3    H258682   3.770   6.743   5.449 -1.9217 -1.4455  1.6472
12423TIP3   OH258683   3.894   1.629   2.963 -0.3428  0.7585  0.0577
12423TIP3    H158684   3.832   1.571   3.007 -1.2538  0.3786 -1.6805
12423TIP3    H258685   3.913   1.585   2.879  1.7773  1.1914  0.2867
12424TIP3   OH258686   6.740   6.448   3.099  0.0463  0.0567  0.7164
12424TIP3    H158687   6.697   6.499   3.031  0.2950 -2.2619 -1.2725
12424TIP3    H258688   6.799   6.510   3.142 -0.3092  1.6475 -1.0010
12425TIP3   OH258689   0.658   3.094  12.711 -0.8049 -0.6227  0.1393
12425TIP3    H158690   0.599   3.056  12.646  0.1732 -0.2752 -0.9808
12425TIP3    H258691   0.718   3.023  12.734 -0.3670 -0.4005 -0.2930
12426TIP3   OH258692   4.271   3.753  15.396 -0.4402  0.1758  0.3885
12426TIP3    H158693   4.192   3.780  15.348  0.5111  3.2298  0.4351
12426TIP3    H258694   4.239   3.733  15.484 -1.4855 -0.8199 -0.1966
12427TIP3   OH258695   2.305   0.997   2.247 -0.2230  0.0984 -0.3115
12427TIP3    H158696   2.238   0.948   2.199 -0.0399  0.2296 -0.7017
12427TIP3    H258697   2.348   0.931   2.301 -1.9633  0.3436  1.4190
12428TIP3   OH258698   2.084   6.411  13.239  0.1019 -0.2865  0.0542
12428TIP3    H158699   2.060   6.491  13.191  2.9939  2.6820  3.2696
12428TIP3    H258700   2.026   6.411  13.315  0.5581 -0.8904  0.4030
12429TIP3   OH258701   3.184   4.019  14.296 -0.1698 -0.5156  0.4884
12429TIP3    H158702   3.213   3.943  14.346 -0.9860 -0.8218  0.5096
12429TIP3    H258703   3.259   4.078  14.296 -0.1007 -0.5741  1.9490
12430TIP3   OH258704   2.600   6.653   5.176  0.2768 -0.2956  0.3795
12430TIP3    H158705   2.668   6.661   5.243  0.6915 -1.6711  0.1560
12430TIP3    H258706   2.649   6.655   5.093 -0.3780  2.9671  0.0254
12431TIP3   OH258707   1.583   1.425  12.215 -0.1410 -0.1091  0.4070
12431TIP3    H158708   1.497   1.468  12.217  0.4709  1.1755 -0.4024
12431TIP3    H258709   1.617   1.435  12.304 -0.1418  0.8011  0.3079
12432TIP3   OH258710   6.676   2.294  12.765  0.9839 -0.6610 -0.4439
12432TIP3    H158711   6.690   2.349  12.688 -0.0806 -0.7479 -0.7105
12432TIP3    H258712   6.586   2.263  12.756  0.1897  0.8563  1.7839
12433TIP3   OH258713   6.346   5.384   2.978 -0.7888 -0.2103 -0.1946
12433TIP3    H158714   6.291   5.361   3.052 -0.3499 -2.0842 -0.4354
12433TIP3    H258715   6.291   5.368   2.901 -0.1202 -1.5520 -0.4098
12434TIP3   OH258716   0.272   2.764   6.839  0.4614  0.5783  0.8513
12434TIP3    H158717   0.361   2.779   6.870  0.6203  0.9867  0.2142
12434TIP3    H258718   0.216   2.809   6.901  0.6637 -0.1440  1.5693
12435TIP3   OH258719   5.530   1.992  10.839 -0.3053 -0.9358  0.8806
12435TIP3    H158720   5.442   1.997  10.803 -1.3529 -0.7938  3.3781
12435TIP3    H258721   5.551   2.082  10.864 -0.5513 -1.3768  2.7635
12436TIP3   OH258722   4.931   4.732   3.952 -0.1191  0.0598  0.4663
12436TIP3    H158723   4.942   4.811   4.005  2.0273  0.3101 -0.3389
12436TIP3    H258724   4.989   4.668   3.992  1.1056  0.0784 -1.2256
12437TIP3   OH258725   6.722   4.062   2.162 -0.2087  0.0163 -0.5414
12437TIP3    H158726   6.688   3.977   2.135  1.2642 -0.5092 -0.8160
12437TIP3    H258727   6.791   4.041   2.226 -0.1586  1.0205 -0.2524
12438TIP3   OH258728   2.715   4.131   4.671  0.2430 -0.0971  0.2809
12438TIP3    H158729   2.734   4.164   4.583  0.8348  1.1893  0.8828
12438TIP3    H258730   2.740   4.039   4.668  0.5962  0.0297 -0.7919
12439TIP3   OH258731   3.188   0.172   5.523 -0.3550  0.0791  0.2217
12439TIP3    H158732   3.250   0.241   5.548 -1.6969  1.5401 -0.3654
12439TIP3    H258733   3.163   0.130   5.605  0.0938  0.6197  0.6356
12440TIP3   OH258734   5.673   2.314  13.060 -0.3557 -0.0408  0.0547
12440TIP3    H158735   5.636   2.376  13.122 -0.5586  0.0451 -0.1512
12440TIP3    H258736   5.721   2.368  12.998  0.0977 -0.1510  0.3113
12441TIP3   OH258737   1.338   1.734  11.407 -0.4625  0.2046  0.0244
12441TIP3    H158738   1.426   1.765  11.430  0.0388 -0.4172 -1.0460
12441TIP3    H258739   1.351   1.642  11.382 -1.5290 -0.1022  0.5535
12442TIP3   OH258740   5.897   5.742   0.825 -0.4391 -0.6629  0.1388
12442TIP3    H158741   5.806   5.716   0.838 -0.2126 -1.2201  0.6305
12442TIP3    H258742   5.929   5.765   0.912 -0.3201  0.2342 -0.1420
12443TIP3   OH258743   0.300   3.866  12.067  0.0714 -0.2096 -0.5272
12443TIP3    H158744   0.226   3.834  12.015 -0.0823  0.3004 -0.6231
12443TIP3    H258745   0.336   3.787  12.108 -2.6380 -0.0499  2.2618
12444TIP3   OH258746   6.581   2.981  13.674 -0.3180  0.1612  0.0142
12444TIP3    H158747   6.656   2.970  13.731 -0.9625  0.7716  0.9859
12444TIP3    H258748   6.513   2.927  13.712 -0.9116  0.9696  0.1218
12445TIP3   OH258749   6.269   4.493   2.160  0.0063 -0.0773  0.2834
12445TIP3    H158750   6.283   4.424   2.224  0.8679  0.3921  0.6032
12445TIP3    H258751   6.354   4.536   2.151 -0.1962  0.0950 -0.9009
12446TIP3   OH258752   5.216   3.756   6.577 -0.4507 -0.1470 -0.3231
12446TIP3    H158753   5.209   3.661   6.565 -0.2332 -0.3144  0.8341
12446TIP3    H258754   5.309   3.775   6.563  0.1786 -0.6130  2.7611
12447TIP3   OH258755   0.909   3.709   2.288  0.1127 -0.1672  0.3211
12447TIP3    H158756   0.832   3.700   2.233 -0.6342  0.9534  1.1482
12447TIP3    H258757   0.880   3.763   2.362  1.7067  0.3496  0.5996
12448TIP3   OH258758   1.812   1.359  11.262  0.0813  0.0917  0.2480
12448TIP3    H158759   1.789   1.399  11.346  0.9131 -1.2903  1.1560
12448TIP3    H258760   1.794   1.266  11.274  0.2112 -0.1188 -1.1153
12449TIP3   OH258761   5.247   4.144  16.006  0.1534 -0.0960 -0.0048
12449TIP3    H158762   5.201   4.220  15.969 -0.6999 -1.1703 -1.1748
12449TIP3    H258763   5.339   4.172  16.010 -0.0540  0.7733 -1.0600
12450TIP3   OH258764   6.694   6.148  14.900  0.3502  0.1561  0.9975
12450TIP3    H158765   6.764   6.112  14.954  1.1515  1.5158  0.8722
12450TIP3    H258766   6.616   6.145  14.956  0.7921 -0.0733  1.6027
12451TIP3   OH258767   2.321   4.511  13.753 -0.0726 -0.6521  0.0601
12451TIP3    H158768   2.231   4.486  13.731  0.1861 -2.2428  0.7220
12451TIP3    H258769   2.365   4.428  13.773  0.5424  0.3921  3.3444
12452TIP3   OH258770   0.619   2.890   4.380 -0.7997 -0.5588 -0.1037
12452TIP3    H158771   0.712   2.879   4.401 -0.9224  0.9025  1.2141
12452TIP3    H258772   0.608   2.983   4.364 -1.8712 -0.8501 -1.1551
12453TIP3   OH258773   3.729   6.637  13.338 -0.2052 -0.3253 -0.2278
12453TIP3    H158774   3.774   6.624  13.422 -1.2864 -0.0155  0.4165
12453TIP3    H258775   3.640   6.606  13.354 -0.6035  0.3812 -1.0593
12454TIP3   OH258776   0.051   5.787   5.062  0.1132 -0.1197  0.7311
12454TIP3    H158777  -0.022   5.753   5.113  0.0870  0.2253  0.9282
12454TIP3    H258778   0.034   5.760   4.973 -0.5128  0.3856  0.6947
12455TIP3   OH258779   0.595   5.222  13.731  0.1833 -0.1540  0.0140
12455TIP3    H158780   0.648   5.301  13.744 -1.3939  0.8879  0.2206
12455TIP3    H258781   0.505   5.250  13.748 -0.4017 -1.9999  0.0733
12456TIP3   OH258782   3.013   4.999   6.435  0.0509 -0.4335  0.1381
12456TIP3    H158783   3.099   5.031   6.407  0.0080 -0.3877  0.0560
12456TIP3    H258784   2.958   5.078   6.436 -0.2173 -0.5963 -0.6804
12457TIP3   OH258785   5.532   1.655  12.424  0.0940  0.4105 -0.1552
12457TIP3    H158786   5.544   1.673  12.331  0.0270  0.0132 -0.2407
12457TIP3    H258787   5.615   1.615  12.451 -1.4203 -3.6148 -1.0553
12458TIP3   OH258788   6.107   3.055   3.984 -0.2744  0.1135  0.0395
12458TIP3    H158789   6.076   2.968   4.010  1.1282 -0.5810 -0.6228
12458TIP3    H258790   6.157   3.086   4.060  0.2790 -0.1697 -0.2126
12459TIP3   OH258791   3.883   4.370   3.242 -0.1093 -0.6086 -0.1280
12459TIP3    H158792   3.909   4.395   3.331 -0.1993 -0.7530 -0.0610
12459TIP3    H258793   3.875   4.453   3.195  0.6263 -0.5689 -0.1924
12460TIP3   OH258794   1.962   1.171   3.872  0.1611  0.1191 -0.0784
12460TIP3    H158795   2.016   1.143   3.946 -1.6886 -0.3720  1.1410
12460TIP3    H258796   1.924   1.090   3.838  0.1562  0.4607 -0.8850
12461TIP3   OH258797   1.901   4.779   5.587  0.2573  0.2662  0.9336
12461TIP3    H158798   1.965   4.844   5.617  0.5220  1.4475 -2.0979
12461TIP3    H258799   1.822   4.799   5.637  0.8090  1.9253  1.1822
12462TIP3   OH258800   1.458   1.127   2.574  0.7370 -0.2777  0.0164
12462TIP3    H158801   1.464   1.222   2.585  0.9821 -0.2178 -0.6050
12462TIP3    H258802   1.446   1.115   2.480  2.6164 -0.9386 -0.1561
12463TIP3   OH258803   5.932   1.935  14.641 -0.1520 -0.0151  0.1368
12463TIP3    H158804   5.975   2.020  14.650  0.3731 -0.3943  1.3184
12463TIP3    H258805   6.002   1.871  14.658 -0.5101 -0.6959 -0.8728
12464TIP3   OH258806   5.531   0.569  17.210  0.4768  0.5043  0.7304
12464TIP3    H158807   5.467   0.640  17.204  1.6665  1.5566  0.0333
12464TIP3    H258808   5.616   0.613  17.204  1.2350 -0.9929  0.1017
12465TIP3   OH258809   0.680   5.114   0.930  0.1808 -0.1959 -0.4403
12465TIP3    H158810   0.748   5.175   0.901  0.4585 -0.0671  0.4621
12465TIP3    H258811   0.718   5.028   0.914  0.0155 -0.1351 -1.1885
12466TIP3   OH258812   0.405   0.659  14.991  0.1165  0.4313 -0.1760
12466TIP3    H158813   0.445   0.707  15.064 -0.4783  0.4650  0.1333
12466TIP3    H258814   0.314   0.647  15.018 -0.0142  0.1194 -0.7544
12467TIP3   OH258815   3.163   3.281   3.888  0.3874  0.0222  0.0248
12467TIP3    H158816   3.142   3.189   3.900 -0.6515  0.3630  0.9106
12467TIP3    H258817   3.184   3.289   3.795  0.6650 -1.1391 -0.0170
12468TIP3   OH258818   1.769   5.855   2.388  0.1627 -0.4789 -0.2343
12468TIP3    H158819   1.832   5.854   2.316  0.0528 -0.4128 -0.3313
12468TIP3    H258820   1.692   5.809   2.354  0.5770 -1.5499  0.2669
12469TIP3   OH258821   4.542   0.031   4.785  0.5111 -0.3979  0.6427
12469TIP3    H158822   4.583  -0.020   4.855  3.1293 -0.1709 -0.6473
12469TIP3    H258823   4.604   0.024   4.712  0.4234  3.7237  0.0652
12470TIP3   OH258824   2.039   5.181  15.933  0.1135  0.0414  0.0142
12470TIP3    H158825   2.079   5.165  15.848 -0.9411  1.2799 -0.7381
12470TIP3    H258826   2.111   5.208  15.989  0.7226 -0.1890 -0.6555
12471TIP3   OH258827   5.542   0.003   4.512 -0.1907 -0.0467  0.3107
12471TIP3    H158828   5.472   0.004   4.447  1.3673  0.7748 -1.4010
12471TIP3    H258829   5.546   0.094   4.544 -1.2225 -0.5400  1.8560
12472TIP3   OH258830   2.937   5.511   2.682 -0.1467  0.3892 -0.6660
12472TIP3    H158831   2.987   5.496   2.602 -0.2544  0.9788 -0.8420
12472TIP3    H258832   2.884   5.588   2.664  0.5033  1.0745  0.2777
12473TIP3   OH258833   6.269   2.637   3.745 -0.1561  0.2731 -0.9052
12473TIP3    H158834   6.315   2.558   3.716 -1.4515 -0.8797  0.0531
12473TIP3    H258835   6.316   2.709   3.704  1.5589 -0.9505 -1.1624
12474TIP3   OH258836   6.603   1.845  13.277  0.5286 -0.2740 -0.4018
12474TIP3    H158837   6.532   1.908  13.287  1.6874  1.1118 -0.8299
12474TIP3    H258838   6.647   1.870  13.195  1.9410 -0.6824  0.2101
12475TIP3   OH258839   4.231   3.943   0.202 -0.2834 -0.3572 -0.6146
12475TIP3    H158840   4.167   3.879   0.168 -0.4790 -0.2352 -0.4760
12475TIP3    H258841   4.178   4.017   0.231 -0.2157 -0.9637  1.0965
12476TIP3   OH258842   2.043   1.816  17.102 -0.9130  1.1083 -0.0028
12476TIP3    H158843   2.124   1.789  17.146  0.6693  2.4141 -2.0378
12476TIP3    H258844   2.054   1.910  17.087 -2.4660  1.1377 -1.0421
12477TIP3   OH258845   2.472   2.358   5.035 -0.3405 -0.1998  0.0894
12477TIP3    H158846   2.463   2.310   4.953 -1.2698 -0.3876  0.2935
12477TIP3    H258847   2.458   2.449   5.010 -3.4702 -0.5088  0.4490
12478TIP3   OH258848   2.356   1.888   1.087 -0.5301 -0.1517  0.2810
12478TIP3    H158849   2.431   1.879   1.145  0.3275  1.2922 -0.5547
12478TIP3    H258850   2.347   1.983   1.075 -1.0757 -0.4025 -1.4294
12479TIP3   OH258851   0.360   6.568  13.152 -0.4576  0.1473 -0.5892
12479TIP3    H158852   0.388   6.655  13.124 -0.7406  0.7008  0.7958
12479TIP3    H258853   0.421   6.509  13.109 -0.1102  1.0443 -1.3522
12480TIP3   OH258854   5.719   2.374  11.248 -0.2856 -0.3577 -0.3355
12480TIP3    H158855   5.758   2.287  11.255 -1.1034 -0.8224 -1.4090
12480TIP3    H258856   5.625   2.358  11.240 -0.7141  0.7391  2.0489
12481TIP3   OH258857   6.554   5.488   4.362 -0.1772  0.6698 -0.2458
12481TIP3    H158858   6.535   5.394   4.353 -0.5516  0.8035 -0.8524
12481TIP3    H258859   6.555   5.503   4.456 -1.4002  0.3122 -0.1615
12482TIP3   OH258860   5.849   4.111  14.244 -0.3704  0.5663  0.3912
12482TIP3    H158861   5.835   4.198  14.208  0.1848  1.4698  2.2932
12482TIP3    H258862   5.803   4.052  14.184  0.7405  1.9686 -1.8932
12483TIP3   OH258863   3.869   2.896   1.205 -0.1413  0.3232 -0.1490
12483TIP3    H158864   3.885   2.822   1.263  0.0674 -0.3212 -1.0229
12483TIP3    H258865   3.791   2.939   1.241  0.6221  0.5739  1.2390
12484TIP3   OH258866   2.676   1.733   3.571 -0.5688  0.6954  0.6288
12484TIP3    H158867   2.766   1.720   3.543 -0.4571  1.8715  0.4132
12484TIP3    H258868   2.666   1.679   3.649  0.3927  0.7587  0.7963
12485TIP3   OH258869   3.031   5.983   0.465 -0.4201  0.9399 -0.4870
12485TIP3    H158870   3.023   6.075   0.488 -2.3980  0.5271  0.5487
12485TIP3    H258871   2.950   5.943   0.496  2.4164 -2.0913  3.5415
12486TIP3   OH258872   0.970   4.178  12.007 -0.0483 -0.2447  0.6907
12486TIP3    H158873   0.899   4.134  11.960  0.7303 -1.7176  0.8640
12486TIP3    H258874   0.931   4.204  12.090 -1.0187  1.0334 -0.1485
12487TIP3   OH258875   0.761   3.340   0.704 -0.0291  0.0087 -0.6276
12487TIP3    H158876   0.705   3.294   0.767  1.1122  0.4487  0.7436
12487TIP3    H258877   0.769   3.429   0.740  0.8440  0.1920 -1.2551
12488TIP3   OH258878   1.142   1.576   2.853 -0.3952 -0.2924  0.0728
12488TIP3    H158879   1.064   1.527   2.826  1.1904 -2.1091 -1.2998
12488TIP3    H258880   1.107   1.648   2.906 -3.1570  0.0191 -2.0597
12489TIP3   OH258881   1.138   6.384  11.902  0.1374 -0.0670  0.7823
12489TIP3    H158882   1.158   6.297  11.937  0.2264 -0.5393 -0.4284
12489TIP3    H258883   1.066   6.416  11.956 -0.4683 -1.2592  0.6791
12490TIP3   OH258884   5.998   1.678  15.389 -0.7946 -0.4516  0.0173
12490TIP3    H158885   6.016   1.739  15.318 -0.6714 -0.8544 -0.3069
12490TIP3    H258886   5.919   1.712  15.431 -0.1696  0.4515  0.4475
12491TIP3   OH258887   0.716   2.059   4.098 -0.5868 -0.3958 -0.0656
12491TIP3    H158888   0.747   2.125   4.160 -1.1150  1.1782 -1.4501
12491TIP3    H258889   0.676   1.992   4.154 -2.4735  1.7471  1.2508
12492TIP3   OH258890   5.020   6.016  14.032 -0.1226  0.0588 -0.2965
12492TIP3    H158891   5.012   5.972  14.117  0.7313  0.0094 -0.2390
12492TIP3    H258892   5.001   6.108  14.051  1.9731  0.3883  0.3228
12493TIP3   OH258893   0.134   2.801   4.919  0.5842  0.3398 -0.4637
12493TIP3    H158894   0.123   2.894   4.897 -1.5964 -0.1070 -1.3748
12493TIP3    H258895   0.054   2.777   4.966  0.4685 -1.4328 -1.5144
12494TIP3   OH258896   0.061   1.587  13.557  0.0298  0.0835 -0.4516
12494TIP3    H158897   0.041   1.558  13.468 -0.1883 -0.9370 -0.0757
12494TIP3    H258898  -0.008   1.549  13.611 -0.6655  1.8786 -0.0230
12495TIP3   OH258899   0.549   2.676   1.553  0.0309 -0.1592  0.1170
12495TIP3    H158900   0.623   2.633   1.509 -1.3009 -0.5733 -1.8147
12495TIP3    H258901   0.486   2.605   1.569 -1.3937  0.7115 -1.4104
12496TIP3   OH258902   6.389   2.015  10.826 -0.0948 -0.2700 -0.0896
12496TIP3    H158903   6.468   2.011  10.880 -2.0111 -0.2009  2.8649
12496TIP3    H258904   6.406   1.954  10.754  2.0636 -1.3451  1.2653
12497TIP3   OH258905   2.883   2.617  15.425 -0.3159 -0.0404  0.7548
12497TIP3    H158906   2.952   2.661  15.375 -1.2920 -1.4779 -1.9447
12497TIP3    H258907   2.929   2.551  15.476  0.5270  0.3730  0.5413
12498TIP3   OH258908   2.541   0.906  10.852  0.1651  0.2114 -0.0608
12498TIP3    H158909   2.508   0.893  10.940  0.9182  0.3887  0.2520
12498TIP3    H258910   2.482   0.855  10.796 -0.2142 -0.0309  0.5595
12499TIP3   OH258911   4.550   1.078  10.800  0.1022 -0.1658 -0.0382
12499TIP3    H158912   4.614   1.011  10.825 -0.1109 -0.8285 -1.2567
12499TIP3    H258913   4.535   1.063  10.707 -0.9838  0.7123 -0.0060
12500TIP3   OH258914   3.334   1.560  10.487 -1.0837  0.4252  0.0511
12500TIP3    H158915   3.282   1.569  10.407  0.6426 -1.6773 -1.3842
12500TIP3    H258916   3.356   1.649  10.512  0.5473  1.0532 -3.3675
12501TIP3   OH258917   5.065   4.237   3.276 -0.5708 -0.4364  0.1955
12501TIP3    H158918   5.077   4.198   3.363  0.3568  0.3535  0.4434
12501TIP3    H258919   5.105   4.324   3.284 -0.3187 -0.4284 -1.0765
12502TIP3   OH258920   2.816   1.984  11.161  0.2990 -0.1427  0.6250
12502TIP3    H158921   2.827   1.932  11.082 -0.0087  0.3868  0.2335
12502TIP3    H258922   2.895   2.037  11.166 -0.2445  0.7413 -0.0140
12503TIP3   OH258923   2.677   1.332  15.132 -0.1808  0.2973 -0.4359
12503TIP3    H158924   2.683   1.264  15.199 -1.9066 -0.0186 -0.5961
12503TIP3    H258925   2.598   1.381  15.154 -0.9358 -0.0050 -2.3973
12504TIP3   OH258926   3.285   5.297  16.895  0.1381  0.2753  0.5034
12504TIP3    H158927   3.276   5.391  16.880  0.3276  0.2024 -0.1170
12504TIP3    H258928   3.379   5.284  16.909 -0.0294  0.3290  1.7280
12505TIP3   OH258929   0.133   0.375  12.463 -0.2640 -0.4153 -0.0242
12505TIP3    H158930   0.134   0.286  12.498  0.0089 -0.1557  0.6332
12505TIP3    H258931   0.125   0.431  12.540  1.3054  0.2032 -0.2900
12506TIP3   OH258932   1.774   6.011   3.478 -0.0290 -0.5342  0.3982
12506TIP3    H158933   1.682   6.004   3.451 -0.4441  4.1903  0.0711
12506TIP3    H258934   1.771   6.057   3.562  2.0390 -0.0288  0.2126
12507TIP3   OH258935   6.579   2.090   4.389  0.4140 -0.0488 -0.3475
12507TIP3    H158936   6.653   2.048   4.347  1.4761  0.3403  1.1039
12507TIP3    H258937   6.538   2.022   4.442 -0.7710 -0.4722 -1.7680
12508TIP3   OH258938   1.124   3.237   0.106  0.1750  0.1111 -0.1771
12508TIP3    H158939   1.136   3.150   0.143 -0.5857 -0.1764 -0.5757
12508TIP3    H258940   1.186   3.292   0.152  0.7832 -0.6811 -0.0440
12509TIP3   OH258941   5.998   5.911   1.004  0.2257 -0.0887  0.6344
12509TIP3    H158942   6.031   5.981   0.948  0.7568 -0.3209  0.6550
12509TIP3    H258943   6.020   5.938   1.093 -2.6680  1.4091  0.9654
12510TIP3   OH258944   1.569   3.501  14.907  0.1735 -0.4413  0.0179
12510TIP3    H158945   1.516   3.573  14.872  0.4612 -0.2648 -0.0610
12510TIP3    H258946   1.509   3.452  14.963 -1.0351 -2.3009 -2.7917
12511TIP3   OH258947   4.193   3.096   3.830 -0.4577 -0.2244 -0.1552
12511TIP3    H158948   4.152   3.040   3.764 -1.7705  1.1620 -0.5575
12511TIP3    H258949   4.256   3.039   3.874 -1.1703 -1.7835 -1.0923
12512TIP3   OH258950   5.167   3.066  15.552 -0.7637  0.1767  0.3090
12512TIP3    H158951   5.133   3.142  15.505 -0.7201  0.2433  0.3859
12512TIP3    H258952   5.251   3.048  15.510 -0.7631  0.1848  0.3070
12513TIP3   OH258953   0.974   1.042   3.973  0.3080 -0.0934  0.1857
12513TIP3    H158954   1.046   1.045   4.036 -0.2145 -1.6959  0.8588
12513TIP3    H258955   0.896   1.027   4.026 -0.2073 -0.8717 -0.7895
12514TIP3   OH258956   6.058   1.515  14.786 -0.1778 -0.7910 -0.0189
12514TIP3    H158957   6.095   1.432  14.756 -2.2899 -2.1185  0.8888
12514TIP3    H258958   6.001   1.490  14.859 -2.5439  1.1723 -1.1288
12515TIP3   OH258959   1.949   6.055  16.157 -0.5036 -0.0026 -0.6625
12515TIP3    H158960   2.023   6.012  16.199  0.4616  1.7942 -0.4425
12515TIP3    H258961   1.988   6.132  16.114 -2.4600  1.9391  0.9151
12516TIP3   OH258962   4.653   4.091   1.240 -0.2750 -0.1484  0.0608
12516TIP3    H158963   4.564   4.097   1.206 -0.5688 -0.2440  0.7994
12516TIP3    H258964   4.696   4.029   1.182 -0.4777  0.4566 -0.7439
12517TIP3   OH258965   2.513   3.587  16.978 -0.6196  0.0040  0.2341
12517TIP3    H158966   2.434   3.556  16.934  0.0113  0.2511 -1.1275
12517TIP3    H258967   2.580   3.586  16.909  0.5553 -0.1695  1.3580
12518TIP3   OH258968   1.416   5.016   1.632  0.7287  0.6313  0.1420
12518TIP3    H158969   1.488   5.011   1.569  0.4313  1.1710 -0.2479
12518TIP3    H258970   1.338   5.001   1.580  0.6306 -1.1984  0.7682
12519TIP3   OH258971   1.923   4.864  11.507 -0.5901 -0.1578 -0.0178
12519TIP3    H158972   2.013   4.897  11.517 -0.8364  0.2427  0.9833
12519TIP3    H258973   1.933   4.769  11.497 -0.0581 -0.1270  0.2068
12520TIP3   OH258974   0.955   3.598  10.795 -0.1543 -0.0968 -0.0359
12520TIP3    H158975   1.038   3.551  10.794 -0.3219 -0.3775 -1.1987
12520TIP3    H258976   0.980   3.691  10.800  0.2915 -0.0848 -1.9470
12521TIP3   OH258977   6.103   1.441   3.152  0.6254 -0.6862  0.0843
12521TIP3    H158978   6.081   1.348   3.147  1.1954 -0.7406 -1.9936
12521TIP3    H258979   6.028   1.485   3.110  0.0826 -0.1543  1.5808
12522TIP3   OH258980   5.615   3.129   0.173  0.8141 -0.0850  0.0378
12522TIP3    H158981   5.645   3.039   0.188 -1.9528 -1.3403 -1.6111
12522TIP3    H258982   5.524   3.129   0.201  0.8521  2.2994  0.2382
12523TIP3   OH258983   3.692   5.585   1.481  0.1043  0.1953 -0.2743
12523TIP3    H158984   3.677   5.515   1.418 -0.8127  0.4616 -0.3546
12523TIP3    H258985   3.620   5.578   1.543  0.9270  0.0138  0.6826
12524TIP3   OH258986   2.791   6.093  15.834 -0.5096  0.4114 -0.5140
12524TIP3    H158987   2.867   6.113  15.779 -0.2905  0.1510 -0.3024
12524TIP3    H258988   2.778   6.173  15.885  0.4599 -0.0189  0.4321
12525TIP3   OH258989   3.823   2.282  11.511  0.6090  0.0377 -0.2355
12525TIP3    H158990   3.830   2.268  11.417  0.9548  1.0138 -0.3564
12525TIP3    H258991   3.729   2.281  11.529  0.4100  2.4988 -1.0084
12526TIP3   OH258992   6.419   1.339  15.236  0.4895 -0.1420  0.3142
12526TIP3    H158993   6.410   1.334  15.140 -0.2250 -0.8048  0.4106
12526TIP3    H258994   6.391   1.428  15.258 -1.7094 -0.7587  0.1472
12527TIP3   OH258995   6.527   6.201  10.937  0.2527 -0.0109  0.5354
12527TIP3    H158996   6.559   6.240  10.856  0.6708 -0.9021  0.2618
12527TIP3    H258997   6.543   6.267  11.004  0.7002  0.3856  0.0409
12528TIP3   OH258998   3.645   0.485   3.037  0.3982 -0.7555  0.0382
12528TIP3    H158999   3.663   0.545   2.965 -0.0792 -1.6464 -0.8486
12528TIP3    H259000   3.630   0.541   3.113  1.3709  0.1755 -0.4564
12529TIP3   OH259001   6.062   5.042  15.950  0.1216  0.2362 -0.1389
12529TIP3    H159002   6.101   5.088  16.025 -1.7974 -0.6460  1.4175
12529TIP3    H259003   6.080   4.950  15.966 -0.4364  0.0264 -0.6992
12530TIP3   OH259004   4.249   5.186   1.085  0.1343  0.0766 -0.3503
12530TIP3    H159005   4.199   5.267   1.094  1.2243  0.6747  0.5298
12530TIP3    H259006   4.193   5.119   1.122 -1.0580  0.3117 -1.6984
12531TIP3   OH259007   3.496   4.748  10.846  0.2479  0.0375  0.3713
12531TIP3    H159008   3.565   4.703  10.895 -1.1278 -1.5389  0.9022
12531TIP3    H259009   3.419   4.692  10.856 -0.7723  1.1012 -1.3165
12532TIP3   OH259010   0.428   0.413   0.612  0.4684  0.0258  0.3897
12532TIP3    H159011   0.492   0.345   0.590 -0.1659 -1.1268  1.9339
12532TIP3    H259012   0.435   0.422   0.707 -1.1597  0.3862  0.4960
12533TIP3   OH259013   6.744   4.723  11.213  0.3237 -0.7786 -0.1699
12533TIP3    H159014   6.763   4.629  11.220 -1.1217 -1.0050  0.8224
12533TIP3    H259015   6.697   4.732  11.130 -1.0927 -1.2130  0.5654
12534TIP3   OH259016   4.707   3.669  14.708 -0.3425  0.1155  0.1285
12534TIP3    H159017   4.726   3.728  14.635 -0.1350  0.2684  0.3055
12534TIP3    H259018   4.615   3.646  14.697  0.0027 -0.8055 -0.8592
12535TIP3   OH259019   1.153   1.381  10.745  0.0353 -0.2572  0.0132
12535TIP3    H159020   1.218   1.447  10.769 -0.3489 -0.4511  1.6573
12535TIP3    H259021   1.082   1.431  10.705 -0.5744  0.4419  1.9137
12536TIP3   OH259022   4.554   2.915   2.122 -0.2479 -0.5141 -0.4490
12536TIP3    H159023   4.512   2.932   2.038  1.0405  0.7091 -0.8622
12536TIP3    H259024   4.600   2.832   2.109  0.3179 -0.1046 -1.1070
12537TIP3   OH259025   4.604   5.196   4.862 -0.8185  0.2507 -0.0746
12537TIP3    H159026   4.675   5.138   4.837 -1.3600 -0.5499  0.2370
12537TIP3    H259027   4.616   5.274   4.807  1.7637  1.1947  1.7201
12538TIP3   OH259028   4.427   3.260  11.328  0.4319  0.1077  0.4007
12538TIP3    H159029   4.399   3.341  11.369  0.2462 -0.4958  1.4718
12538TIP3    H259030   4.345   3.219  11.298  0.5270  0.3201 -0.1563
12539TIP3   OH259031   3.865   3.847   2.181  0.6479 -0.5012 -0.3165
12539TIP3    H159032   3.785   3.826   2.228 -0.1829  1.2202 -0.8950
12539TIP3    H259033   3.868   3.783   2.109 -0.8650  0.1580 -1.0037
12540TIP3   OH259034   1.563   2.339  14.545 -0.3496 -0.6689  0.0679
12540TIP3    H159035   1.486   2.304  14.499 -1.0753 -0.3620  1.0086
12540TIP3    H259036   1.588   2.269  14.605 -1.4397  0.1481  1.5297
12541TIP3   OH259037   3.368   4.897  13.473  0.1540  0.6709  0.2434
12541TIP3    H159038   3.276   4.925  13.477 -0.6568 -1.9501  1.0744
12541TIP3    H259039   3.384   4.880  13.380  0.5049  3.2699 -0.2029
12542TIP3   OH259040   0.543   6.749  10.720 -0.2137  0.0741  0.1399
12542TIP3    H159041   0.508   6.810  10.655  0.1516 -0.9206 -1.0082
12542TIP3    H259042   0.542   6.664  10.676 -0.6222 -0.7425  1.6912
12543TIP3   OH259043   2.521   4.080   0.393  0.0101  0.0592 -0.1202
12543TIP3    H159044   2.529   4.002   0.447  2.1423  0.3416  0.0386
12543TIP3    H259045   2.581   4.064   0.319 -0.6549  0.9146 -0.8552
12544TIP3   OH259046   3.817   5.762   3.208 -0.4166 -0.0019 -0.7084
12544TIP3    H159047   3.870   5.778   3.130 -1.2371 -1.3049 -1.5383
12544TIP3    H259048   3.755   5.694   3.182 -0.9207 -0.2102  0.9777
12545TIP3   OH259049   1.540   6.079  10.997  0.0118  0.8443 -0.2370
12545TIP3    H159050   1.632   6.084  10.972  0.9234 -3.0880  1.9212
12545TIP3    H259051   1.536   6.122  11.083 -0.1494  1.0741 -0.3606
12546TIP3   OH259052   0.303   5.682   2.833  0.3213  0.5424  0.2381
12546TIP3    H159053   0.382   5.735   2.832  0.5547  0.1992  0.5083
12546TIP3    H259054   0.314   5.623   2.908  0.2959 -0.2415 -0.3693
12547TIP3   OH259055   1.141   5.837   3.684 -0.4947 -0.5387  0.2935
12547TIP3    H159056   1.173   5.921   3.716 -4.0850  0.6842  0.9748
12547TIP3    H259057   1.159   5.776   3.756 -0.8235  0.3949  1.1894
12548TIP3   OH259058   6.139   5.868  11.046 -0.5778 -0.0585 -0.3495
12548TIP3    H159059   6.167   5.953  11.013 -1.4853 -0.9931 -3.7073
12548TIP3    H259060   6.123   5.882  11.139  1.3617  2.8841 -0.4092
12549TIP3   OH259061   0.158   4.300   0.780  0.6365  0.2350  0.7986
12549TIP3    H159062   0.224   4.274   0.844  0.1628  0.6933  1.4742
12549TIP3    H259063   0.119   4.218   0.751  1.8255 -0.0800  0.0402
12550TIP3   OH259064   4.509   4.228  16.135  0.4657 -0.8928  0.3930
12550TIP3    H159065   4.429   4.255  16.180  0.1576 -1.6907  0.3342
12550TIP3    H259066   4.498   4.260  16.046  1.4600  1.4418  1.0845
12551TIP3   OH259067   4.898   0.771   0.743 -0.2386 -0.7481 -0.7747
12551TIP3    H159068   4.898   0.678   0.765  1.9476 -0.9483 -1.4415
12551TIP3    H259069   4.876   0.774   0.650 -0.2198 -0.6099 -0.7750
12552TIP3   OH259070   2.919   5.142   6.126  0.5247  0.3458 -0.5402
12552TIP3    H159071   2.916   5.048   6.110 -2.2771  0.5382 -1.3858
12552TIP3    H259072   2.924   5.150   6.222 -1.4723 -0.6496 -0.3400
12553TIP3   OH259073   3.579   2.438  15.551 -0.1438  0.0965  0.1293
12553TIP3    H159074   3.647   2.390  15.502 -0.1661  0.9610 -0.7680
12553TIP3    H259075   3.627   2.486  15.618 -0.0675 -0.7762  0.7025
12554TIP3   OH259076   3.000   6.385   4.446  0.4707 -0.2168 -0.1232
12554TIP3    H159077   2.918   6.420   4.411 -1.2721 -3.4475  0.5065
12554TIP3    H259078   3.002   6.416   4.537 -0.4534 -0.7036  0.0771
12555TIP3   OH259079   5.356   0.219   0.635 -0.3763 -0.4499  0.5021
12555TIP3    H159080   5.329   0.127   0.631  2.6427 -1.3647  0.3771
12555TIP3    H259081   5.438   0.222   0.586  0.1887  2.0664  1.5441
12556TIP3   OH259082   5.159   6.271   6.301  0.4098 -0.0924  0.0969
12556TIP3    H159083   5.072   6.243   6.271 -0.0083  1.4389 -0.1522
12556TIP3    H259084   5.215   6.262   6.224  0.0783  0.6208 -0.2276
12557TIP3   OH259085   3.072   0.097   6.427  0.0555  0.7018  0.1399
12557TIP3    H159086   3.080   0.180   6.380  1.2115  1.2558  1.2705
12557TIP3    H259087   2.977   0.080   6.431 -0.1171  1.3438 -1.1484
12558TIP3   OH259088   1.607   3.774  17.128 -0.1120 -0.0089  0.1863
12558TIP3    H159089   1.592   3.868  17.140  0.6025 -0.0053  1.0537
12558TIP3    H259090   1.588   3.735  17.213  2.0323 -0.3369  0.5624
12559TIP3   OH259091   4.025   1.432   0.628  0.1687 -0.2090  0.3859
12559TIP3    H159092   3.954   1.490   0.654 -0.8356 -1.2749  0.0395
12559TIP3    H259093   4.091   1.490   0.590 -1.2913  0.5953 -0.9761
12560TIP3   OH259094   3.837   3.457  11.562  0.0196 -0.2409 -0.6204
12560TIP3    H159095   3.786   3.456  11.643  0.0369 -1.7713 -0.6179
12560TIP3    H259096   3.785   3.407  11.500  0.7952 -0.5031 -1.0613
12561TIP3   OH259097   5.119   4.080  17.059 -0.1452  0.0702 -0.3052
12561TIP3    H159098   5.121   3.987  17.037 -0.1111 -0.0864  0.3554
12561TIP3    H259099   5.211   4.105  17.067 -0.1409  0.2687 -0.9093
12562TIP3   OH259100   0.409   1.503   3.363  0.3987  0.3235  0.0126
12562TIP3    H159101   0.481   1.451   3.327 -1.5373 -1.1832 -1.8399
12562TIP3    H259102   0.359   1.441   3.416 -1.7862  0.3007 -1.9987
12563TIP3   OH259103   2.027   4.486   4.722 -0.5939  0.3575 -0.5864
12563TIP3    H159104   1.943   4.512   4.683  0.3829  1.4002 -2.0371
12563TIP3    H259105   2.075   4.568   4.732 -0.8159  0.1163  2.8485
12564TIP3   OH259106   1.710   2.250  13.019  0.1530 -0.0171  0.1167
12564TIP3    H159107   1.674   2.242  13.108 -0.0202  0.8100  0.1269
12564TIP3    H259108   1.708   2.344  13.001 -0.3729 -0.2306 -0.9939
12565TIP3   OH259109   5.354   6.695   4.331  0.4582 -0.0023  0.3321
12565TIP3    H159110   5.393   6.618   4.373  0.1797  0.1660  0.9110
12565TIP3    H259111   5.394   6.698   4.244 -0.3693 -1.4440 -0.1206
12566TIP3   OH259112   2.810   6.438   2.857  0.5953 -0.7640  0.2844
12566TIP3    H159113   2.768   6.463   2.775  1.5252  2.0237  0.6004
12566TIP3    H259114   2.875   6.373   2.833  4.1293  3.3694 -1.9749
12567TIP3   OH259115   5.453   4.161   2.905  0.1393 -0.4729 -1.0128
12567TIP3    H159116   5.440   4.179   2.999 -0.9975 -1.1890 -1.0179
12567TIP3    H259117   5.423   4.241   2.862  1.6929  0.2819 -0.7281
12568TIP3   OH259118   3.932   0.917   3.081  0.3831  0.1157  0.6913
12568TIP3    H159119   3.960   0.826   3.075 -0.2726  0.0365 -1.9626
12568TIP3    H259120   4.013   0.968   3.067  0.4620 -0.0856  0.3960
12569TIP3   OH259121   6.631   4.237  17.143  0.0243 -0.2556 -0.2359
12569TIP3    H159122   6.625   4.152  17.100  0.4222 -0.3374 -0.1338
12569TIP3    H259123   6.577   4.228  17.222  0.6803 -0.6693  0.1764
12570TIP3   OH259124   2.725   6.690  14.655  0.3410 -0.2714  0.3901
12570TIP3    H159125   2.804   6.738  14.633  0.7184  0.3781  3.0181
12570TIP3    H259126   2.665   6.755  14.692 -1.5989 -0.6798 -1.8920
12571TIP3   OH259127   0.004   1.211   2.451  0.4922  0.3257 -0.8268
12571TIP3    H159128  -0.055   1.270   2.497 -0.9713 -0.5065 -1.6162
12571TIP3    H259129  -0.032   1.123   2.467  2.8662 -0.4379  0.6743
12572TIP3   OH259130   6.106   1.752   1.578  0.3835 -0.2471  0.5006
12572TIP3    H159131   6.166   1.772   1.506 -1.3654  0.8832 -0.6881
12572TIP3    H259132   6.056   1.833   1.591 -0.3293 -0.9040  2.0085
12573TIP3   OH259133   5.119   5.859  16.699 -0.0775 -0.4296 -0.5935
12573TIP3    H159134   5.213   5.844  16.696  0.0684  0.1962  0.4373
12573TIP3    H259135   5.093   5.871  16.608  0.6849 -1.4743 -0.9573
12574TIP3   OH259136   0.297   0.800   4.461 -0.2552  0.3659  0.2281
12574TIP3    H159137   0.302   0.875   4.520  0.6974 -0.2002  0.8718
12574TIP3    H259138   0.387   0.781   4.437 -0.5221 -0.3206 -0.2598
12575TIP3   OH259139   0.102   3.661   5.596 -0.2521 -0.4958 -0.4760
12575TIP3    H159140   0.064   3.711   5.668  0.0093  2.1787 -2.1045
12575TIP3    H259141   0.027   3.640   5.539 -0.1921 -0.8891 -0.4090
12576TIP3   OH259142   5.510   6.042  14.985 -0.0624 -0.3233 -0.0814
12576TIP3    H159143   5.470   5.957  14.966 -0.9118  0.0544  0.0288
12576TIP3    H259144   5.494   6.057  15.078  1.9145 -1.0048  0.3972
12577TIP3   OH259145   3.327   4.790   3.419  0.0061  0.1775  0.3904
12577TIP3    H159146   3.397   4.738   3.460 -1.9366 -1.3037  1.9050
12577TIP3    H259147   3.264   4.805   3.489 -2.1591 -0.1962 -1.4291
12578TIP3   OH259148   2.001   0.464  16.998 -0.3252 -0.0132 -0.3734
12578TIP3    H159149   1.997   0.554  17.027 -2.5299 -0.0308 -0.5692
12578TIP3    H259150   1.997   0.469  16.902 -1.5784 -0.3650 -0.3424
12579TIP3   OH259151   3.020   0.894  13.221 -0.0717 -0.1855 -0.1333
12579TIP3    H159152   2.952   0.958  13.240  0.0810 -0.2107  0.4886
12579TIP3    H259153   3.101   0.946  13.218 -0.0688 -0.2063 -0.5538
12580TIP3   OH259154   1.970   0.940  15.435 -0.3488 -0.4579 -0.6111
12580TIP3    H159155   1.959   1.023  15.389  1.1773 -0.4272 -0.9392
12580TIP3    H259156   2.007   0.881  15.370 -1.3995 -1.4077 -0.3760
12581TIP3   OH259157   1.211   5.107  17.150  0.2233  0.3557  0.0207
12581TIP3    H159158   1.179   5.017  17.156  0.2163  0.3507 -0.0979
12581TIP3    H259159   1.144   5.154  17.101  1.0004  0.0472 -1.3809
12582TIP3   OH259160   5.515   4.877  12.658 -0.2757  0.0810  0.2094
12582TIP3    H159161   5.466   4.801  12.626 -1.0153 -0.1887  1.9237
12582TIP3    H259162   5.547   4.920  12.578  0.7116 -2.3820 -0.7666
12583TIP3   OH259163   2.785   4.327  12.037 -0.1079 -0.2264 -0.2613
12583TIP3    H159164   2.803   4.417  12.010 -0.4895  0.3725  1.4188
12583TIP3    H259165   2.692   4.328  12.059  0.5257 -0.2754  2.5627
12584TIP3   OH259166   6.468   0.539   2.093  0.0584 -0.6738 -0.2401
12584TIP3    H159167   6.396   0.515   2.035 -0.0658  0.8006 -0.7155
12584TIP3    H259168   6.547   0.521   2.042 -0.0076 -0.8645 -0.2772
12585TIP3   OH259169   0.653   0.847  13.612  0.1091  0.1588 -0.4877
12585TIP3    H159170   0.729   0.791  13.625 -1.3692 -1.4323  1.4548
12585TIP3    H259171   0.640   0.848  13.517  2.1125 -0.1309 -0.7707
12586TIP3   OH259172   4.514   4.769  16.555  0.2965  0.1694 -0.0698
12586TIP3    H159173   4.430   4.748  16.596  0.7299  0.5919  1.0461
12586TIP3    H259174   4.506   4.734  16.466 -0.9029 -0.1653  0.1524
12587TIP3   OH259175   0.870   1.771   0.426  0.1323  0.6136  0.0150
12587TIP3    H159176   0.861   1.704   0.358  0.1127 -1.8543  2.3546
12587TIP3    H259177   0.964   1.788   0.430  0.2761 -0.1895  0.2340
12588TIP3   OH259178   1.422   0.606   1.269  0.1025 -0.2163 -0.4648
12588TIP3    H159179   1.375   0.637   1.346 -1.2113  1.5489 -1.9465
12588TIP3    H259180   1.511   0.641   1.280 -0.2629  0.5999 -0.0792
12589TIP3   OH259181   0.055   3.755  12.020 -0.1989 -0.1222  0.3841
12589TIP3    H159182   0.001   3.747  12.098  2.8141  0.1418  2.5627
12589TIP3    H259183   0.003   3.810  11.961 -1.8590  0.9771  2.7903
12590TIP3   OH259184   2.708   0.721   4.757  0.3133  0.0523 -0.0368
12590TIP3    H159185   2.771   0.747   4.824  1.1150  1.3518 -1.2506
12590TIP3    H259186   2.622   0.732   4.798  0.7587  1.8413  0.4328
12591TIP3   OH259187   2.079   5.383   2.260 -0.1603 -0.0088  0.1769
12591TIP3    H159188   2.099   5.307   2.315  2.6390  0.4002 -0.1709
12591TIP3    H259189   2.150   5.385   2.196 -1.2445  1.7950 -1.0097
12592TIP3   OH259190   2.482   3.121   5.902 -0.0497 -0.0870 -0.3217
12592TIP3    H159191   2.491   3.159   5.815  1.7078  1.6244  0.5439
12592TIP3    H259192   2.388   3.126   5.921 -0.4641 -0.5848 -2.1370
12593TIP3   OH259193   4.038   3.672   3.955  0.0494 -0.2961 -0.1811
12593TIP3    H159194   3.952   3.656   3.993 -0.8664 -0.1423 -2.1295
12593TIP3    H259195   4.065   3.756   3.991 -0.9758  0.0524 -0.2144
12594TIP3   OH259196   1.267   1.538   3.842  0.0266 -0.0694 -0.4038
12594TIP3    H159197   1.287   1.476   3.771  0.0482 -0.8124  0.2423
12594TIP3    H259198   1.189   1.584   3.812  0.5381  0.2334 -1.2963
12595TIP3   OH259199   1.180   2.212   0.132 -0.1319  0.4254  0.1679
12595TIP3    H159200   1.121   2.227   0.057  0.6012 -0.8909 -0.6833
12595TIP3    H259201   1.261   2.179   0.093  0.3492 -0.0501  1.5380
12596TIP3   OH259202   2.394   0.062  11.197 -0.1808  0.0453  0.0556
12596TIP3    H159203   2.347   0.132  11.153 -0.8197 -1.4131 -1.6610
12596TIP3    H259204   2.361  -0.018  11.156  0.1341 -1.2922  2.3278
12597TIP3   OH259205   4.130   2.218   5.164 -0.2850 -0.0880 -1.0898
12597TIP3    H159206   4.192   2.196   5.094  0.6771  1.8107 -0.8672
12597TIP3    H259207   4.046   2.228   5.119  0.0941 -0.0467 -1.7995
12598TIP3   OH259208   3.481   0.061  13.501  0.3275  0.0880 -0.9517
12598TIP3    H159209   3.475  -0.010  13.565 -1.3809  2.0338  1.1340
12598TIP3    H259210   3.390   0.075  13.473  0.5834  1.7973 -0.9405
12599TIP3   OH259211   4.637   5.617   4.779 -0.1613  0.5183 -0.4109
12599TIP3    H159212   4.573   5.624   4.708  0.7701 -2.4374 -1.5995
12599TIP3    H259213   4.584   5.600   4.857 -1.0387  1.6668 -0.7296
12600TIP3   OH259214   1.700   3.472   3.977  0.0186  0.3542  0.4651
12600TIP3    H159215   1.626   3.529   3.995  0.8752  2.1192 -1.4088
12600TIP3    H259216   1.724   3.435   4.062 -2.7039  0.1107  1.1583
12601TIP3   OH259217   5.211   5.367   5.627 -0.4426 -0.2058 -0.1577
12601TIP3    H159218   5.294   5.412   5.646  0.2242 -1.0605 -0.9530
12601TIP3    H259219   5.146   5.414   5.678  0.5438  0.4685  0.5074
12602TIP3   OH259220   4.117   2.851  13.648 -0.4665  0.8085  0.3721
12602TIP3    H159221   4.056   2.925  13.649  2.0122  2.9523 -1.7751
12602TIP3    H259222   4.145   2.844  13.557  2.9735  0.2917  1.3884
12603TIP3   OH259223   6.228   6.443   3.711 -0.5463 -0.8304  0.4104
12603TIP3    H159224   6.164   6.484   3.769 -1.5336 -2.5131  0.5574
12603TIP3    H259225   6.197   6.353   3.701  1.3120 -1.4329 -0.2471
12604TIP3   OH259226   3.870   0.637   1.077  0.3603 -0.1458 -0.0737
12604TIP3    H159227   3.882   0.703   1.008  0.3267  0.2052  0.2531
12604TIP3    H259228   3.775   0.626   1.083  0.3177  0.6237  0.6673
12605TIP3   OH259229   1.855   6.015   2.603  0.4494 -0.0158 -0.1438
12605TIP3    H159230   1.813   5.954   2.543 -0.6074  0.0952  0.4684
12605TIP3    H259231   1.807   6.097   2.592  1.3464  0.4836 -0.3790
12606TIP3   OH259232   4.903   4.170  11.936 -0.1505 -0.0836  0.2278
12606TIP3    H159233   4.835   4.197  11.874 -2.2861 -1.1833  2.0174
12606TIP3    H259234   4.924   4.080  11.911 -0.4056 -0.2414  0.5832
12607TIP3   OH259235   6.313   3.279  14.334  0.2769 -0.5642  0.2240
12607TIP3    H159236   6.261   3.292  14.255 -1.6419  0.7451  1.6485
12607TIP3    H259237   6.393   3.329  14.319 -0.3822  0.2544 -0.6107
12608TIP3   OH259238   3.219   1.213  14.631  0.2856 -0.0892  0.0803
12608TIP3    H159239   3.145   1.153  14.619 -0.4204  0.7681  0.0254
12608TIP3    H259240   3.278   1.193  14.558  1.0670 -2.1338  1.2550
12609TIP3   OH259241   4.095   0.779  13.927 -0.2098  0.5823 -0.6829
12609TIP3    H159242   4.156   0.720  13.883  0.2649 -0.9564  1.9671
12609TIP3    H259243   4.096   0.858  13.873  1.9562 -0.4469 -2.2381
12610TIP3   OH259244   3.502   2.125  15.798 -0.1137 -0.0257 -0.3834
12610TIP3    H159245   3.489   2.087  15.711 -0.3113 -1.2878  0.1770
12610TIP3    H259246   3.580   2.180  15.789  0.1026 -0.4579 -1.2611
12611TIP3   OH259247   0.068   6.457  15.296 -0.0306 -0.2001 -0.5123
12611TIP3    H159248   0.138   6.517  15.270  0.1583  0.1240  0.7331
12611TIP3    H259249   0.108   6.400  15.362 -1.3507  0.9967  1.3589
12612TIP3   OH259250   4.441   5.989  15.731  0.2485 -0.1894  0.1493
12612TIP3    H159251   4.514   5.930  15.709  0.3397  0.3543 -1.0113
12612TIP3    H259252   4.482   6.063  15.776  0.5166  0.5145 -1.2440
12613TIP3   OH259253   5.517   6.576  13.237  0.3052  0.8097  0.2263
12613TIP3    H159254   5.585   6.510  13.225 -0.9123 -0.2899 -0.6938
12613TIP3    H259255   5.561   6.659  13.215  1.1599  0.0285 -1.1171
12614TIP3   OH259256   0.448   0.324  12.219 -0.1853 -0.2924  0.2916
12614TIP3    H159257   0.382   0.348  12.154 -0.3853 -0.4124  0.4504
12614TIP3    H259258   0.433   0.230  12.234  1.5109 -0.8727 -1.4060
12615TIP3   OH259259   5.593   1.820  13.806 -0.6493 -0.0211 -0.3901
12615TIP3    H159260   5.553   1.903  13.832  0.8078  0.5869 -0.0513
12615TIP3    H259261   5.635   1.839  13.722  0.3115 -0.2152  0.0409
12616TIP3   OH259262   5.432   6.687  11.354  0.0761  1.0653 -0.4032
12616TIP3    H159263   5.445   6.652  11.443  1.6411 -1.6735 -1.6647
12616TIP3    H259264   5.517   6.679  11.312 -0.7833  1.8441 -2.3458
12617TIP3   OH259265   3.541   5.058  12.647  0.2655  0.0250 -0.1534
12617TIP3    H159266   3.484   4.987  12.618  0.2957  0.6337 -1.7389
12617TIP3    H259267   3.499   5.091  12.727  0.2641 -1.7657  0.5995
12618TIP3   OH259268   2.402   1.522   1.447 -0.0438 -0.0022  0.0463
12618TIP3    H159269   2.450   1.457   1.397  0.3853 -0.2128  0.7180
12618TIP3    H259270   2.358   1.472   1.516 -0.3462  0.3243  0.0924
12619TIP3   OH259271   3.170   2.909  16.989 -0.4111  0.2963 -0.7037
12619TIP3    H159272   3.081   2.920  16.954 -0.2773 -1.0060 -1.4455
12619TIP3    H259273   3.222   2.879  16.915  1.0079  2.5198 -0.6540
12620TIP3   OH259274   2.402   2.890  13.745  0.5385 -0.0570 -0.7700
12620TIP3    H159275   2.453   2.917  13.669  1.2923  1.8819  0.3896
12620TIP3    H259276   2.339   2.962  13.758  0.1884 -0.5345  0.2244
12621TIP3   OH259277   3.075   4.525  15.499 -0.0746 -0.1380 -0.3936
12621TIP3    H159278   3.014   4.473  15.447 -1.0638  2.2231 -1.6327
12621TIP3    H259279   3.020   4.583  15.550  1.0849  1.2470 -0.6902
12622TIP3   OH259280   0.977   4.750  13.258 -0.0938 -0.0397 -0.1978
12622TIP3    H159281   0.883   4.767  13.262  0.3154  2.3012  0.2930
12622TIP3    H259282   0.999   4.712  13.343 -0.5577 -0.4007 -0.2400
12623TIP3   OH259283   0.699   1.063   3.683  0.5390  0.3678  0.0535
12623TIP3    H159284   0.691   1.153   3.716  0.8065  0.3613  0.1406
12623TIP3    H259285   0.655   1.064   3.599 -0.0357  0.4216  0.3519
12624TIP3   OH259286   0.313   3.519   2.993 -0.3097  0.3369 -0.1729
12624TIP3    H159287   0.258   3.475   3.059 -1.3263  2.7087  0.6031
12624TIP3    H259288   0.274   3.495   2.909  1.4753 -3.3821 -0.0608
12625TIP3   OH259289   3.164   2.872  14.756  0.1321 -0.1017 -0.5292
12625TIP3    H159290   3.090   2.899  14.810  1.7880  2.8458  0.3938
12625TIP3    H259291   3.194   2.790  14.794 -0.6837  0.3176  1.0484
12626TIP3   OH259292   2.907   6.129   4.772  0.0195  0.0878 -0.3022
12626TIP3    H159293   2.978   6.191   4.787 -0.6034  0.7496 -0.0729
12626TIP3    H259294   2.946   6.062   4.716  0.8271  0.4357 -0.1699
12627TIP3   OH259295   1.964   1.092   5.346  0.1001 -0.0367 -0.2677
12627TIP3    H159296   2.027   1.164   5.350  1.8050 -1.6068  2.7478
12627TIP3    H259297   1.982   1.050   5.262  0.4847  1.7894 -1.1268
12628TIP3   OH259298   5.006   3.495  12.603 -0.2835  0.3099  0.5046
12628TIP3    H159299   5.027   3.457  12.688 -1.3938 -1.5404 -0.0241
12628TIP3    H259300   4.971   3.582  12.624  2.5319  1.2174  1.7105
12629TIP3   OH259301   5.960   1.869  16.734 -0.6520 -0.2416 -0.5138
12629TIP3    H159302   5.958   1.774  16.727  0.6943 -0.4305  1.2499
12629TIP3    H259303   5.940   1.886  16.826  1.2103  1.0653 -0.3276
12630TIP3   OH259304   4.254   4.842   1.818 -0.4369 -0.4187  0.4447
12630TIP3    H159305   4.298   4.857   1.901  0.0100  3.3712 -0.4027
12630TIP3    H259306   4.190   4.913   1.811  0.8320  0.4887 -3.2775
12631TIP3   OH259307   0.458   0.001   3.468 -0.0083 -0.1153  0.6401
12631TIP3    H159308   0.503   0.075   3.508 -1.5181  0.5469  1.1466
12631TIP3    H259309   0.413  -0.042   3.541 -1.1360 -0.0789 -0.0188
12632TIP3   OH259310   6.545   2.133   5.115 -0.6196  0.2751  0.1172
12632TIP3    H159311   6.564   2.120   5.022 -2.8189 -1.1826 -0.1626
12632TIP3    H259312   6.521   2.047   5.147 -0.0408  0.7932  2.0427
12633TIP3   OH259313   3.370   4.211   2.138  0.4969  0.2319  0.1988
12633TIP3    H159314   3.362   4.168   2.053 -0.4384 -2.0304  1.3788
12633TIP3    H259315   3.300   4.172   2.191  1.1436  1.5080  2.0462
12634TIP3   OH259316   5.583   4.089  13.881  0.5479  0.2808  0.8147
12634TIP3    H159317   5.513   4.153  13.869  0.6459  0.1841 -0.3736
12634TIP3    H259318   5.540   4.004  13.876  1.2391  0.0874 -4.0473
12635TIP3   OH259319   1.376   3.322  10.992 -0.1634 -1.0350 -0.3080
12635TIP3    H159320   1.453   3.360  11.036  0.1043 -3.2183  1.1651
12635TIP3    H259321   1.407   3.301  10.904  0.1076  0.7131 -0.6493
12636TIP3   OH259322   2.895   1.517   5.175 -0.2600  0.5214 -0.0437
12636TIP3    H159323   2.812   1.565   5.179 -0.4843  0.1620 -0.3017
12636TIP3    H259324   2.949   1.556   5.244 -0.9809  0.1398  0.7488
12637TIP3   OH259325   5.888   0.083  12.619 -0.1919  0.0985 -0.2269
12637TIP3    H159326   5.822   0.119  12.678  0.7387  2.2753 -0.4750
12637TIP3    H259327   5.958   0.053  12.677 -0.0167  0.7061 -0.1146
12638TIP3   OH259328   5.448   1.624   1.803 -0.5883  0.0573  0.1834
12638TIP3    H159329   5.416   1.613   1.714  0.8987 -1.2283 -0.2140
12638TIP3    H259330   5.455   1.535   1.838  0.1435  0.4665  1.1007
12639TIP3   OH259331   6.150   5.302   3.144 -0.2220  0.1427 -0.2657
12639TIP3    H159332   6.067   5.341   3.172 -0.0566  0.6683 -0.4926
12639TIP3    H259333   6.198   5.288   3.226 -1.0035 -1.2695 -0.0321
12640TIP3   OH259334   2.115   5.486  12.339  0.1536  0.3723  0.2330
12640TIP3    H159335   2.047   5.487  12.271  1.3084  1.8704 -0.9347
12640TIP3    H259336   2.082   5.546  12.406 -0.3827 -0.0923  0.3856
12641TIP3   OH259337   3.551   2.414  13.850 -0.3153  0.4382  0.7100
12641TIP3    H159338   3.460   2.438  13.870  0.0024  0.1661  2.6466
12641TIP3    H259339   3.592   2.496  13.824 -1.2944  0.4227 -0.9505
12642TIP3   OH259340   6.480   3.843  15.090 -0.2192 -0.3052 -0.3456
12642TIP3    H159341   6.385   3.852  15.100  0.0055  1.6461  0.3077
12642TIP3    H259342   6.513   3.933  15.099  1.7808 -1.1068  0.5314
12643TIP3   OH259343   2.448   5.010  15.143 -0.1385  0.3975  0.2766
12643TIP3    H159344   2.490   5.090  15.115  0.4789 -0.2779 -0.7403
12643TIP3    H259345   2.382   4.992  15.076  1.6407 -1.4547 -1.0365
12644TIP3   OH259346   1.081   0.282   3.940  0.2872  0.2191 -0.0468
12644TIP3    H159347   1.070   0.286   4.035  0.9708 -0.8449  0.0844
12644TIP3    H259348   1.057   0.370   3.910 -0.0702  0.5241  1.0904
12645TIP3   OH259349   3.386   4.350  15.328  0.0403  0.1710  0.6811
12645TIP3    H159350   3.309   4.352  15.385 -1.7507 -0.7072 -1.6591
12645TIP3    H259351   3.407   4.257  15.319  0.6983  0.3449  0.3954
12646TIP3   OH259352   2.352   5.778  12.318 -0.1420 -0.0000  0.0751
12646TIP3    H159353   2.437   5.792  12.358  0.0579 -0.4510 -0.1815
12646TIP3    H259354   2.291   5.771  12.392 -0.1792  1.6907  0.2159
12647TIP3   OH259355   6.636   5.994   1.521 -0.1413 -0.0689  0.1939
12647TIP3    H159356   6.546   6.024   1.533  0.1721  0.8932  0.1539
12647TIP3    H259357   6.637   5.906   1.557 -1.5133 -0.7301 -1.3126
12648TIP3   OH259358   5.882   3.518  16.115 -0.4494  0.1519 -0.7321
12648TIP3    H159359   5.928   3.472  16.044 -1.2929  1.8965 -2.4724
12648TIP3    H259360   5.791   3.490  16.106 -0.9570  2.0839 -1.7702
12649TIP3   OH259361   5.280   5.661  14.746  0.0194  0.1955  0.3329
12649TIP3    H159362   5.331   5.742  14.748  1.2093 -0.5190 -0.6948
12649TIP3    H259363   5.194   5.689  14.714  0.8557  0.8503 -1.4133
12650TIP3   OH259364   4.411   2.633  11.737 -0.1434 -0.2131 -0.1682
12650TIP3    H159365   4.400   2.545  11.774  1.5428 -0.5122 -0.3405
12650TIP3    H259366   4.477   2.623  11.669  0.7171  1.3521  0.4084
12651TIP3   OH259367   3.556   6.078   5.883 -0.1826  0.1754  0.3424
12651TIP3    H159368   3.475   6.083   5.833  0.2517 -0.8540 -0.4997
12651TIP3    H259369   3.557   6.157   5.936 -2.4272 -0.4933  1.4234
12652TIP3   OH259370   0.054   6.081   0.216 -0.1621  0.5616 -0.3722
12652TIP3    H159371   0.104   6.053   0.293  0.5189  0.7733 -0.7311
12652TIP3    H259372  -0.031   6.106   0.251  0.6456  2.1338  0.5371
12653TIP3   OH259373   2.735   6.434   4.290  0.6199  0.0892 -0.4317
12653TIP3    H159374   2.768   6.383   4.216  0.7183  0.6347 -0.7721
12653TIP3    H259375   2.676   6.498   4.251  1.2903  0.9093 -0.1419
12654TIP3   OH259376   0.529   2.669  14.201 -0.5495  0.0690  0.3611
12654TIP3    H159377   0.481   2.740  14.244 -1.2484 -0.5995  0.7057
12654TIP3    H259378   0.510   2.592  14.254  0.5942 -0.2848  0.2606
12655TIP3   OH259379   2.844   1.455  15.317 -0.4794  0.1939  0.2497
12655TIP3    H159380   2.804   1.512  15.382 -1.2210  0.8225 -0.7358
12655TIP3    H259381   2.787   1.462  15.240 -0.0913 -1.1771 -0.1910
12656TIP3   OH259382   4.136   4.220   4.400  0.9570  0.1663  0.1994
12656TIP3    H159383   4.129   4.312   4.425  0.6273  0.2430 -0.1740
12656TIP3    H259384   4.227   4.208   4.375  0.5113  0.9349 -1.8714
12657TIP3   OH259385   0.169   4.747  15.087 -0.0705 -0.2211  0.0687
12657TIP3    H159386   0.220   4.667  15.096  0.3754  0.1853  1.2002
12657TIP3    H259387   0.197   4.802  15.160 -0.7700  0.7486 -0.3826
12658TIP3   OH259388   3.794   0.779   1.938  0.0905 -0.0694  0.6457
12658TIP3    H159389   3.876   0.826   1.926 -0.2311  0.8903  2.0640
12658TIP3    H259390   3.755   0.818   2.016 -2.0559 -0.0027 -0.4079
12659TIP3   OH259391   3.723   1.946   0.915  0.0149 -0.1044 -0.0609
12659TIP3    H159392   3.650   1.887   0.933  0.4781 -1.0018 -1.0819
12659TIP3    H259393   3.733   1.944   0.819 -0.6271  2.4299 -0.2342
12660TIP3   OH259394   2.058   5.946   1.907  0.5495 -0.0944  0.2644
12660TIP3    H159395   2.103   5.870   1.943  0.4018 -0.6152 -0.6637
12660TIP3    H259396   2.096   6.020   1.955  1.4250 -0.6525  0.4407
12661TIP3   OH259397   4.634   4.243   4.980 -0.1736  0.2141  0.0363
12661TIP3    H159398   4.711   4.253   5.036 -0.6925 -0.5126  0.8913
12661TIP3    H259399   4.606   4.333   4.961 -0.1729  0.4583  1.1922
12662TIP3   OH259400   4.068   6.343  14.633  0.5352  0.0617  0.6284
12662TIP3    H159401   4.045   6.426  14.674 -0.5449 -0.0466  0.2699
12662TIP3    H259402   4.069   6.362  14.539 -0.7727 -0.5723  0.4773
12663TIP3   OH259403   3.786   2.778  12.315 -0.0177 -0.1897 -0.0484
12663TIP3    H159404   3.727   2.789  12.241 -0.4210  0.4493  0.3592
12663TIP3    H259405   3.867   2.822  12.289 -0.2482  0.2614 -0.0117
12664TIP3   OH259406   0.980   2.785  13.503 -0.1655  0.0249 -0.5104
12664TIP3    H159407   0.965   2.877  13.523 -2.0380 -0.0818 -1.2487
12664TIP3    H259408   1.041   2.755  13.570 -0.1542  1.6053  0.2057
12665TIP3   OH259409   5.151   2.448  16.294  0.0204  0.4657 -0.0222
12665TIP3    H159410   5.187   2.386  16.231  0.0163  0.1127  0.3198
12665TIP3    H259411   5.142   2.530  16.245  2.8339  1.0260  0.2923
12666TIP3   OH259412   6.415   4.823   3.799  0.3492 -0.2575 -0.0264
12666TIP3    H159413   6.337   4.794   3.752  0.1897  1.9911 -1.1930
12666TIP3    H259414   6.404   4.789   3.888 -2.0122  0.1654 -0.1405
12667TIP3   OH259415   6.709   3.243  15.726 -0.0765  0.4012  0.2136
12667TIP3    H159416   6.794   3.242  15.771 -1.5967 -2.6606  3.2886
12667TIP3    H259417   6.722   3.189  15.648  0.8990  0.2917  0.4477
12668TIP3   OH259418   3.107   5.022  17.026  0.0709  0.0493 -0.0279
12668TIP3    H159419   3.150   5.108  17.027 -0.8001  0.5252 -1.6700
12668TIP3    H259420   3.178   4.960  17.012  0.2414  0.8701 -3.1426
12669TIP3   OH259421   3.525   6.736   4.011 -0.0690 -0.4340  0.1734
12669TIP3    H159422   3.502   6.761   3.922  0.0662 -1.1267 -0.0556
12669TIP3    H259423   3.441   6.723   4.056 -0.1374 -0.9233 -0.0907
12670TIP3   OH259424   3.836   0.737   5.882 -0.2160  0.3089 -0.0426
12670TIP3    H159425   3.789   0.810   5.841 -1.3622 -0.4543 -0.1207
12670TIP3    H259426   3.844   0.763   5.974 -1.0001  0.3463  0.0193
12671TIP3   OH259427   1.502   2.153  12.173 -0.0088  0.1572 -0.6170
12671TIP3    H159428   1.585   2.190  12.202  0.0858  0.5556 -1.3894
12671TIP3    H259429   1.520   2.059  12.164 -0.4194 -0.1948  1.9270
12672TIP3   OH259430   1.443   1.324   2.161  0.5132  0.2188 -0.7958
12672TIP3    H159431   1.351   1.300   2.167 -0.0733  2.2070 -1.3168
12672TIP3    H259432   1.453   1.396   2.223  1.8570 -0.3651 -0.3197
12673TIP3   OH259433   6.074   0.533  15.583 -0.3973 -0.1760  0.2178
12673TIP3    H159434   6.137   0.502  15.518 -0.0020 -1.7985  1.3426
12673TIP3    H259435   6.016   0.592  15.535  1.8249  1.1562 -0.9003
12674TIP3   OH259436   1.786   4.119  14.648  0.1698  0.3299  1.0328
12674TIP3    H159437   1.753   4.052  14.708  0.1841 -1.1748 -0.5710
12674TIP3    H259438   1.708   4.167  14.620 -0.1762 -0.5479  0.4283
12675TIP3   OH259439   2.515   4.653   0.201  0.5859  0.2251 -0.0519
12675TIP3    H159440   2.489   4.745   0.205 -0.7911 -0.1005 -1.2372
12675TIP3    H259441   2.466   4.611   0.271  1.3974  0.4358  0.6434
12676TIP3   OH259442   5.798   3.051   2.061  0.1155 -0.1590 -0.1415
12676TIP3    H159443   5.860   3.073   2.131  0.9651  0.2885 -1.0091
12676TIP3    H259444   5.753   2.973   2.092  0.0983  0.3496  1.1341
12677TIP3   OH259445   0.824   2.119   0.781 -0.0666  0.0137 -0.5619
12677TIP3    H159446   0.821   2.197   0.724  2.0510  0.3264 -0.2992
12677TIP3    H259447   0.917   2.105   0.796 -0.5725 -0.1243  2.7781
12678TIP3   OH259448   3.590   1.643   4.361  0.1798 -0.3224 -0.2951
12678TIP3    H159449   3.660   1.630   4.297  0.5280  1.2747 -0.2576
12678TIP3    H259450   3.614   1.586   4.434  1.6612  0.4971 -0.1174
12679TIP3   OH259451   3.366   5.488  12.387  0.5341  0.0627  0.3996
12679TIP3    H159452   3.389   5.453  12.473 -0.2776 -0.7658  0.2812
12679TIP3    H259453   3.364   5.412  12.329 -0.5439  0.3844 -0.0057
12680TIP3   OH259454   2.435   1.874  16.274 -0.4235  0.5683 -0.0040
12680TIP3    H159455   2.479   1.863  16.359  0.7681  0.4011 -0.6281
12680TIP3    H259456   2.377   1.948  16.286 -1.6689 -0.6163  1.5291
12681TIP3   OH259457   2.000   5.676  15.266 -0.0449 -0.3866 -0.0706
12681TIP3    H159458   2.087   5.704  15.236 -1.8279  0.0543 -5.2110
12681TIP3    H259459   1.988   5.590  15.226 -1.7569 -0.7623  1.1902
12682TIP3   OH259460   5.591   4.882  13.668  0.5293  0.3891  0.2199
12682TIP3    H159461   5.520   4.946  13.670 -1.2772 -1.5886  2.7197
12682TIP3    H259462   5.636   4.893  13.752 -1.6518 -3.5347  2.0085
12683TIP3   OH259463   6.365   0.455  15.425  0.2294  0.2377 -0.4945
12683TIP3    H159464   6.359   0.368  15.385  2.4543  0.7421 -2.0278
12683TIP3    H259465   6.311   0.511  15.370 -2.0659 -0.3517  1.1108
12684TIP3   OH259466   5.954   3.866   6.037 -0.5121 -0.1244 -0.1836
12684TIP3    H159467   5.925   3.792   5.984  0.6701 -1.3693  0.8656
12684TIP3    H259468   6.047   3.849   6.054 -0.7970  0.3406  2.0707
12685TIP3   OH259469   4.603   0.569  11.968 -0.5934 -0.8815  0.6742
12685TIP3    H159470   4.581   0.528  12.052  0.0221 -0.5926  0.9796
12685TIP3    H259471   4.520   0.607  11.938 -0.6261 -0.1703  1.6207
12686TIP3   OH259472   0.533   6.042  14.129 -0.0189  0.6379 -0.5491
12686TIP3    H159473   0.531   6.122  14.182  2.3987  0.7265 -0.5044
12686TIP3    H259474   0.564   6.070  14.043 -1.6352  0.1259 -1.3153
12687TIP3   OH259475   2.305   4.996  14.908 -0.0550 -0.1826 -0.1862
12687TIP3    H159476   2.305   5.087  14.879 -0.5474 -0.0228  0.3140
12687TIP3    H259477   2.384   4.958  14.869  0.7595  0.7473  0.5504
12688TIP3   OH259478   3.402   5.225   4.639 -0.0710 -0.1325 -0.1487
12688TIP3    H159479   3.430   5.301   4.588  1.4012 -1.4023 -1.2912
12688TIP3    H259480   3.425   5.246   4.729  2.1606 -0.0111 -0.7159
12689TIP3   OH259481   0.780   1.308  10.759  0.0685 -0.0888 -0.5961
12689TIP3    H159482   0.695   1.351  10.747 -0.4644 -1.0794 -0.4545
12689TIP3    H259483   0.798   1.266  10.675  0.7037  0.6089 -0.8119
12690TIP3   OH259484   2.529   0.650  17.182  0.7354  0.5169  0.0868
12690TIP3    H159485   2.625   0.655  17.181  0.7972 -0.5297 -1.3367
12690TIP3    H259486   2.510   0.561  17.210  0.1478  0.9064  0.9627
12691TIP3   OH259487   0.366   3.683   4.990  0.4571  1.0595 -0.5289
12691TIP3    H159488   0.313   3.603   4.979  1.2850  0.6316 -1.4207
12691TIP3    H259489   0.325   3.728   5.065 -0.5694  0.2523 -0.5881
12692TIP3   OH259490   1.085   5.569  14.304 -0.3469 -0.2003  0.6393
12692TIP3    H159491   1.053   5.531  14.386 -2.0388  2.1758  1.1263
12692TIP3    H259492   1.146   5.638  14.331  0.7400 -0.8206 -0.1714
12693TIP3   OH259493   2.163   0.505   0.004  0.1413  0.2659  0.0833
12693TIP3    H159494   2.101   0.574   0.027  0.6274  0.7480 -0.0507
12693TIP3    H259495   2.212   0.489   0.084  1.1369  1.2216 -0.3370
12694TIP3   OH259496   5.273   0.447   4.215 -0.1403  0.1839 -0.1899
12694TIP3    H159497   5.293   0.457   4.122  2.0634 -0.2554  0.2267
12694TIP3    H259498   5.358   0.446   4.259 -1.1607  0.5913  1.8648
12695TIP3   OH259499   0.514   0.693  16.292  0.8449 -0.1579 -0.7053
12695TIP3    H159500   0.531   0.623  16.228  0.1094 -0.9782 -0.0117
12695TIP3    H259501   0.545   0.658  16.375  0.2699  0.2590 -0.3135
12696TIP3   OH259502   1.928   0.717  12.514  0.6225 -0.1265 -0.3777
12696TIP3    H159503   1.889   0.732  12.601 -1.2803  0.7660 -1.3473
12696TIP3    H259504   1.873   0.649  12.475 -0.3859  1.6144 -2.0313
12697TIP3   OH259505   4.847   1.232  13.283  0.3803  0.1330 -0.3786
12697TIP3    H159506   4.918   1.175  13.253 -0.0238 -0.6561  0.1361
12697TIP3    H259507   4.771   1.206  13.231 -0.5141 -1.7633  1.7740
12698TIP3   OH259508   4.787   2.577  14.622  0.2160 -0.3758 -0.2288
12698TIP3    H159509   4.720   2.644  14.605  0.5673  0.0174 -0.0845
12698TIP3    H259510   4.803   2.582  14.716  0.6955 -0.2241 -0.3129
12699TIP3   OH259511   6.396   1.966  16.657  0.0410  0.3219  0.5031
12699TIP3    H159512   6.480   1.965  16.704  1.2359 -0.8834 -1.5624
12699TIP3    H259513   6.402   2.041  16.598 -0.7050  0.7652  0.9911
12700TIP3   OH259514   6.172   6.768  12.544  0.9935 -0.2021  0.1153
12700TIP3    H159515   6.126   6.690  12.575  0.1164  0.0670 -0.4896
12700TIP3    H259516   6.208   6.743  12.459  1.6774 -0.2927  0.4212
12701TIP3   OH259517   2.146   5.748   5.301 -0.0139  0.0217 -0.8619
12701TIP3    H159518   2.112   5.815   5.242 -0.1957  1.6913  1.0762
12701TIP3    H259519   2.179   5.797   5.377  2.6490 -1.8581 -0.7388
12702TIP3   OH259520   6.277   1.880   1.402 -0.7297  0.2941 -0.4827
12702TIP3    H159521   6.345   1.915   1.460 -1.1064  0.4513 -0.1315
12702TIP3    H259522   6.321   1.811   1.353  0.1169  1.5298 -1.4809
12703TIP3   OH259523   0.608   5.367  15.948 -0.2498  0.4670 -0.3962
12703TIP3    H159524   0.606   5.279  15.987  0.4972  0.3774 -0.5592
12703TIP3    H259525   0.696   5.375  15.912 -0.0120  1.6443  0.4389
12704TIP3   OH259526   4.493   5.841  11.511  0.5237 -0.0808  0.4644
12704TIP3    H159527   4.413   5.844  11.564  0.4442  2.2039  0.2938
12704TIP3    H259528   4.556   5.893  11.561  0.9074  0.8113 -0.9086
12705TIP3   OH259529   4.708   0.218  16.380 -0.1781 -0.1116 -0.1066
12705TIP3    H159530   4.735   0.174  16.300  0.6157 -0.0586  0.1293
12705TIP3    H259531   4.674   0.303  16.350  0.5197  0.0849 -0.3507
12706TIP3   OH259532   4.016   5.808  15.032 -0.2038  0.3769 -0.3539
12706TIP3    H159533   3.922   5.793  15.047 -0.4486  2.5379  0.5198
12706TIP3    H259534   4.019   5.891  14.984  1.3057  0.8365  0.5104
12707TIP3   OH259535   5.054   1.791   3.319 -0.0107  0.7277  0.1701
12707TIP3    H159536   5.005   1.843   3.383 -1.3217  0.5483 -0.6629
12707TIP3    H259537   5.035   1.833   3.235  0.0859 -0.2479 -0.3410
12708TIP3   OH259538   3.923   0.985   0.235  0.0093  0.2729  0.1547
12708TIP3    H159539   3.985   1.056   0.220 -1.9490  1.7145 -1.3770
12708TIP3    H259540   3.879   1.009   0.317 -0.1021  0.4092  0.0546
12709TIP3   OH259541   0.963   0.591   0.841  0.0990 -0.1945 -0.1262
12709TIP3    H159542   1.027   0.659   0.862 -0.0794  0.8270 -2.6195
12709TIP3    H259543   0.880   0.624   0.875  0.3477 -0.0395  0.3293
12710TIP3   OH259544   1.705   6.762   4.303 -0.2828 -0.7614  0.8301
12710TIP3    H159545   1.746   6.706   4.237 -1.9377 -1.2123  0.1401
12710TIP3    H259546   1.692   6.704   4.379 -3.2217 -1.7540 -0.3545
12711TIP3   OH259547   6.028   3.902  16.520  0.5709 -0.4446  0.3311
12711TIP3    H159548   5.996   3.899  16.430 -2.5219 -3.4285  1.4076
12711TIP3    H259549   6.101   3.840  16.522  0.7181 -0.2879 -0.1604
12712TIP3   OH259550   5.873   6.055  14.002 -0.0022  0.0820  0.3441
12712TIP3    H159551   5.844   6.135  13.958  0.7763  0.8116  1.1370
12712TIP3    H259552   5.940   6.019  13.943  0.6840  0.7973  0.6655
12713TIP3   OH259553   5.043   2.789  13.954  0.4942 -0.1016 -0.1529
12713TIP3    H159554   4.991   2.752  13.883  1.6799  1.5738 -1.9557
12713TIP3    H259555   5.125   2.817  13.912  1.4315  0.4490  1.9744
12714TIP3   OH259556   3.534   1.810  15.355 -0.1526  0.4386  0.5750
12714TIP3    H159557   3.584   1.731  15.375  0.7042  0.4929 -1.2397
12714TIP3    H259558   3.443   1.783  15.359  0.1563 -1.2571 -2.2349
12715TIP3   OH259559   1.259   4.133  11.822  0.1324  0.1965 -0.0765
12715TIP3    H159560   1.213   4.137  11.906 -1.6316  3.6775 -1.0797
12715TIP3    H259561   1.351   4.122  11.846 -0.4394  0.1709  2.2699
12716TIP3   OH259562   2.651   6.534   2.652 -0.1593  0.6388  0.4384
12716TIP3    H159563   2.563   6.555   2.620 -0.0695  0.0797 -0.1907
12716TIP3    H259564   2.685   6.617   2.686 -0.7055  0.9841  0.1425
12717TIP3   OH259565   6.422   3.679   4.960 -0.4723 -0.5882 -0.0115
12717TIP3    H159566   6.431   3.626   5.039  1.2524 -0.4037 -0.0663
12717TIP3    H259567   6.336   3.657   4.926 -0.7227 -1.5957  1.2470
12718TIP3   OH259568   1.798   4.015   3.939  0.4683 -0.5299 -0.0810
12718TIP3    H159569   1.855   4.015   3.862  0.6120 -2.2671  0.0048
12718TIP3    H259570   1.726   4.072   3.915  0.2732 -1.4193 -1.7030
12719TIP3   OH259571   0.367   4.276  14.745 -0.2302  0.2364 -0.2677
12719TIP3    H159572   0.289   4.279  14.689 -0.5009  0.5708  0.1213
12719TIP3    H259573   0.344   4.212  14.813  0.1799 -0.3303 -0.6506
12720TIP3   OH259574   4.812   0.985   3.871  0.6334  0.0884  1.1553
12720TIP3    H159575   4.806   1.079   3.885 -1.4464  0.1218  0.1185
12720TIP3    H259576   4.845   0.951   3.955  0.9095  1.6674  1.7027
12721TIP3   OH259577   3.734   1.316  11.552 -0.1519  0.0031 -0.2208
12721TIP3    H159578   3.805   1.380  11.554  1.0072 -1.2417 -0.7149
12721TIP3    H259579   3.674   1.345  11.621 -0.6020  2.6664 -1.6492
12722TIP3   OH259580   5.751   6.013   1.890  0.2956  0.5734 -0.9702
12722TIP3    H159581   5.836   5.996   1.929 -0.5043  0.8038  0.9422
12722TIP3    H259582   5.722   5.927   1.858  0.3995  0.1107  0.1377
12723TIP3   OH259583   4.882   0.326   1.598  0.2007 -0.0665  0.5028
12723TIP3    H159584   4.794   0.304   1.567  0.9628  0.7127 -2.3635
12723TIP3    H259585   4.907   0.253   1.654 -1.3348 -1.5075 -0.6482
12724TIP3   OH259586   2.636   5.207   2.478  0.5084  0.7771  0.2345
12724TIP3    H159587   2.607   5.207   2.387 -2.5255  1.2793  1.1690
12724TIP3    H259588   2.713   5.149   2.478  0.1348  0.2172 -2.4908
12725TIP3   OH259589   1.511   0.784  15.719 -1.0568  0.6466  0.1699
12725TIP3    H159590   1.592   0.745  15.751 -1.0410 -1.3492 -2.1881
12725TIP3    H259591   1.442   0.724  15.745 -1.7777  2.1510  1.8426
12726TIP3   OH259592   3.984   3.996   4.578 -0.9407 -0.2758  0.6108
12726TIP3    H159593   4.028   4.035   4.503 -1.3862 -0.5046  0.2252
12726TIP3    H259594   4.052   3.988   4.645 -0.9508  1.5850  0.8603
12727TIP3   OH259595   6.620   0.520  14.365 -0.5071 -0.0980 -0.8580
12727TIP3    H159596   6.633   0.538  14.458  0.0577 -0.1054 -0.9346
12727TIP3    H259597   6.529   0.491  14.359 -0.7728  0.6313 -0.4196
12728TIP3   OH259598   5.729   4.235   6.668  0.3080  0.0158  0.1104
12728TIP3    H159599   5.743   4.315   6.719 -1.3849  1.4355 -1.5715
12728TIP3    H259600   5.796   4.238   6.600 -0.0442  0.2630 -0.2307
12729TIP3   OH259601   4.155   0.664  13.059  0.4562  0.3545  0.3307
12729TIP3    H159602   4.201   0.688  12.979 -0.2441  1.6576  0.3081
12729TIP3    H259603   4.132   0.572  13.046  0.2518  0.5856 -1.0121
12730TIP3   OH259604   6.540   2.702  11.297 -0.0264 -0.0993  0.1104
12730TIP3    H159605   6.455   2.707  11.252  1.5835 -1.4714 -3.2265
12730TIP3    H259606   6.604   2.723  11.230  2.4679 -1.8713  1.8513
12731TIP3   OH259607   5.056   0.991   0.850  0.3196 -0.3613 -0.2767
12731TIP3    H159608   5.005   0.911   0.853  1.3341 -1.0555 -0.9826
12731TIP3    H259609   5.120   0.976   0.781  0.1614  1.2815 -0.7978
12732TIP3   OH259610   1.480   2.939   2.091  0.7321 -0.1204 -0.0920
12732TIP3    H159611   1.561   2.911   2.049  0.7779  0.8502 -0.6609
12732TIP3    H259612   1.495   3.031   2.113 -0.8589  0.5799 -1.8076
12733TIP3   OH259613   5.235   4.587  16.322 -0.1493  0.0984  0.1561
12733TIP3    H159614   5.266   4.632  16.400  1.0179 -1.0781  0.4002
12733TIP3    H259615   5.296   4.514  16.311  0.5446  1.0216 -2.6345
12734TIP3   OH259616   3.870   6.161   2.356 -0.4014 -0.0412  0.9204
12734TIP3    H159617   3.822   6.240   2.382  0.0621 -0.4448  3.1514
12734TIP3    H259618   3.845   6.096   2.422 -3.5971 -2.8842 -2.9015
12735TIP3   OH259619   1.058   4.675   6.785 -0.0849  0.1982 -0.0547
12735TIP3    H159620   1.133   4.634   6.828  0.1108  0.2764 -0.3181
12735TIP3    H259621   1.093   4.758   6.751  0.3771 -0.9183 -2.4345
12736TIP3   OH259622   4.787   6.508   0.877  0.3580 -0.2782  0.4281
12736TIP3    H159623   4.792   6.486   0.784  0.6844 -3.1751  1.0632
12736TIP3    H259624   4.873   6.483   0.912 -0.1069 -0.1799  1.6810
12737TIP3   OH259625   3.069   4.854   5.923  0.2869 -0.5624  0.4640
12737TIP3    H159626   3.136   4.849   5.991 -0.0042 -1.0464  0.7189
12737TIP3    H259627   3.119   4.866   5.842  0.5477  1.7171  0.9394
12738TIP3   OH259628   3.491   5.309  14.133  0.2282  0.6819 -0.1190
12738TIP3    H159629   3.406   5.293  14.175  0.9436  0.8823  1.4390
12738TIP3    H259630   3.472   5.307  14.039 -0.5460 -5.1678 -0.0628
12739TIP3   OH259631   6.490   0.753  15.679  0.0444 -0.5588 -0.1173
12739TIP3    H159632   6.526   0.775  15.593 -2.7938 -0.8906 -1.4448
12739TIP3    H259633   6.396   0.769  15.670 -0.3969 -1.3342  2.7070
12740TIP3   OH259634   4.195   5.574   2.553 -0.1268  0.3785  0.0104
12740TIP3    H159635   4.199   5.478   2.553 -2.1312  0.2783 -0.3431
12740TIP3    H259636   4.283   5.601   2.577  0.5122 -1.5566 -0.0429
12741TIP3   OH259637   4.458   2.877   5.302  0.8328 -0.1745  0.1226
12741TIP3    H159638   4.400   2.947   5.270  1.0924  0.1177  0.2863
12741TIP3    H259639   4.403   2.798   5.300  0.5525  0.0229 -0.1112
12742TIP3   OH259640   5.478   2.428   3.293  0.0093  0.0804 -0.1218
12742TIP3    H159641   5.567   2.448   3.262  0.0553 -3.1914 -2.3363
12742TIP3    H259642   5.490   2.356   3.354 -1.1835 -0.9985 -1.1383
12743TIP3   OH259643   0.672   4.739   5.034 -0.3483 -0.3150  0.2587
12743TIP3    H159644   0.740   4.787   5.082 -1.2136 -1.2955  2.5326
12743TIP3    H259645   0.715   4.658   5.006 -0.2479 -0.4135  0.6921
12744TIP3   OH259646   5.910   2.620   0.011 -0.4648  0.5895  0.6014
12744TIP3    H159647   5.861   2.543   0.043 -0.9254 -0.4039 -2.3688
12744TIP3    H259648   5.860   2.694   0.045 -2.4048 -0.4201  0.0663
12745TIP3   OH259649   4.583   0.148   6.305 -0.2788 -0.1686 -0.2600
12745TIP3    H159650   4.517   0.217   6.304  1.3332  1.4172 -0.3115
12745TIP3    H259651   4.667   0.195   6.308  0.9378 -2.0710 -2.7746
12746TIP3   OH259652   5.715   6.390  16.821 -0.2788  0.1021  0.1106
12746TIP3    H159653   5.726   6.477  16.860 -1.8616  0.3306  0.0909
12746TIP3    H259654   5.790   6.380  16.763 -0.0135  1.4022  0.2196
12747TIP3   OH259655   6.747   4.316  16.077 -0.6678  0.2033  0.0130
12747TIP3    H159656   6.677   4.251  16.078 -0.1351 -0.3650  0.8003
12747TIP3    H259657   6.795   4.301  16.158  1.0649 -0.1764 -1.0550
12748TIP3   OH259658   4.425   5.197   0.003 -0.1496  0.5959 -0.0372
12748TIP3    H159659   4.473   5.279   0.009  2.2389 -0.8209  0.7767
12748TIP3    H259660   4.492   5.131  -0.012 -2.0396 -1.2137 -0.7089
12749TIP3   OH259661   2.243   2.653  16.726 -0.0273  0.0261  0.1256
12749TIP3    H159662   2.290   2.694  16.654  1.5018 -0.8611  0.5934
12749TIP3    H259663   2.169   2.609  16.684  0.7273 -0.2995 -0.8810
12750TIP3   OH259664   2.596   4.793  14.020  0.6001  0.0763  0.2560
12750TIP3    H159665   2.582   4.735  14.095  0.8693 -0.2232  0.0756
12750TIP3    H259666   2.644   4.867  14.056  0.5490  0.0310  0.4201
12751TIP3   OH259667   4.720   0.339  16.922 -0.1217  0.4388  0.4264
12751TIP3    H159668   4.746   0.428  16.946 -1.3526  1.1875 -0.9414
12751TIP3    H259669   4.643   0.350  16.867  0.3912 -1.4272 -0.7300
12752TIP3   OH259670   6.266   2.125  12.510  0.5960  0.1006 -0.5682
12752TIP3    H159671   6.310   2.164  12.585  0.6614 -0.4305 -0.3330
12752TIP3    H259672   6.270   2.031  12.525 -1.5063  0.0591 -0.0277
12753TIP3   OH259673   2.425   3.494   3.302 -0.0256  0.1184 -0.4783
12753TIP3    H159674   2.401   3.580   3.266  0.6324  1.3163  1.8890
12753TIP3    H259675   2.359   3.476   3.368 -0.1714 -1.2414 -0.9751
12754TIP3   OH259676   1.145   3.332   5.453  0.1263 -0.4291  0.0921
12754TIP3    H159677   1.057   3.295   5.457  0.4668 -1.0499  2.4769
12754TIP3    H259678   1.203   3.261   5.482  1.5021 -0.2113 -1.9758
12755TIP3   OH259679   4.275   2.127  14.926  0.2244  0.0481  0.2363
12755TIP3    H159680   4.261   2.222  14.931  1.6986  0.2953 -0.0130
12755TIP3    H259681   4.214   2.098  14.859  2.0402  1.3614 -2.1005
12756TIP3   OH259682   4.613   3.499  11.225 -0.0343 -0.3508  0.1627
12756TIP3    H159683   4.700   3.516  11.261 -1.5577  1.6550  3.0549
12756TIP3    H259684   4.609   3.403  11.219  1.3339 -0.6044  2.6481
12757TIP3   OH259685   2.928   5.405   5.026 -0.2921  0.2176  0.3181
12757TIP3    H159686   2.957   5.476   5.084 -0.7949 -0.6930  1.7248
12757TIP3    H259687   2.866   5.447   4.966  1.2935  1.4558 -0.4736
12758TIP3   OH259688   5.315   1.518   4.601  0.4038  0.0319  0.8513
12758TIP3    H159689   5.348   1.556   4.682  1.0150 -1.9024  1.5385
12758TIP3    H259690   5.231   1.480   4.626  1.0516 -1.4344  0.8113
12759TIP3   OH259691   5.905   4.161   1.888  0.7860 -0.2672  0.0898
12759TIP3    H159692   5.872   4.073   1.872  0.8652  0.1132 -2.2561
12759TIP3    H259693   5.935   4.159   1.979  0.5198 -2.5597  0.1550
12760TIP3   OH259694   0.677   1.774  15.038  0.0535  0.0673 -0.2699
12760TIP3    H159695   0.691   1.682  15.014  1.7157  0.7404 -1.9601
12760TIP3    H259696   0.724   1.785  15.120  0.4419 -0.4020 -0.4277
12761TIP3   OH259697   4.885   1.694   2.429 -0.2864  0.2622  0.0839
12761TIP3    H159698   4.793   1.684   2.454  0.5894 -1.2480  2.8904
12761TIP3    H259699   4.911   1.779   2.466 -0.1487 -0.0179  0.6374
12762TIP3   OH259700   4.397   2.617  14.972 -0.0628 -0.2413 -0.0243
12762TIP3    H159701   4.475   2.569  15.002 -0.8469 -0.5807  1.5265
12762TIP3    H259702   4.431   2.681  14.910  1.3570 -0.9211  0.0280
12763TIP3   OH259703   1.391   2.145   2.878 -0.1086 -0.7196  0.0326
12763TIP3    H159704   1.455   2.148   2.948  0.1153 -1.5588 -0.1306
12763TIP3    H259705   1.326   2.081   2.907 -1.0498  0.3496  0.3404
12764TIP3   OH259706   6.336   0.708  14.747 -0.1902 -0.2346  0.2896
12764TIP3    H159707   6.383   0.652  14.809  0.1443 -1.4446 -1.0265
12764TIP3    H259708   6.244   0.685  14.759 -0.0307 -1.2885 -0.4459
12765TIP3   OH259709   0.256   5.284   5.497 -0.0526  0.6929  0.8216
12765TIP3    H159710   0.282   5.305   5.408 -0.2383 -0.0513  0.5882
12765TIP3    H259711   0.220   5.195   5.491 -0.4526  0.8030  1.5561
12766TIP3   OH259712   4.258   2.946   2.209  0.0026  0.0005  0.4625
12766TIP3    H159713   4.184   2.974   2.154  0.6592  2.3400  0.6932
12766TIP3    H259714   4.322   2.912   2.147 -1.3093 -2.2062  0.2708
12767TIP3   OH259715   4.614   2.482  14.142 -0.2595 -0.2185 -0.0440
12767TIP3    H159716   4.540   2.494  14.082 -1.7672  1.5497  2.0923
12767TIP3    H259717   4.660   2.566  14.141  1.1347 -0.9839 -0.5809
12768TIP3   OH259718   3.828   2.082   6.483 -0.0199  0.4980 -0.2409
12768TIP3    H159719   3.906   2.028   6.501 -0.3240  0.6002  1.4773
12768TIP3    H259720   3.755   2.027   6.511 -0.6173  0.1679 -2.4119
12769TIP3   OH259721   1.050   2.080   5.505  0.0057 -0.0973  0.1414
12769TIP3    H159722   1.143   2.089   5.524 -0.0625 -0.2720  0.5728
12769TIP3    H259723   1.007   2.105   5.588 -0.2833 -1.6177  0.4523
12770TIP3   OH259724   3.803   3.404   0.754  0.1511 -0.1956 -0.3430
12770TIP3    H159725   3.767   3.481   0.711 -0.1897 -0.3289 -0.2995
12770TIP3    H259726   3.772   3.409   0.844  1.4532  0.4523  0.0759
12771TIP3   OH259727   5.001   4.349  14.433 -0.2056 -0.3783 -0.2887
12771TIP3    H159728   5.065   4.280  14.443 -1.0262 -1.3069 -1.3371
12771TIP3    H259729   4.959   4.356  14.519  1.1984  0.1580  0.3665
12772TIP3   OH259730   1.541   5.613   1.416 -0.1297  1.0293 -0.4826
12772TIP3    H159731   1.637   5.621   1.422 -0.1017  1.5288 -1.4657
12772TIP3    H259732   1.514   5.582   1.503  0.7104  2.9812  0.5120
12773TIP3   OH259733   0.589   4.524   0.694 -0.0366  0.0699 -0.5469
12773TIP3    H159734   0.571   4.615   0.674  0.5661  0.3018 -0.0586
12773TIP3    H259735   0.509   4.477   0.670 -0.8107  0.9019  0.3751
12774TIP3   OH259736   5.159   3.744   2.536  0.0535 -0.3448 -0.4753
12774TIP3    H159737   5.095   3.776   2.599 -1.8267  0.4835 -2.7060
12774TIP3    H259738   5.204   3.823   2.506 -0.9523 -0.3853 -2.1435
12775TIP3   OH259739   3.158   5.541  13.141  0.0696 -0.4936 -0.1286
12775TIP3    H159740   3.101   5.555  13.066 -1.2657  1.2620  1.1855
12775TIP3    H259741   3.204   5.624  13.152  1.4263 -1.2527  0.0412
12776TIP3   OH259742   6.044   1.911  13.351 -0.1993  0.3922  0.1824
12776TIP3    H159743   6.041   1.910  13.446  1.8542 -1.4195  0.2583
12776TIP3    H259744   5.967   1.861  13.324 -0.6109  0.6388  0.8921
12777TIP3   OH259745   4.104   1.899  14.640 -0.0661  0.0099 -0.0332
12777TIP3    H159746   4.112   1.807  14.668  0.7056 -0.5004 -1.8536
12777TIP3    H259747   4.029   1.900  14.581 -0.7414  0.7781  0.8243
12778TIP3   OH259748   0.972   4.092   4.295 -1.0938 -0.1591  0.1580
12778TIP3    H159749   0.895   4.082   4.240 -0.9316  0.1114 -0.1204
12778TIP3    H259750   1.013   4.173   4.264 -1.6302  0.6235  1.4435
12779TIP3   OH259751   1.905   5.945  13.863 -0.0361 -0.3291 -0.1870
12779TIP3    H159752   1.816   5.967  13.892 -0.0123 -0.2625 -0.1664
12779TIP3    H259753   1.939   5.889  13.933  1.2066  2.4476  1.5380
12780TIP3   OH259754   0.879   5.176  16.662  0.0034 -0.0246 -0.5151
12780TIP3    H159755   0.861   5.134  16.746  2.0345  2.5718  1.3040
12780TIP3    H259756   0.968   5.148  16.640 -0.1085  0.1910 -1.2291
12781TIP3   OH259757   1.282   6.418  13.413 -0.1149 -0.2276  0.6834
12781TIP3    H159758   1.374   6.402  13.394 -0.5374 -1.2380 -0.5642
12781TIP3    H259759   1.260   6.496  13.361 -0.3315 -0.8526 -0.1775
12782TIP3   OH259760   2.943   0.610   5.393 -0.0483  0.3337 -0.0009
12782TIP3    H159761   2.925   0.638   5.303 -1.3208 -0.4425 -0.0042
12782TIP3    H259762   2.936   0.690   5.445 -0.6148  0.5572 -0.4163
12783TIP3   OH259763   1.473   3.843  11.455 -0.5697 -0.2083 -0.0665
12783TIP3    H159764   1.552   3.890  11.430 -0.5588 -0.3937 -0.3789
12783TIP3    H259765   1.429   3.822  11.373 -0.2062 -1.3711  0.0239
12784TIP3   OH259766   6.679   2.656   5.786  0.0885  0.0966  0.3736
12784TIP3    H159767   6.731   2.644   5.707  1.3535  1.3399  1.0079
12784TIP3    H259768   6.729   2.612   5.855 -0.4689 -0.0393  0.6994
12785TIP3   OH259769   3.670   3.440   0.087  0.0105  0.2724  0.4936
12785TIP3    H159770   3.630   3.378   0.026 -1.1605  1.4008  0.0957
12785TIP3    H259771   3.722   3.498   0.031  0.8870 -0.1765  0.8350
12786TIP3   OH259772   3.719   3.570  14.085 -0.7386  0.2274  0.0332
12786TIP3    H159773   3.672   3.556  14.002  0.6526 -1.3673 -0.5106
12786TIP3    H259774   3.687   3.654  14.116 -0.1517  1.6199 -2.9184
12787TIP3   OH259775   1.605   0.292  11.466 -0.2438 -0.3744  0.2975
12787TIP3    H159776   1.692   0.309  11.430  0.1540 -3.2452 -0.2374
12787TIP3    H259777   1.620   0.268  11.557 -0.4739 -0.7082  0.2518
12788TIP3   OH259778   5.928   1.271   0.138 -0.2623  0.1385 -0.1186
12788TIP3    H159779   5.897   1.359   0.114  0.1132  0.3189  0.0573
12788TIP3    H259780   6.021   1.282   0.156 -0.5353  0.0090  1.4347
12789TIP3   OH259781   3.136   5.481   2.912 -0.1727  0.2765  0.1311
12789TIP3    H159782   3.124   5.518   2.999  1.2154 -0.1262  0.5058
12789TIP3    H259783   3.048   5.468   2.879 -0.7009  0.9771  1.2490
12790TIP3   OH259784   4.821   4.645   0.712  0.2657  0.0952 -0.5109
12790TIP3    H159785   4.847   4.718   0.656 -2.1482  0.6512 -0.9672
12790TIP3    H259786   4.888   4.579   0.697  0.6210  0.8952 -2.7391
12791TIP3   OH259787   1.316   4.462  16.137  0.3167  0.1994 -0.0087
12791TIP3    H159788   1.299   4.481  16.229 -0.3221 -0.5983  0.0484
12791TIP3    H259789   1.410   4.441  16.133 -0.2156 -2.6795  1.0027
12792TIP3   OH259790   0.888   1.351   4.052 -0.1328  0.0152  0.3358
12792TIP3    H159791   0.880   1.277   4.112  0.2719 -1.1349 -1.0120
12792TIP3    H259792   0.982   1.358   4.035 -0.2224  0.4816  0.0107
12793TIP3   OH259793   0.190   4.804   6.627 -0.5160 -0.7409 -0.3604
12793TIP3    H159794   0.141   4.852   6.560 -0.3902 -1.2469 -0.8153
12793TIP3    H259795   0.279   4.839   6.622 -1.6064  2.8653  2.9838
12794TIP3   OH259796   2.070   6.311   2.592  0.1470 -0.3232 -0.3364
12794TIP3    H159797   2.123   6.231   2.592 -0.2139 -0.5762 -1.6788
12794TIP3    H259798   2.021   6.307   2.511 -0.2579  1.0260 -0.1707
12795TIP3   OH259799   6.264   3.360  13.877  0.5784 -0.3560  0.1271
12795TIP3    H159800   6.260   3.442  13.828  1.5802 -0.3266  0.0692
12795TIP3    H259801   6.290   3.295  13.811  0.2746 -0.6240  0.2729
12796TIP3   OH259802   5.451   2.546  16.296  0.3462  0.1012 -0.2156
12796TIP3    H159803   5.483   2.457  16.284 -0.4063 -0.3110  0.7244
12796TIP3    H259804   5.415   2.571  16.211  0.3632 -0.5745 -0.4200
12797TIP3   OH259805   0.444   2.869   4.151  0.3513 -1.1137 -0.4673
12797TIP3    H159806   0.525   2.909   4.185  0.9664 -1.9165 -0.9889
12797TIP3    H259807   0.452   2.876   4.056  0.4563 -2.4588 -0.5667
12798TIP3   OH259808   6.768   5.072  14.751 -0.0307 -0.3435  0.6352
12798TIP3    H159809   6.819   5.003  14.793 -0.4149 -0.2880  1.2041
12798TIP3    H259810   6.699   5.093  14.815 -0.2616  0.1579  0.2250
12799TIP3   OH259811   5.363   1.621  17.087 -0.2338 -0.1622  0.2301
12799TIP3    H159812   5.284   1.585  17.128 -0.6619  0.9333  0.3982
12799TIP3    H259813   5.333   1.656  17.003  0.3997 -1.2508 -0.4565
12800TIP3   OH259814   6.338   4.841  15.692  0.5953 -0.0339 -0.2026
12800TIP3    H159815   6.253   4.821  15.731  0.8446 -0.7189  0.0144
12800TIP3    H259816   6.345   4.780  15.618  1.2045 -0.4824  0.2233
12801TIP3   OH259817   0.545   0.497   1.533 -0.2001  0.4275 -0.1889
12801TIP3    H159818   0.489   0.494   1.610 -1.3206  0.2146 -1.0009
12801TIP3    H259819   0.631   0.467   1.565 -0.0992  2.2977  1.4016
12802TIP3   OH259820   2.096   5.363   0.462 -0.9373  0.0645 -0.1758
12802TIP3    H159821   2.054   5.441   0.497 -1.4776 -0.1432 -0.3568
12802TIP3    H259822   2.169   5.396   0.409 -1.0484  0.4362 -0.0943
12803TIP3   OH259823   6.035   0.822   2.886 -0.1212  0.2879 -0.9579
12803TIP3    H159824   5.978   0.752   2.854  0.4289 -0.1914 -0.8975
12803TIP3    H259825   5.996   0.903   2.852 -2.6718  0.2689  1.7412
12804TIP3   OH259826   4.328   3.224  16.824 -0.2241  0.0942 -0.3096
12804TIP3    H159827   4.335   3.162  16.752  2.5043 -3.6570  2.9764
12804TIP3    H259828   4.367   3.305  16.790  2.6184 -2.1026 -2.5749
12805TIP3   OH259829   6.636   6.395  16.677  0.1747 -0.0737  0.5023
12805TIP3    H159830   6.716   6.421  16.723 -0.6002  3.1145  0.1792
12805TIP3    H259831   6.571   6.386  16.747 -0.4236  2.4442  0.2995
12806TIP3   OH259832   2.297   4.797  11.440 -0.7637  0.1433 -0.6438
12806TIP3    H159833   2.258   4.844  11.514 -0.1089 -1.1015  0.5242
12806TIP3    H259834   2.360   4.858  11.403  0.5230  0.0156  1.2413
12807TIP3   OH259835   2.329   5.710   2.829  0.3144 -0.5423  0.0229
12807TIP3    H159836   2.319   5.798   2.866 -0.6860 -0.3274 -0.7429
12807TIP3    H259837   2.406   5.675   2.873  0.7360  0.7230  0.3399
12808TIP3   OH259838   6.398   0.692   5.736  1.0256  0.2975 -0.5656
12808TIP3    H159839   6.436   0.613   5.774  0.0749  0.1708  0.1477
12808TIP3    H259840   6.473   0.749   5.719  1.6122 -0.2908  0.0141
12809TIP3   OH259841   0.375   0.459   2.055  0.3947  0.4859  0.1899
12809TIP3    H159842   0.412   0.542   2.027  3.7404 -0.6390  1.0216
12809TIP3    H259843   0.364   0.409   1.974 -1.2564  1.5460 -0.2653
12810TIP3   OH259844   6.027   2.859  13.643  0.2655  0.3829 -0.1465
12810TIP3    H159845   6.065   2.804  13.575  1.6575  1.3093 -0.1313
12810TIP3    H259846   6.098   2.918  13.669 -0.2946  0.1937  1.9517
12811TIP3   OH259847   6.556   6.353  16.076  0.0801  0.5816 -0.2110
12811TIP3    H159848   6.525   6.267  16.102 -1.1565  1.5701  1.6828
12811TIP3    H259849   6.503   6.376  16.000  0.5887 -0.4203 -0.8743
12812TIP3   OH259850   3.072   1.928  14.426  0.2650 -0.1056  0.9186
12812TIP3    H159851   3.074   1.980  14.506  0.1006  0.9708  0.2349
12812TIP3    H259852   3.129   1.975  14.365  0.4044 -0.9242  0.4039
12813TIP3   OH259853   3.296   6.251   5.193  0.5645  0.4423 -0.4401
12813TIP3    H159854   3.225   6.270   5.255  0.9269  0.3388  0.0089
12813TIP3    H259855   3.251   6.238   5.109 -0.0354 -0.4708  0.0046
12814TIP3   OH259856   2.676   4.511  13.607 -0.0925  0.5522 -0.5757
12814TIP3    H159857   2.675   4.595  13.652  1.0679  0.7371 -0.8634
12814TIP3    H259858   2.602   4.515  13.546 -0.2284  1.2366 -0.3702
12815TIP3   OH259859   5.301   0.463   1.086 -0.3059 -0.1390  0.2028
12815TIP3    H159860   5.283   0.452   0.993 -0.9827  0.6453  0.2383
12815TIP3    H259861   5.329   0.377   1.116 -1.9888 -0.8626 -0.2929
12816TIP3   OH259862   2.115   4.275   5.777  0.2478 -0.6003 -0.0332
12816TIP3    H159863   2.182   4.340   5.756 -0.1647 -0.8915 -2.3979
12816TIP3    H259864   2.152   4.224   5.849  2.2797 -0.3006 -0.8388
12817TIP3   OH259865   2.723   2.634   5.745 -0.6014 -0.0792 -0.2381
12817TIP3    H159866   2.765   2.606   5.826  0.7204 -1.0313 -1.2264
12817TIP3    H259867   2.646   2.578   5.738  0.0961 -1.0458 -0.3836
12818TIP3   OH259868   6.539   4.016   6.474 -0.7748 -0.1849 -0.5610
12818TIP3    H159869   6.451   4.000   6.440 -1.6688 -0.1679  1.6356
12818TIP3    H259870   6.544   4.111   6.483 -0.0258 -0.0896 -1.9657
12819TIP3   OH259871   1.257   2.165   1.059 -0.4795  0.3748  0.2153
12819TIP3    H159872   1.167   2.159   1.091 -0.3644  0.2518  0.5165
12819TIP3    H259873   1.251   2.217   0.979 -1.1029 -1.3465 -0.8665
12820TIP3   OH259874   3.250   6.647   1.108 -0.1575  0.0772 -0.0705
12820TIP3    H159875   3.173   6.591   1.113 -0.1671  0.0839 -0.1500
12820TIP3    H259876   3.317   6.601   1.159 -0.4540  0.4664  0.6832
12821TIP3   OH259877   6.733   5.530   1.426 -0.1338 -0.0757 -0.3551
12821TIP3    H159878   6.757   5.438   1.436  0.9214  0.2759  0.3592
12821TIP3    H259879   6.637   5.529   1.424 -0.1425 -1.1332  0.1431
12822TIP3   OH259880   2.667   0.253  17.209 -0.6461  0.4388 -0.2788
12822TIP3    H159881   2.721   0.260  17.131  0.4116  1.2208  0.5123
12822TIP3    H259882   2.637   0.162  17.209 -1.2195  0.6191 -1.9492
12823TIP3   OH259883   3.484   2.885   2.587  0.2838 -0.1257  0.7551
12823TIP3    H159884   3.551   2.953   2.600 -1.2746  1.5284  0.2225
12823TIP3    H259885   3.490   2.862   2.494  1.2771 -1.2491  1.0777
12824TIP3   OH259886   6.214   0.966  11.755 -0.0308 -0.5402 -0.1223
12824TIP3    H159887   6.240   0.984  11.845 -1.7052 -1.1955  0.5237
12824TIP3    H259888   6.122   0.939  11.762  0.1790 -1.8068 -1.8797
12825TIP3   OH259889   6.628   2.181  11.979 -0.2887 -0.4064 -0.3119
12825TIP3    H159890   6.657   2.218  12.063  0.1192  0.5789 -0.8854
12825TIP3    H259891   6.545   2.224  11.962  0.8143  1.2573 -1.6285
12826TIP3   OH259892   1.063   2.576  14.965  0.6045  0.2487 -0.2267
12826TIP3    H159893   0.999   2.632  15.010  0.4117 -1.2000  1.3243
12826TIP3    H259894   1.052   2.598  14.873 -1.8015  0.3704  0.0604
12827TIP3   OH259895   0.848   4.612  13.933 -0.2144  0.3213  0.2459
12827TIP3    H159896   0.839   4.527  13.891  2.1182  0.3680 -0.4382
12827TIP3    H259897   0.823   4.675  13.865  0.4813  0.2684 -0.0651
12828TIP3   OH259898   0.060   2.688   1.632  0.6269  1.0355  0.5746
12828TIP3    H159899   0.070   2.635   1.711  1.1227 -0.8295 -0.7146
12828TIP3    H259900   0.114   2.766   1.649 -1.6428  2.0929  3.2604
12829TIP3   OH259901   2.256   0.309  11.065 -0.1819 -0.0851  0.1449
12829TIP3    H159902   2.239   0.304  10.971 -0.5872  2.5843  0.0149
12829TIP3    H259903   2.323   0.378  11.073  0.4638 -0.8792  1.7420
12830TIP3   OH259904   2.367   2.236   5.477 -0.5341 -0.7022  0.3259
12830TIP3    H159905   2.360   2.186   5.558 -3.1442 -1.9105 -0.5798
12830TIP3    H259906   2.313   2.314   5.492 -0.3693 -0.5326  0.0433
12831TIP3   OH259907   2.633   2.066   0.168  0.6242  0.1785 -0.5224
12831TIP3    H159908   2.670   2.110   0.244 -0.4437  0.4775 -0.1634
12831TIP3    H259909   2.568   2.128   0.134  0.7304 -0.1712 -1.3693
12832TIP3   OH259910   5.520   0.017   0.314 -0.3910  0.1561 -0.6751
12832TIP3    H159911   5.486   0.044   0.229  1.9363 -0.6441 -1.9133
12832TIP3    H259912   5.543   0.099   0.358 -3.6775  0.7188  0.1747
12833TIP3   OH259913   2.423   1.184   2.510  0.0116 -0.1309  0.4510
12833TIP3    H159914   2.339   1.140   2.518 -0.4718  0.7322  0.1663
12833TIP3    H259915   2.457   1.188   2.599  0.3104 -1.5379  0.4198
12834TIP3   OH259916   5.155   0.011   1.544  0.8339 -0.2010 -0.8775
12834TIP3    H159917   5.130   0.086   1.598 -0.7438 -1.1891 -0.1893
12834TIP3    H259918   5.193  -0.052   1.605  1.1380 -0.4058 -1.2705
12835TIP3   OH259919   0.563   0.937   4.333 -0.1449  0.1774 -0.4977
12835TIP3    H159920   0.624   1.004   4.364  0.8469 -0.5523 -0.8240
12835TIP3    H259921   0.480   0.983   4.321  0.8913  1.6631 -2.1245
12836TIP3   OH259922   3.220   6.441  11.481 -0.3088  0.2761 -0.1692
12836TIP3    H159923   3.226   6.525  11.526  2.0382 -0.4676  1.0055
12836TIP3    H259924   3.299   6.437  11.428 -0.6707 -0.9641 -0.6218
12837TIP3   OH259925   2.783   3.901  13.076  0.1562  0.0446  0.2378
12837TIP3    H159926   2.844   3.865  13.141  0.1967  1.0178  0.7454
12837TIP3    H259927   2.839   3.934  13.006  0.2042  0.6460  0.5550
12838TIP3   OH259928   1.464   5.181  15.688 -0.2842  0.0091  0.2163
12838TIP3    H159929   1.413   5.225  15.619 -0.3240 -1.1414 -0.5008
12838TIP3    H259930   1.403   5.175  15.762 -1.3140 -1.6042 -0.7306
12839TIP3   OH259931   4.160   2.322  15.263  0.1702 -0.0226  0.1072
12839TIP3    H159932   4.129   2.236  15.234 -0.4589 -0.3495  1.6916
12839TIP3    H259933   4.212   2.304  15.341  1.0275  0.9241 -0.2447
12840TIP3   OH259934   6.379   5.444   2.320 -0.2378  0.0063 -0.1111
12840TIP3    H159935   6.297   5.401   2.348  0.4132 -0.9719  0.3406
12840TIP3    H259936   6.447   5.381   2.344  0.7165  1.1789  0.2610
12841TIP3   OH259937   3.395   3.428  16.810 -0.8260  0.2109 -0.0913
12841TIP3    H159938   3.369   3.372  16.883  0.9657 -0.5650 -0.0125
12841TIP3    H259939   3.316   3.438  16.757 -2.2130  0.9691  2.0556
12842TIP3   OH259940   1.819   3.864   5.628 -0.2724  0.4676 -0.0419
12842TIP3    H159941   1.771   3.880   5.546  0.6524 -3.7172 -1.5369
12842TIP3    H259942   1.778   3.786   5.664  2.0498 -0.1288  1.3726
12843TIP3   OH259943   1.980   3.349  14.075 -0.2746 -0.4103  0.4217
12843TIP3    H159944   1.994   3.399  14.156  2.2002  0.6470 -0.6072
12843TIP3    H259945   1.922   3.405  14.023 -1.0916 -0.6556  1.0471
12844TIP3   OH259946   4.255   5.483  13.624  0.5854  0.5760 -0.3856
12844TIP3    H159947   4.282   5.406  13.673  1.8204  1.9216  1.1163
12844TIP3    H259948   4.160   5.477  13.620  0.6386 -0.7497  0.1725
12845TIP3   OH259949   2.172   1.094  13.615 -0.0977 -0.0792  0.1906
12845TIP3    H159950   2.144   1.172  13.663  1.1610  1.6460 -1.7999
12845TIP3    H259951   2.098   1.033  13.622 -0.5615  0.7456  2.8983
12846TIP3   OH259952   5.885   5.583  15.543  0.1852  0.0417 -0.3502
12846TIP3    H159953   5.918   5.505  15.588  1.2729 -0.3414 -1.7895
12846TIP3    H259954   5.860   5.642  15.614  0.6890 -1.0478  0.7590
12847TIP3   OH259955   6.547   0.990  14.910  0.2552 -0.1706 -0.2162
12847TIP3    H159956   6.479   0.961  14.849  0.2876 -0.1995 -0.2377
12847TIP3    H259957   6.619   1.018  14.855  0.6048 -0.9718 -0.1705
12848TIP3   OH259958   6.319   4.091   1.977  0.0805 -0.1619 -0.2385
12848TIP3    H159959   6.369   4.046   1.909 -1.5891  0.3970 -1.9105
12848TIP3    H259960   6.262   4.151   1.928 -2.5983 -1.1682  1.5274
12849TIP3   OH259961   5.311   2.858   4.402 -0.0192 -0.1458  0.1297
12849TIP3    H159962   5.367   2.933   4.383 -2.0303  1.4282  0.2494
12849TIP3    H259963   5.366   2.800   4.454  2.2666  0.2292 -1.7751
12850TIP3   OH259964   4.520   4.867   1.075  0.3445  0.3990 -0.2834
12850TIP3    H159965   4.611   4.840   1.090  0.5656  0.7192 -0.9742
12850TIP3    H259966   4.528   4.954   1.035 -0.3172  1.0392  0.9533
12851TIP3   OH259967   2.220   5.996   2.140 -0.0984 -0.3842  0.6342
12851TIP3    H159968   2.307   6.028   2.165  0.1152 -1.9023  1.8581
12851TIP3    H259969   2.163   6.019   2.213 -0.8802  1.1275 -0.4125
12852TIP3   OH259970   6.665   3.789   3.488  0.7542  0.0964  0.1668
12852TIP3    H159971   6.621   3.794   3.573  0.2399  0.1526 -0.0991
12852TIP3    H259972   6.701   3.876   3.474  2.1672 -0.3297  1.0245
12853TIP3   OH259973   5.171   0.477  16.608 -0.0720 -0.7039  0.1517
12853TIP3    H159974   5.152   0.465  16.701  1.9288  1.2195  0.8725
12853TIP3    H259975   5.120   0.410  16.563 -1.5512 -1.2562  2.5881
12854TIP3   OH259976   6.764   5.970  14.078 -0.2599 -0.1099  0.3098
12854TIP3    H159977   6.741   5.953  14.169  0.9195 -0.7709  0.4986
12854TIP3    H259978   6.860   5.970  14.077 -0.2607  0.1826 -0.8807
12855TIP3   OH259979   2.622   5.285   0.279 -0.0650  0.1346 -0.2059
12855TIP3    H159980   2.716   5.303   0.277 -0.1807  0.7284 -0.3206
12855TIP3    H259981   2.616   5.191   0.297  0.5340  0.2789  0.7836
12856TIP3   OH259982   4.052   3.899  15.201 -0.3605 -0.7387 -0.4132
12856TIP3    H159983   4.068   3.822  15.146  0.8881 -0.7182 -0.0918
12856TIP3    H259984   4.132   3.951  15.194 -0.3773 -0.4965  1.0119
12857TIP3   OH259985   4.780   2.826   1.741 -0.5192  0.1468 -0.1896
12857TIP3    H159986   4.835   2.835   1.819  0.5697  1.0527 -1.0489
12857TIP3    H259987   4.732   2.909   1.735 -0.8628 -0.0566 -0.2930
12858TIP3   OH259988   6.786   3.731   6.184 -0.5348  0.8979  0.3723
12858TIP3    H159989   6.838   3.799   6.143 -2.6833  1.4257 -1.6125
12858TIP3    H259990   6.725   3.778   6.241 -0.3874  0.4646  0.8924
12859TIP3   OH259991   3.601   4.845  16.521 -0.0450  0.4741 -0.2520
12859TIP3    H159992   3.546   4.789  16.467 -0.5600 -0.3050  1.0558
12859TIP3    H259993   3.594   4.932  16.481 -1.8626  0.2884 -0.3505
12860TIP3   OH259994   5.048   2.554  14.530 -0.1258 -0.1038 -0.6487
12860TIP3    H159995   4.952   2.553  14.529 -0.1256 -1.2654  0.0891
12860TIP3    H259996   5.071   2.595  14.613  0.0116 -0.7807 -0.3498
12861TIP3   OH259997   2.296   1.902   3.387  0.1232 -0.5403 -0.3184
12861TIP3    H159998   2.259   1.962   3.451 -2.2428 -0.8413 -1.3591
12861TIP3    H259999   2.283   1.815   3.425  0.1229 -0.6340 -0.5343
12862TIP3   OH260000   6.668   4.633  13.955 -0.0465 -0.0109  0.3141
12862TIP3    H160001   6.575   4.654  13.942 -0.7148  0.4168  4.9921
12862TIP3    H260002   6.668   4.572  14.029  3.3824 -0.3908  0.0605
12863TIP3   OH260003   1.071   6.527   5.346 -0.1410  0.5751  0.3843
12863TIP3    H160004   1.043   6.479   5.424 -0.1944  1.8978  1.2041
12863TIP3    H260005   1.019   6.491   5.275  0.7539 -1.4758  0.7361
12864TIP3   OH260006   5.890   5.834  12.671 -0.4210 -0.2058  0.1954
12864TIP3    H160007   5.859   5.793  12.591 -1.6988 -0.3217  0.7329
12864TIP3    H260008   5.979   5.800  12.683  1.1316  2.4383 -2.9793
12865TIP3   OH260009   2.368   3.703   4.838  0.1049 -0.2938 -0.0966
12865TIP3    H160010   2.279   3.689   4.805  0.0052  0.1233 -0.0063
12865TIP3    H260011   2.402   3.776   4.785 -0.1458  0.5528  0.8860
12866TIP3   OH260012   5.415   6.022   2.488 -0.3500  0.2469  0.4157
12866TIP3    H160013   5.395   5.929   2.476  2.9543 -0.4546 -0.2026
12866TIP3    H260014   5.396   6.062   2.404  0.5737 -0.3532 -0.0915
12867TIP3   OH260015   6.493   6.184   2.497 -0.0032  0.7164 -0.1780
12867TIP3    H160016   6.511   6.164   2.405 -0.4252 -0.6951  0.0330
12867TIP3    H260017   6.486   6.098   2.539 -2.3490  1.2775  0.6660
12868TIP3   OH260018   4.503   2.268   0.608 -0.1945 -0.5744 -0.3384
12868TIP3    H160019   4.504   2.191   0.665 -2.5182  0.1727  0.7782
12868TIP3    H260020   4.569   2.326   0.646  0.1731 -1.1906 -0.0153
12869TIP3   OH260021   1.117   5.792  13.374  0.0848 -0.6862 -0.5756
12869TIP3    H160022   1.040   5.830  13.332  1.0089  1.2359 -0.5874
12869TIP3    H260023   1.146   5.859  13.435  0.3388 -2.3884  1.2003
12870TIP3   OH260024   2.867   0.336  12.350 -0.1780 -0.0122 -0.0990
12870TIP3    H160025   2.915   0.285  12.416  0.7904  1.2631  0.2028
12870TIP3    H260026   2.929   0.344  12.277 -1.5801 -2.2561 -1.6109
12871TIP3   OH260027   0.532   1.609   0.353 -0.0944  0.2588 -0.1676
12871TIP3    H160028   0.572   1.676   0.297 -0.7780 -0.6364 -1.7495
12871TIP3    H260029   0.463   1.571   0.299 -1.3675 -0.0038  1.6209
12872TIP3   OH260030   3.232   4.798   1.056 -0.0282 -0.5936  0.0106
12872TIP3    H160031   3.254   4.734   0.988 -0.7365 -1.2802  0.4185
12872TIP3    H260032   3.137   4.791   1.065 -0.4711  2.2747 -1.6808
12873TIP3   OH260033   5.771   3.948  14.029  0.3588 -0.4441  0.1624
12873TIP3    H160034   5.853   3.910  13.998  0.4844 -1.1796  1.3499
12873TIP3    H260035   5.745   4.009  13.960  2.6349  0.8454  0.3831
12874TIP3   OH260036   4.553   2.512  13.469 -0.5879 -0.2698 -0.2217
12874TIP3    H160037   4.548   2.528  13.564  0.0186  0.1177 -0.2518
12874TIP3    H260038   4.579   2.421  13.462  1.9544  0.4074  0.0201
12875TIP3   OH260039   2.356   0.604   0.660  0.4538  0.0298  0.2414
12875TIP3    H160040   2.407   0.560   0.728  0.7208  1.6095  1.0721
12875TIP3    H260041   2.265   0.591   0.687  0.4617 -1.3316 -0.3440
12876TIP3   OH260042   6.466   3.788   6.261  0.5865 -0.1883 -0.5827
12876TIP3    H160043   6.439   3.819   6.348  2.2224  1.1897 -0.5409
12876TIP3    H260044   6.400   3.723   6.238 -1.5671  1.5434  0.4268
12877TIP3   OH260045   5.501   3.944  12.848 -0.1604  0.5966 -0.2843
12877TIP3    H160046   5.482   3.980  12.935  0.7805 -1.5332  0.8572
12877TIP3    H260047   5.416   3.919  12.813 -0.7357  3.0661 -0.7485
12878TIP3   OH260048   5.083   5.193  13.005 -0.6130  0.1841  0.0915
12878TIP3    H160049   5.141   5.124  12.972 -0.7949 -0.0301  0.2195
12878TIP3    H260050   5.045   5.156  13.085 -0.6598  0.4574  0.1955
12879TIP3   OH260051   1.455   3.114   4.885 -0.1483  0.3765 -0.5329
12879TIP3    H160052   1.464   3.030   4.930  2.7476  0.6229 -0.5561
12879TIP3    H260053   1.436   3.177   4.955 -2.6518 -0.3079 -0.5562
12880TIP3   OH260054   5.323   6.769  14.904  0.2187  0.2567  0.4928
12880TIP3    H160055   5.382   6.751  14.978  0.9255  0.6327  0.0295
12880TIP3    H260056   5.368   6.730  14.829 -0.0777  0.6506  0.1137
12881TIP3   OH260057   0.658   6.105   3.937  0.0147  0.0884 -0.3941
12881TIP3    H160058   0.718   6.040   3.900 -0.2304  0.7627 -2.0472
12881TIP3    H260059   0.713   6.182   3.952 -0.1025  0.1729 -0.4005
12882TIP3   OH260060   2.004   2.494   2.927  0.0144 -0.4627  0.0884
12882TIP3    H160061   1.916   2.458   2.934 -0.2865  0.4490  1.1658
12882TIP3    H260062   2.044   2.476   3.013  0.2174  0.8246  0.2743
12883TIP3   OH260063   0.905   2.860   1.146 -0.0016  0.2197 -0.3653
12883TIP3    H160064   0.919   2.933   1.085  0.9964  3.2589  3.3282
12883TIP3    H260065   0.981   2.804   1.134 -0.3603  0.1709 -2.6637
12884TIP3   OH260066   5.664   1.481   0.668 -0.0438  0.0085 -1.0914
12884TIP3    H160067   5.632   1.407   0.615  0.5268 -1.4053  0.4879
12884TIP3    H260068   5.593   1.499   0.730  0.3490 -0.0923 -0.6100
12885TIP3   OH260069   6.038   4.328  11.061  0.1718  0.3296  0.4625
12885TIP3    H160070   6.082   4.393  11.115 -1.4083  0.2196  1.9523
12885TIP3    H260071   6.056   4.244  11.105 -0.2762  0.1203  0.2520
12886TIP3   OH260072   6.779   6.422  15.862  0.1583  0.2528 -0.1211
12886TIP3    H160073   6.738   6.401  15.946  1.3586 -2.5128 -0.1718
12886TIP3    H260074   6.791   6.337  15.819  1.7967  1.3975 -2.0298
12887TIP3   OH260075   2.015   0.893   0.817 -0.2423 -0.7998 -0.2771
12887TIP3    H160076   2.092   0.852   0.778  0.0638  0.8385 -1.4389
12887TIP3    H260077   2.043   0.982   0.837 -1.5588 -0.4715  0.1398
12888TIP3   OH260078   4.536   5.987  13.408  0.7131 -0.0786  0.2621
12888TIP3    H160079   4.578   5.918  13.461 -0.8541 -1.4107 -0.2140
12888TIP3    H260080   4.607   6.048  13.389  1.6161 -0.2599  2.7721
12889TIP3   OH260081   3.296   4.677  13.845  0.4243  0.2701  0.1258
12889TIP3    H160082   3.201   4.671  13.852  0.3815  1.3531  0.4813
12889TIP3    H260083   3.318   4.764  13.879  1.4847  0.2565 -0.4941
12890TIP3   OH260084   3.575   4.239   5.262 -0.4558 -0.3372 -0.4105
12890TIP3    H160085   3.582   4.155   5.307 -2.1016 -0.6962 -0.7682
12890TIP3    H260086   3.593   4.218   5.170  0.3490 -0.0751 -0.3129
12891TIP3   OH260087   1.307   3.990  12.344  0.2901  0.1762  0.3381
12891TIP3    H160088   1.227   3.940  12.328 -0.1939  0.5328  1.5377
12891TIP3    H260089   1.322   4.038  12.263 -0.5339 -0.1465 -0.0115
12892TIP3   OH260090   2.422   5.476  16.971  0.3718  0.0052 -0.2734
12892TIP3    H160091   2.355   5.416  17.005  0.7516  0.6131  1.5872
12892TIP3    H260092   2.372   5.547  16.931 -0.1304  0.4928  1.1699
12893TIP3   OH260093   1.127   6.186  16.779 -0.3532 -0.0814 -0.2343
12893TIP3    H160094   1.098   6.268  16.818 -2.4025  0.0915 -1.9968
12893TIP3    H260095   1.050   6.155  16.730  1.0287 -2.0206 -1.2218
12894TIP3   OH260096   6.503   1.669  16.916  0.1087  0.3542 -0.2506
12894TIP3    H160097   6.481   1.582  16.948  0.3050 -0.3004 -1.8464
12894TIP3    H260098   6.596   1.664  16.895  0.0984  0.9279 -0.4430
12895TIP3   OH260099   5.622   5.005  11.025  0.2039  0.7816 -0.0375
12895TIP3    H160100   5.567   5.083  11.033 -2.0726 -0.6018 -1.3692
12895TIP3    H260101   5.559   4.933  11.017  2.2421 -1.3584  2.5047
12896TIP3   OH260102   1.594   5.473   2.699 -0.2104  0.1240 -0.2350
12896TIP3    H160103   1.592   5.520   2.783  1.4640 -0.0199 -0.0783
12896TIP3    H260104   1.538   5.397   2.713  1.4840 -0.8747  1.4013
12897TIP3   OH260105   0.227   3.427   3.789 -0.2712  0.1069 -0.4392
12897TIP3    H160106   0.150   3.381   3.754 -0.1322 -0.4484 -0.0219
12897TIP3    H260107   0.233   3.397   3.879  0.1653  0.5112 -0.3368
12898TIP3   OH260108   6.697   5.421  10.580  0.4348 -0.2576 -0.3584
12898TIP3    H160109   6.761   5.491  10.563 -0.1800  0.3732 -0.1032
12898TIP3    H260110   6.617   5.468  10.605 -0.3182 -1.0371 -1.3115
12899TIP3   OH260111   3.517   6.528  16.548 -0.1294 -0.2251  0.0864
12899TIP3    H160112   3.556   6.598  16.601  2.5062 -1.4857 -0.1101
12899TIP3    H260113   3.469   6.474  16.611  0.0437  0.2672  0.6488
12900TIP3   OH260114   5.440   1.985  12.409 -0.9239 -0.3693 -0.0691
12900TIP3    H160115   5.430   1.959  12.317  1.1190 -0.6857 -0.2273
12900TIP3    H260116   5.457   2.079  12.406  1.0417 -0.7020 -0.1827
12901TIP3   OH260117   3.868   0.170   3.584 -0.3602 -0.2392 -0.1669
12901TIP3    H160118   3.924   0.127   3.649  1.2043  0.2888 -1.1346
12901TIP3    H260119   3.832   0.099   3.532  0.2103 -0.5287 -0.1669
12902TIP3   OH260120   1.539   1.165  17.196 -0.2665 -0.3579 -0.1686
12902TIP3    H160121   1.526   1.192  17.287  0.7826  1.1288 -0.4335
12902TIP3    H260122   1.616   1.108  17.199  0.1899  0.2440 -0.2015
12903TIP3   OH260123   0.262   4.054  13.915 -0.0079 -0.1197  0.0941
12903TIP3    H160124   0.182   4.002  13.928  0.2648 -0.1638  1.6794
12903TIP3    H260125   0.271   4.105  13.995  1.6710 -0.2636  0.0239
12904TIP3   OH260126   5.576   2.817   3.760  0.1293 -0.1112  0.3074
12904TIP3    H160127   5.503   2.756   3.757 -0.3887  0.4593  0.9878
12904TIP3    H260128   5.570   2.866   3.678  0.3082 -0.6993 -0.0578
12905TIP3   OH260129   2.206   6.718   2.010  0.3098  0.1341 -0.0434
12905TIP3    H160130   2.237   6.807   1.994  1.1664  0.1743  1.7482
12905TIP3    H260131   2.212   6.675   1.925  0.9438  1.4682 -0.6886
12906TIP3   OH260132   3.263   0.769  16.373 -0.5965 -0.1627  0.1568
12906TIP3    H160133   3.192   0.768  16.438 -0.7825 -0.1459 -0.0439
12906TIP3    H260134   3.341   0.794  16.422 -0.4405 -1.6706  0.6742
12907TIP3   OH260135   5.832   3.185  13.175 -0.2055 -0.3634 -0.0687
12907TIP3    H160136   5.739   3.160  13.178  0.0165 -1.4543 -1.4367
12907TIP3    H260137   5.865   3.141  13.096  1.3489  0.4409  0.1288
12908TIP3   OH260138   4.668   4.602   0.994 -0.6038 -0.0471 -0.2888
12908TIP3    H160139   4.704   4.623   0.908 -1.6101 -1.5551 -1.1061
12908TIP3    H260140   4.738   4.625   1.055  0.2636  0.7028 -1.5313
12909TIP3   OH260141   5.228   4.919   1.420  0.0957 -0.1462 -0.9281
12909TIP3    H160142   5.284   4.968   1.480 -1.0528 -0.3817  0.3649
12909TIP3    H260143   5.289   4.875   1.360  1.2634  0.0474  0.1054
12910TIP3   OH260144   3.161   5.572  10.892 -0.5466 -0.6136  0.6331
12910TIP3    H160145   3.156   5.659  10.854 -0.3973 -1.5085 -1.5049
12910TIP3    H260146   3.255   5.550  10.889 -0.8450 -1.7777 -1.0813
12911TIP3   OH260147   5.628   3.821   6.262  0.4359 -0.6566  0.4952
12911TIP3    H160148   5.565   3.762   6.304  1.3167 -0.0873  2.6968
12911TIP3    H260149   5.599   3.909   6.288  1.9857 -0.3807  1.3366
12912TIP3   OH260150   4.117   3.044  11.393 -0.2676  0.4194 -0.3592
12912TIP3    H160151   4.093   3.088  11.475  0.1182 -0.6130  0.3220
12912TIP3    H260152   4.057   3.080  11.328 -1.5451  0.1987  0.6734
12913TIP3   OH260153   4.875   2.638  14.136 -0.3366 -0.2687 -0.0120
12913TIP3    H160154   4.924   2.706  14.089  0.5784 -0.2606  0.9315
12913TIP3    H260155   4.868   2.672  14.226 -1.0654 -0.8021  0.1344
12914TIP3   OH260156   5.005   4.525  12.886  0.0866 -0.6028  0.1293
12914TIP3    H160157   5.062   4.483  12.950 -0.7939 -3.8539 -1.1267
12914TIP3    H260158   5.061   4.543  12.811  0.0144 -1.6090 -0.1765
12915TIP3   OH260159   5.709   5.347  14.711  0.2024  0.0843  0.2283
12915TIP3    H160160   5.638   5.410  14.699  0.2677  0.1176  0.0040
12915TIP3    H260161   5.718   5.305  14.626 -0.9139 -1.3728  0.8131
12916TIP3   OH260162   6.783   5.293  16.902  0.1489  0.0018 -0.2485
12916TIP3    H160163   6.692   5.320  16.913 -0.3214 -1.1121 -1.2674
12916TIP3    H260164   6.800   5.233  16.975  0.4563  1.1487  0.6373
12917TIP3   OH260165   1.879   1.204   0.498 -0.0786  0.2249  0.1935
12917TIP3    H160166   1.794   1.235   0.529  0.3090  0.8297  0.6529
12917TIP3    H260167   1.879   1.110   0.519 -1.1920 -0.0681 -1.0803
12918TIP3   OH260168   6.660   1.211   2.177 -0.4343 -0.4960 -0.1134
12918TIP3    H160169   6.664   1.243   2.087  0.9588  0.5416  0.3021
12918TIP3    H260170   6.659   1.290   2.231 -1.8453 -1.0954  0.7787
12919TIP3   OH260171   5.414   3.325  11.367 -0.4066 -0.7522 -0.5090
12919TIP3    H160172   5.371   3.400  11.408 -0.2733 -0.3902 -1.0267
12919TIP3    H260173   5.385   3.328  11.276 -1.2880 -1.9810 -0.2700
12920TIP3   OH260174   5.903   2.117  14.991 -0.0004 -0.2181 -0.2498
12920TIP3    H160175   5.918   2.023  14.996  0.2977 -0.2404 -1.3096
12920TIP3    H260176   5.972   2.149  14.933 -0.0369  0.6683  0.1838
12921TIP3   OH260177   4.900   4.731  13.343  0.1567 -0.2867  0.4737
12921TIP3    H160178   4.857   4.798  13.397  1.0636  0.6416  0.0516
12921TIP3    H260179   4.827   4.679  13.308 -0.7245  1.8754 -1.0178
12922TIP3   OH260180   5.075   0.477   3.293 -0.3587  0.4757 -0.1529
12922TIP3    H160181   5.171   0.479   3.290 -0.3769  1.7929 -0.1467
12922TIP3    H260182   5.052   0.394   3.251  0.7837  0.1846 -0.2263
12923TIP3   OH260183   2.499   6.264   1.778  0.1866 -0.1778 -0.0890
12923TIP3    H160184   2.523   6.355   1.760 -0.7432  0.4041  1.5866
12923TIP3    H260185   2.501   6.222   1.692  1.0150  1.3165 -0.8287
12924TIP3   OH260186   2.985   2.313  16.289  0.1792 -0.1791 -0.3370
12924TIP3    H160187   3.007   2.342  16.377  1.6721  0.3511 -0.8590
12924TIP3    H260188   2.912   2.370  16.262  0.9154  0.8960 -0.1148
12925TIP3   OH260189   5.164   6.319   2.608 -0.0477 -0.0216  0.1706
12925TIP3    H160190   5.223   6.371   2.553  0.6125 -2.0671 -1.0796
12925TIP3    H260191   5.220   6.288   2.680 -0.1274 -0.1212  0.1892
12926TIP3   OH260192   1.902   4.280   3.128  0.4242  0.0528  0.2184
12926TIP3    H160193   1.882   4.321   3.043  1.4410 -2.5148 -1.3254
12926TIP3    H260194   1.940   4.350   3.180  0.8191  1.4263 -1.8600
12927TIP3   OH260195   0.571   0.269   4.617 -0.0946 -0.1803  0.0442
12927TIP3    H160196   0.556   0.363   4.607  1.1222 -0.0404 -0.5505
12927TIP3    H260197   0.484   0.229   4.604 -0.7982  0.9197  1.2792
12928TIP3   OH260198   5.413   6.424  12.245 -0.2880 -0.4707 -0.0449
12928TIP3    H160199   5.504   6.436  12.272 -0.3459  0.3196 -0.1659
12928TIP3    H260200   5.419   6.391  12.155 -0.1215 -0.0099 -0.2052
12929TIP3   OH260201   2.821   2.446   4.457  0.3493  0.2025  0.2434
12929TIP3    H160202   2.739   2.413   4.494  0.9041 -1.1063  0.3315
12929TIP3    H260203   2.882   2.445   4.530  1.5615 -2.7827 -0.7291
12930TIP3   OH260204   1.917   2.897   3.217 -0.2996 -0.3003 -0.1949
12930TIP3    H160205   1.866   2.820   3.243 -0.2625 -0.6853 -1.2229
12930TIP3    H260206   1.959   2.927   3.297 -0.0262 -1.5664  0.1352
12931TIP3   OH260207   5.911   5.460  14.497 -0.2723  0.3733  0.1550
12931TIP3    H160208   5.834   5.406  14.478  0.4237 -0.5833  0.0286
12931TIP3    H260209   5.905   5.533  14.435 -1.3972  0.6218  0.5554
12932TIP3   OH260210   2.996   1.476   1.458  0.3824 -0.1215  0.1623
12932TIP3    H160211   2.964   1.551   1.407 -0.3007 -0.7708 -0.3813
12932TIP3    H260212   3.090   1.473   1.441  0.1879 -0.2146 -0.8992
12933TIP3   OH260213   2.175   0.861   1.681  0.2454  0.1301 -0.5250
12933TIP3    H160214   2.132   0.923   1.622  0.0780 -0.9269 -1.5443
12933TIP3    H260215   2.103   0.809   1.717  0.3121  1.0207  0.9278
12934TIP3   OH260216   3.115   6.560  17.177  0.3926 -0.1849  0.0817
12934TIP3    H160217   3.039   6.516  17.216  0.4039  0.7221  1.1346
12934TIP3    H260218   3.187   6.542  17.237  0.8788 -0.4901 -0.5788
12935TIP3   OH260219   4.418   4.786  10.846  1.2034 -0.1822  0.0664
12935TIP3    H160220   4.333   4.826  10.866  1.0904 -0.8095  0.8729
12935TIP3    H260221   4.440   4.819  10.759  0.0503 -0.1453 -0.2225
12936TIP3   OH260222   0.810   6.047  14.213  0.2552 -0.5704  0.0602
12936TIP3    H160223   0.722   6.014  14.197 -0.0775  0.3100  0.0660
12936TIP3    H260224   0.846   6.064  14.126  0.7011 -1.6168  0.0214
12937TIP3   OH260225   4.503   2.564   5.945  0.0749 -0.2905 -0.0578
12937TIP3    H160226   4.567   2.566   6.016  0.1959  0.6977 -0.1881
12937TIP3    H260227   4.505   2.652   5.908 -1.6529 -0.1342  0.1912
12938TIP3   OH260228   1.578   4.639   2.345 -0.0326  0.5240  0.5592
12938TIP3    H160229   1.613   4.710   2.398 -3.6075  0.7543  2.7897
12938TIP3    H260230   1.642   4.628   2.274  2.5718  3.2670  2.3623
12939TIP3   OH260231   5.493   3.849  13.755 -0.2112  0.7605 -0.0981
12939TIP3    H160232   5.570   3.792  13.752 -0.7527  0.0167 -0.0280
12939TIP3    H260233   5.486   3.886  13.667 -1.0167 -0.8400 -0.7141
12940TIP3   OH260234   1.337   0.788   0.419 -0.1350  0.0457 -0.1465
12940TIP3    H160235   1.410   0.849   0.423 -0.8781  0.8893  0.5742
12940TIP3    H260236   1.266   0.831   0.465 -1.3830 -0.3735 -1.6066
12941TIP3   OH260237   4.855   4.510  13.738  0.4427  0.1058  0.8101
12941TIP3    H160238   4.918   4.438  13.737 -0.6062 -0.8208 -1.3806
12941TIP3    H260239   4.772   4.469  13.762  0.2885  1.0310  1.9567
12942TIP3   OH260240   0.171   0.385  15.751 -0.6755  0.2608 -0.1427
12942TIP3    H160241   0.202   0.372  15.661  0.8187  1.0657  0.2502
12942TIP3    H260242   0.122   0.467  15.747 -1.5660 -0.2801 -0.4578
12943TIP3   OH260243   1.435   6.769  16.875  0.1877 -0.1017 -0.8208
12943TIP3    H160244   1.347   6.778  16.838  0.0005 -3.4663 -1.2646
12943TIP3    H260245   1.492   6.756  16.799  0.8423  0.3716 -0.4130
12944TIP3   OH260246   3.441   5.343  12.627  0.3757  0.3255 -0.5609
12944TIP3    H160247   3.479   5.261  12.596  1.2052  0.6712 -0.4682
12944TIP3    H260248   3.355   5.319  12.660  0.3565 -0.4031 -1.1288
12945TIP3   OH260249   6.686   2.493   4.102  0.5667  0.4999 -0.2674
12945TIP3    H160250   6.660   2.492   4.010 -1.9383  1.6495  0.3789
12945TIP3    H260251   6.676   2.584   4.129  0.8277  0.0882  1.2636
12946TIP3   OH260252   5.611   1.324   1.361  0.8426 -0.2873 -0.5991
12946TIP3    H160253   5.617   1.387   1.288  0.6549  3.6794  2.6087
12946TIP3    H260254   5.524   1.340   1.398  1.8179 -0.5999  1.8843
12947TIP3   OH260255   6.705   6.060   4.588 -0.1937 -0.1100 -0.3082
12947TIP3    H160256   6.800   6.074   4.596 -0.3345  0.1103  1.1994
12947TIP3    H260257   6.696   5.976   4.544  0.7070 -0.3728  0.0031
12948TIP3   OH260258   6.280   6.681  12.909  0.0123  0.4650  0.0478
12948TIP3    H160259   6.275   6.673  13.004  0.6349 -0.2649  0.0245
12948TIP3    H260260   6.340   6.755  12.894 -0.6302  1.0320  0.2171
12949TIP3   OH260261   5.937   2.488   5.067 -0.0231  0.3854  0.4574
12949TIP3    H160262   6.001   2.446   5.125 -0.8877 -1.2290  0.2540
12949TIP3    H260263   5.889   2.549   5.123 -1.9248 -2.3072  1.8389
12950TIP3   OH260264   2.820   3.622  11.368 -0.1948  0.2673 -0.2716
12950TIP3    H160265   2.747   3.655  11.316 -0.8792 -0.5467  0.1692
12950TIP3    H260266   2.836   3.533  11.335 -0.2515 -0.0393  0.5079
12951TIP3   OH260267   4.951   1.339  12.643  0.0637 -0.1380 -0.7717
12951TIP3    H160268   4.960   1.341  12.548  0.0818  1.0204 -0.7511
12951TIP3    H260269   4.858   1.350  12.659 -0.0493 -1.1903 -0.6747
12952TIP3   OH260270   4.252   4.780  16.620  0.1724  0.3605  0.0588
12952TIP3    H160271   4.235   4.851  16.558  2.1212  1.1413  0.3868
12952TIP3    H260272   4.173   4.776  16.674 -0.2324  1.7965 -0.4152
12953TIP3   OH260273   5.685   4.335  14.935  0.6084  0.4609 -0.2222
12953TIP3    H160274   5.716   4.425  14.949  0.6524  0.5972 -1.2076
12953TIP3    H260275   5.599   4.346  14.895 -1.6294  0.1229  4.1196
12954TIP3   OH260276   6.240   0.632  17.043  0.1833 -0.2850  0.5077
12954TIP3    H160277   6.252   0.679  16.961 -2.9056  2.0458  1.2855
12954TIP3    H260278   6.201   0.548  17.018  0.1963  0.0006 -0.4749
12955TIP3   OH260279   0.110   2.116  12.459  0.3373  1.2056 -0.6570
12955TIP3    H160280   0.069   2.180  12.402 -0.9048  0.1783 -0.9431
12955TIP3    H260281   0.121   2.161  12.542 -1.0570  1.6137 -0.6845
12956TIP3   OH260282   1.862   3.417  11.337  0.2453  0.3468  0.3278
12956TIP3    H160283   1.949   3.441  11.369  1.1477 -1.2801 -0.8032
12956TIP3    H260284   1.878   3.374  11.253 -1.8491  2.0891 -1.0195
12957TIP3   OH260285   1.713   5.922   1.262 -0.3406 -0.4168 -0.0202
12957TIP3    H160286   1.778   5.977   1.307 -1.2213  0.0155  0.7476
12957TIP3    H260287   1.669   5.875   1.333 -1.1291 -0.4066 -0.4997
12958TIP3   OH260288   0.961   6.422   1.254  0.3115  0.2338 -0.0108
12958TIP3    H160289   0.972   6.398   1.346  1.6155 -1.0486 -0.4829
12958TIP3    H260290   1.024   6.493   1.240 -0.3855  0.9174  0.2444
12959TIP3   OH260291   5.547   4.544  16.224 -0.1251 -0.0484  0.0126
12959TIP3    H160292   5.507   4.486  16.289  0.5879 -1.8336 -1.0993
12959TIP3    H260293   5.478   4.559  16.159  0.1028 -0.7400 -0.3885
12960TIP3   OH260294   0.625   1.569   6.662 -0.4047  0.2850  0.4100
12960TIP3    H160295   0.627   1.635   6.593  1.7414  1.6432  1.7269
12960TIP3    H260296   0.535   1.535   6.661 -0.8841  1.5664 -1.8109
12961TIP3   OH260297   4.456   1.252  11.592 -0.2983 -0.3616  0.2014
12961TIP3    H160298   4.378   1.197  11.595 -0.7080  0.0788 -1.8221
12961TIP3    H260299   4.526   1.195  11.626 -0.9019 -1.7952 -0.9141
12962TIP3   OH260300   4.093   6.402   3.070  0.0072 -0.4032 -0.5011
12962TIP3    H160301   4.178   6.360   3.062  1.0204  1.0348  1.9777
12962TIP3    H260302   4.032   6.342   3.027  2.1430 -1.8371 -1.6067
12963TIP3   OH260303   5.625   0.765   0.280  0.6374 -0.2209 -0.0223
12963TIP3    H160304   5.541   0.722   0.295  0.5467 -0.7594 -1.9210
12963TIP3    H260305   5.657   0.727   0.198  1.4777  1.9098 -0.7135
12964TIP3   OH260306   2.620   3.103   1.335  0.5744 -0.3564  0.1558
12964TIP3    H160307   2.637   3.011   1.315  2.6474  0.4112 -1.9272
12964TIP3    H260308   2.674   3.151   1.272 -1.4440  2.2874  0.3650
12965TIP3   OH260309   6.732   0.811   1.716 -0.2887 -0.2100 -0.7594
12965TIP3    H160310   6.792   0.788   1.646  1.3053  0.6851  0.2554
12965TIP3    H260311   6.787   0.854   1.782 -2.1658  1.3882 -0.1455
12966TIP3   OH260312   6.530   3.363   2.709 -0.0527 -0.0683 -0.1008
12966TIP3    H160313   6.559   3.454   2.715 -2.8477  0.9908 -1.6695
12966TIP3    H260314   6.480   3.348   2.790  0.8684 -0.4288  0.4188
12967TIP3   OH260315   5.432   4.552   0.546 -0.0796 -0.2276  0.0364
12967TIP3    H160316   5.391   4.512   0.469 -1.1649  0.0388  0.4668
12967TIP3    H260317   5.503   4.493   0.569 -1.0460 -1.3876  0.0650
12968TIP3   OH260318   5.155   5.450  14.253  0.3479  0.2043  0.5204
12968TIP3    H160319   5.138   5.406  14.170  1.0593  0.2827  0.3347
12968TIP3    H260320   5.158   5.379  14.317 -0.6388  0.1817  0.5551
12969TIP3   OH260321   6.349   5.361   5.357  0.2562  0.2259  0.3636
12969TIP3    H160322   6.368   5.298   5.287  0.0008 -1.2809  1.6308
12969TIP3    H260323   6.254   5.360   5.365  0.3507 -0.4311  1.4773
12970TIP3   OH260324   1.716   0.842   0.922 -0.0503 -0.7932  0.1903
12970TIP3    H160325   1.736   0.850   0.829  0.1621 -2.9473  0.0372
12970TIP3    H260326   1.797   0.865   0.967  0.1358 -0.7117 -0.1875
12971TIP3   OH260327   0.369   2.854   1.409 -0.0101 -0.4344 -0.0650
12971TIP3    H160328   0.438   2.796   1.440  0.6090 -0.0659 -0.7273
12971TIP3    H260329   0.393   2.872   1.317  1.3253  3.0310  0.8693
12972TIP3   OH260330   0.467   0.786  12.746  0.0387 -0.1850 -0.2913
12972TIP3    H160331   0.432   0.708  12.703  0.0118 -1.0923  1.3257
12972TIP3    H260332   0.397   0.851  12.739  0.0133 -0.3370 -1.5413
12973TIP3   OH260333   3.564   0.845   3.750  0.6736  0.5267 -0.0047
12973TIP3    H160334   3.564   0.758   3.788  0.9806  1.2711  1.7501
12973TIP3    H260335   3.650   0.853   3.708  0.9157  0.2219  0.4270
12974TIP3   OH260336   3.949   4.309   2.620 -0.0160 -0.1035 -0.1756
12974TIP3    H160337   3.955   4.276   2.530  0.7977 -1.3772  0.3319
12974TIP3    H260338   3.938   4.231   2.674 -0.5450  0.6551  0.8345
12975TIP3   OH260339   1.248   3.426   5.210  0.2691 -0.1690  0.3163
12975TIP3    H160340   1.159   3.456   5.195  0.1628 -0.7100 -0.1206
12975TIP3    H260341   1.244   3.380   5.294  0.4458  1.0843  1.0232
12976TIP3   OH260342   6.519   6.204  12.361 -0.0532  0.2128 -0.0685
12976TIP3    H160343   6.472   6.136  12.313 -0.7801  2.2477 -2.3478
12976TIP3    H260344   6.523   6.278  12.300  0.8409  2.1703  2.2866
12977TIP3   OH260345   1.042   3.257   3.677  0.5022 -0.1063  0.5781
12977TIP3    H160346   1.053   3.164   3.659  1.4549  0.0447  0.3265
12977TIP3    H260347   1.099   3.300   3.613  0.9504  0.6032  1.4415
12978TIP3   OH260348   6.384   1.928   0.167  0.2415 -0.3520 -0.2199
12978TIP3    H160349   6.455   1.991   0.152 -0.1962 -0.2928 -2.1630
12978TIP3    H260350   6.425   1.843   0.152 -0.0008 -0.3381 -0.9685
12979TIP3   OH260351   6.521   4.541   4.619  0.4273 -0.4224  0.1939
12979TIP3    H160352   6.447   4.587   4.657  0.1164 -0.7696  0.0047
12979TIP3    H260353   6.597   4.576   4.665  0.2352  0.5846 -0.2230
12980TIP3   OH260354   0.620   3.438  15.413 -0.3898  0.4867 -0.1110
12980TIP3    H160355   0.649   3.527  15.395 -1.6925  0.8268 -0.6281
12980TIP3    H260356   0.585   3.407  15.330 -0.1860 -0.4166  0.1350
12981TIP3   OH260357   1.580   4.006   5.038  0.3749 -0.3343 -0.2542
12981TIP3    H160358   1.579   3.913   5.015 -0.4136  0.0573 -1.8594
12981TIP3    H260359   1.660   4.017   5.089  0.7731 -1.7840 -0.5353
12982TIP3   OH260360   5.083   2.819  15.435  0.5342  0.3481 -0.2370
12982TIP3    H160361   4.989   2.829  15.425 -0.1546 -0.7429  4.0859
12982TIP3    H260362   5.111   2.897  15.484  0.7779 -2.0447  3.6770
12983TIP3   OH260363   0.230   6.188   5.048  0.5753  0.1055 -0.0709
12983TIP3    H160364   0.176   6.130   5.102 -0.9167  1.2869 -0.2700
12983TIP3    H260365   0.320   6.172   5.079  0.0666 -1.3949  0.7128
12984TIP3   OH260366   5.717   1.898   4.239 -0.0978  0.1532  0.2110
12984TIP3    H160367   5.662   1.829   4.274 -0.9927  0.5492 -0.3824
12984TIP3    H260368   5.801   1.888   4.284 -0.8343 -0.0988  1.5379
12985TIP3   OH260369   2.976   4.147   3.096  0.3184  0.0696  0.3034
12985TIP3    H160370   2.968   4.173   3.188 -2.2321 -0.3521  0.2364
12985TIP3    H260371   2.929   4.214   3.048  0.5224 -0.4163 -0.5808
12986TIP3   OH260372   1.349   0.938  12.680 -0.5119 -0.3854 -0.3616
12986TIP3    H160373   1.290   1.001  12.639  1.1946  1.5323  0.1128
12986TIP3    H260374   1.413   0.917  12.613  0.3023  0.1841  0.2321
12987TIP3   OH260375   2.439   2.234   1.703 -0.4355  0.0302  0.0201
12987TIP3    H160376   2.416   2.300   1.768 -1.4097 -0.9809  0.7307
12987TIP3    H260377   2.355   2.204   1.668  0.1204  1.5653 -2.7540
12988TIP3   OH260378   5.222   3.272   3.454  0.2393  0.1403  0.1784
12988TIP3    H160379   5.157   3.342   3.463  0.3257  0.2116  0.2457
12988TIP3    H260380   5.304   3.317   3.435 -0.1191 -0.0519 -1.9384
12989TIP3   OH260381   2.816   2.804  13.452  0.3272  0.2247  0.7567
12989TIP3    H160382   2.793   2.715  13.423  0.3033  0.2846  0.5920
12989TIP3    H260383   2.831   2.852  13.371  0.0093  0.4613  0.8421
12990TIP3   OH260384   6.508   2.310  11.580  0.9387 -0.0975 -0.0947
12990TIP3    H160385   6.549   2.345  11.501  0.4145  0.3104 -0.1850
12990TIP3    H260386   6.455   2.236  11.549 -1.4786  1.7595 -0.5291
12991TIP3   OH260387   3.506   6.226  11.534  0.0272  0.1222 -0.5350
12991TIP3    H160388   3.469   6.299  11.483  0.4451 -0.3897 -1.5871
12991TIP3    H260389   3.525   6.159  11.469 -2.1625 -1.7047  0.6466
12992TIP3   OH260390   3.466   5.218  15.753  0.5628 -0.0711  0.3126
12992TIP3    H160391   3.526   5.157  15.710  2.2382  1.1676  0.8559
12992TIP3    H260392   3.459   5.291  15.692  0.1132  0.0983  0.5629
12993TIP3   OH260393   3.930   5.321   0.394 -0.2791 -0.5835 -0.3430
12993TIP3    H160394   4.018   5.319   0.358 -0.2867 -0.2220 -0.3765
12993TIP3    H260395   3.927   5.247   0.455 -0.2418 -1.1547 -1.0190
12994TIP3   OH260396   0.870   6.466  15.464  0.2156  0.5364  0.1852
12994TIP3    H160397   0.804   6.525  15.500  0.0894  0.1903  0.5185
12994TIP3    H260398   0.952   6.516  15.468  0.5853 -0.2108  2.8154
12995TIP3   OH260399   5.269   3.047   0.838  0.2997  0.3146 -0.9949
12995TIP3    H160400   5.280   2.982   0.907  2.7388  1.0160 -0.6868
12995TIP3    H260401   5.241   2.997   0.761  0.4257 -0.8573 -0.2878
12996TIP3   OH260402   6.096   2.641   2.240  0.0042  0.5015  0.3027
12996TIP3    H160403   6.071   2.725   2.277  0.0961  0.6785 -0.0433
12996TIP3    H260404   6.133   2.593   2.314 -0.7608  0.4729  0.6799
12997TIP3   OH260405   6.341   0.407  15.702  0.4448 -0.0408 -0.5015
12997TIP3    H160406   6.249   0.434  15.701  0.5370  0.2832 -2.0098
12997TIP3    H260407   6.365   0.404  15.609  1.3093 -2.3272 -0.2215
12998TIP3   OH260408   5.513   2.286   5.704 -0.6035  0.7182  0.0383
12998TIP3    H160409   5.435   2.295   5.758  0.0869  2.2614  0.7945
12998TIP3    H260410   5.482   2.300   5.614 -1.7110 -1.6536  0.0044
12999TIP3   OH260411   5.211   3.130  14.679 -0.3270 -0.2719 -0.3723
12999TIP3    H160412   5.129   3.171  14.652 -0.2644  0.3592  0.3778
12999TIP3    H260413   5.263   3.126  14.598 -0.8268 -0.0394 -0.7121
13000TIP3   OH260414   0.897   2.447   4.118  0.6102  0.0381  0.0292
13000TIP3    H160415   0.895   2.533   4.076  1.6273  0.5550  1.0019
13000TIP3    H260416   0.807   2.417   4.117  0.4825  0.4356 -1.7137
13001TIP3   OH260417   6.096   5.802   3.804 -0.3189 -0.5546 -0.0599
13001TIP3    H160418   6.182   5.834   3.832 -0.5609  0.5116 -0.5288
13001TIP3    H260419   6.116   5.726   3.749  0.3319 -0.2754 -0.2147
13002TIP3   OH260420   5.055   4.288   2.062  0.7007  0.7804  0.2490
13002TIP3    H160421   5.121   4.233   2.019 -0.8396  0.1027 -1.3028
13002TIP3    H260422   4.998   4.226   2.108 -0.9676  1.0226 -1.4009
13003TIP3   OH260423   6.022   5.956  16.727 -0.3027  0.3191  0.4147
13003TIP3    H160424   5.936   5.984  16.759 -0.8895 -0.9479 -0.0274
13003TIP3    H260425   6.002   5.888  16.662  0.9433  1.4449 -1.1867
13004TIP3   OH260426   4.561   3.651   4.972 -0.4692  0.2694  0.0100
13004TIP3    H160427   4.602   3.722   5.021  0.2579 -0.0683 -0.1104
13004TIP3    H260428   4.612   3.643   4.892 -0.3980 -0.5363  0.1242
13005TIP3   OH260429   2.349   6.468   0.406 -0.1519  0.2304 -0.7906
13005TIP3    H160430   2.351   6.415   0.326  0.7271 -0.0598 -0.5812
13005TIP3    H260431   2.341   6.405   0.477  2.5514  0.2193 -0.4247
13006TIP3   OH260432   2.440   4.841   2.094 -0.4979  0.1548 -0.1387
13006TIP3    H160433   2.476   4.920   2.056  2.5917 -1.0323  0.1839
13006TIP3    H260434   2.375   4.810   2.031  0.2573  1.4436 -1.5471
13007TIP3   OH260435   5.778   1.536  12.435 -0.5204  0.1612  0.6249
13007TIP3    H160436   5.854   1.586  12.406 -0.1378 -1.4461 -1.2815
13007TIP3    H260437   5.799   1.510  12.524  1.7985 -1.3709 -0.3203
13008TIP3   OH260438   5.365   6.579  14.486 -0.1968 -0.0967  0.1795
13008TIP3    H160439   5.290   6.525  14.507 -0.2982 -0.3406 -0.8029
13008TIP3    H260440   5.424   6.522  14.436  0.5582  0.1421  0.7746
13009TIP3   OH260441   5.731   1.248   4.158  0.0060 -0.9323  0.5469
13009TIP3    H160442   5.803   1.217   4.102 -0.0609 -2.0419  1.0546
13009TIP3    H260443   5.652   1.228   4.109 -0.0162 -1.1555  0.6708
13010TIP3   OH260444   1.448   2.224   6.258  0.0135  0.2546 -0.4174
13010TIP3    H160445   1.371   2.273   6.286 -0.2720  0.4583 -1.5324
13010TIP3    H260446   1.443   2.142   6.307 -0.5617  0.5317  0.0015
13011TIP3   OH260447   4.917   3.721   1.839  0.4184  0.3289 -0.0490
13011TIP3    H160448   4.963   3.768   1.908 -0.8116  1.1812  0.2046
13011TIP3    H260449   4.829   3.760   1.837 -0.1313 -0.9084 -0.8713
13012TIP3   OH260450   3.420   1.994  10.312  0.3224 -0.3808  0.5069
13012TIP3    H160451   3.443   1.947  10.392  0.2753  0.4509  1.0180
13012TIP3    H260452   3.486   2.063  10.306 -1.1204  1.0813  1.1645
13013TIP3   OH260453   6.079   5.895  13.203  0.0367  0.2034  0.0119
13013TIP3    H160454   6.054   5.980  13.238 -0.5442 -0.8713  2.2423
13013TIP3    H260455   6.042   5.832  13.264 -0.1617 -1.6837 -2.0233
13014TIP3   OH260456   6.416   2.210  12.719 -0.1861 -0.4591 -0.1946
13014TIP3    H160457   6.401   2.305  12.713  1.8728 -0.0247  1.1699
13014TIP3    H260458   6.368   2.184  12.798  0.3610 -0.3142  0.1872
13015TIP3   OH260459   1.488   6.253  15.207 -0.9172  0.7816 -0.2554
13015TIP3    H160460   1.428   6.293  15.144  1.0316  1.6946 -1.5978
13015TIP3    H260461   1.541   6.193  15.154 -2.5117 -2.1765  1.4074
13016TIP3   OH260462   1.774   4.391  14.045  0.5766  0.1675  0.3310
13016TIP3    H160463   1.738   4.421  14.128 -1.3648 -1.8483  0.2682
13016TIP3    H260464   1.840   4.327  14.069  0.8756  0.4774  0.3395
13017TIP3   OH260465   1.770   1.033   2.278 -0.2699 -0.3874  0.5525
13017TIP3    H160466   1.690   0.989   2.306  0.0882 -1.7935 -0.5898
13017TIP3    H260467   1.740   1.104   2.220 -0.7653  0.0667  1.3598
13018TIP3   OH260468   5.020   4.937   6.155  0.1701 -0.1549 -0.5316
13018TIP3    H160469   4.963   4.928   6.232 -0.3922 -1.1259 -1.0517
13018TIP3    H260470   4.964   4.912   6.081  1.1606 -0.7690 -1.0829
13019TIP3   OH260471   0.525   5.102   4.524  0.3312 -0.2206  0.3229
13019TIP3    H160472   0.518   5.185   4.475  0.0129  1.4855  3.1615
13019TIP3    H260473   0.556   5.039   4.459 -0.0605  1.9655 -2.0783
13020TIP3   OH260474   3.298   2.693  14.013  0.2734 -0.1342 -0.6059
13020TIP3    H160475   3.284   2.662  13.923  0.2423 -1.2462 -0.2161
13020TIP3    H260476   3.239   2.640  14.066  1.2151 -0.3407  0.2318
13021TIP3   OH260477   4.488   4.918  13.709  0.5703  0.4971  0.5963
13021TIP3    H160478   4.547   4.847  13.687 -3.2185 -2.6297 -0.0032
13021TIP3    H260479   4.471   4.962  13.625 -0.4029 -0.5742  0.2291
13022TIP3   OH260480   0.436   3.200   4.386 -0.2265  0.5543 -0.1964
13022TIP3    H160481   0.434   3.154   4.470 -1.3376  0.4659 -0.2616
13022TIP3    H260482   0.344   3.205   4.360  0.1234  0.4571 -1.4760
13023TIP3   OH260483   3.334   2.465  13.148  0.4849 -0.1564  0.2207
13023TIP3    H160484   3.258   2.408  13.137 -1.7000  2.5292  0.9430
13023TIP3    H260485   3.343   2.510  13.064  1.8259 -1.0539 -0.1415
13024TIP3   OH260486   6.514   5.556  12.897 -0.1277 -0.2340 -0.5775
13024TIP3    H160487   6.514   5.593  12.808  0.0832  2.0582  0.3486
13024TIP3    H260488   6.604   5.564  12.926 -0.1311 -1.2979 -0.2833
13025TIP3   OH260489   2.889   6.732   4.885 -0.0122 -0.0416  0.4289
13025TIP3    H160490   2.888   6.712   4.979 -0.9238 -1.1783  0.1819
13025TIP3    H260491   2.981   6.751   4.866  0.1045  0.6976  1.6524
13026TIP3   OH260492   2.252   3.889  14.439  0.3377 -0.4160 -0.3813
13026TIP3    H160493   2.193   3.891  14.514  0.1389  1.0036 -0.5603
13026TIP3    H260494   2.287   3.800  14.438 -0.4311 -0.7381  0.7893
13027TIP3   OH260495   5.882   6.052   2.763 -0.5651  0.4491  0.1712
13027TIP3    H160496   5.885   6.105   2.843  0.3878 -1.6080  1.5408
13027TIP3    H260497   5.972   6.026   2.748 -1.2719 -2.6404  0.8504
13028TIP3   OH260498   5.993   1.823  15.102  0.4055  0.3214 -0.1389
13028TIP3    H160499   5.925   1.813  15.036  1.3222  1.3422 -1.2634
13028TIP3    H260500   6.066   1.769  15.071  1.0214  1.1914 -0.2297
13029TIP3   OH260501   1.579   3.233  11.599  0.7611  0.7373 -0.1698
13029TIP3    H160502   1.490   3.233  11.632  0.7364 -2.9918 -0.0978
13029TIP3    H260503   1.609   3.323  11.611 -2.4105  1.6491  1.2919
13030TIP3   OH260504   0.184   5.237   4.234  0.0349  0.2280 -0.0504
13030TIP3    H160505   0.216   5.327   4.237  0.6229 -0.0076  2.2077
13030TIP3    H260506   0.202   5.203   4.322 -0.3637 -2.0235 -0.8073
13031TIP3   OH260507   4.775   3.354  16.146 -0.6414  0.5279  0.1934
13031TIP3    H160508   4.714   3.282  16.129 -0.7524  0.4420  0.9373
13031TIP3    H260509   4.857   3.326  16.105 -1.1866  0.7980 -1.1204
13032TIP3   OH260510   2.040   1.975  16.000 -0.2056  0.0173 -0.3117
13032TIP3    H160511   2.032   2.056  16.050  0.2274 -0.9009  1.2761
13032TIP3    H260512   2.134   1.966  15.984 -0.1059 -0.8264  0.6583
13033TIP3   OH260513   6.034   0.621   3.694 -0.0958 -0.3266 -0.3535
13033TIP3    H160514   5.980   0.677   3.638  0.0116  0.0508 -0.0838
13033TIP3    H260515   6.102   0.680   3.728 -1.0656 -0.1787  1.4159
13034TIP3   OH260516   0.919   2.062  11.838  0.2857 -0.2652  0.1296
13034TIP3    H160517   0.963   2.003  11.776 -0.3866  0.0931 -0.6908
13034TIP3    H260518   0.842   2.093  11.791  0.3687  0.8889  0.7413
13035TIP3   OH260519   1.066   3.883   5.720  0.3572 -0.2748 -0.2814
13035TIP3    H160520   1.023   3.802   5.747  0.7115 -0.4513 -0.2435
13035TIP3    H260521   1.067   3.936   5.799  4.2879 -2.0414  0.9681
13036TIP3   OH260522   6.662   3.807  11.238  0.0233  0.2977  0.9183
13036TIP3    H160523   6.740   3.751  11.248 -0.3734 -0.9310 -2.3375
13036TIP3    H260524   6.697   3.893  11.217  0.5432 -0.2874 -0.7129
13037TIP3   OH260525   4.130   5.045   0.675 -0.4103  0.8630  0.0283
13037TIP3    H160526   4.218   5.060   0.643  0.3179  1.0209  2.0027
13037TIP3    H260527   4.097   4.971   0.624  1.9428 -1.0632  1.2190
13038TIP3   OH260528   5.620   5.557  10.954  0.2997  0.0537  0.4824
13038TIP3    H160529   5.621   5.573  10.860  1.0880  0.6237  0.5858
13038TIP3    H260530   5.608   5.462  10.962 -4.8421  0.4832 -0.1341
13039TIP3   OH260531   5.544   1.648  16.021 -0.3817  0.4751 -0.2195
13039TIP3    H160532   5.637   1.630  16.007  0.0320  0.1995  2.6617
13039TIP3    H260533   5.499   1.581  15.969  1.0637 -1.3690  0.8287
13040TIP3   OH260534   5.408   3.380  12.757 -0.4982 -0.0348 -0.0044
13040TIP3    H160535   5.503   3.372  12.767 -0.2611 -0.1514 -2.0699
13040TIP3    H260536   5.395   3.466  12.718 -1.0794 -0.7892 -1.5296
13041TIP3   OH260537   3.464   3.201   3.887 -0.2053  0.6251  0.3518
13041TIP3    H160538   3.395   3.214   3.821  0.7846  1.9235 -0.4367
13041TIP3    H260539   3.522   3.135   3.848  1.1394  2.3958 -0.7090
13042TIP3   OH260540   1.697   6.136  10.702 -0.0941 -0.8495  0.2453
13042TIP3    H160541   1.786   6.146  10.669 -0.7074 -1.9851 -1.7740
13042TIP3    H260542   1.677   6.044  10.691 -0.9055 -0.9536  2.3584
13043TIP3   OH260543   5.604   1.361  11.894  1.3386  0.5015  0.0594
13043TIP3    H160544   5.554   1.360  11.975  2.0429 -0.5425  0.5027
13043TIP3    H260545   5.538   1.361  11.825  0.7134 -0.5220  0.6335
13044TIP3   OH260546   3.750   4.126   3.514 -0.3226  0.5799 -0.4229
13044TIP3    H160547   3.695   4.075   3.573 -2.6786  1.4003 -1.8345
13044TIP3    H260548   3.776   4.064   3.446  0.2709  0.2526  0.1026
13045TIP3   OH260549   4.828   0.958   5.707  0.1052  0.3643 -0.3803
13045TIP3    H160550   4.822   1.020   5.634  1.9902 -0.4103 -1.2153
13045TIP3    H260551   4.922   0.947   5.722 -0.2274 -1.2943  0.6329
13046TIP3   OH260552   6.777   2.728   3.384  0.3055  0.1942  0.0894
13046TIP3    H160553   6.786   2.643   3.340 -0.3751  0.8697 -1.4179
13046TIP3    H260554   6.732   2.783   3.320 -0.0141  1.4562  1.3669
13047TIP3   OH260555   4.571   1.525  17.191 -0.0991  0.5792  0.1936
13047TIP3    H160556   4.541   1.596  17.134 -1.6742  0.7009  1.1377
13047TIP3    H260557   4.560   1.559  17.279  4.0238  1.0673  0.5929
13048TIP3   OH260558   5.710   3.985   0.517  0.2933 -0.2760 -0.3454
13048TIP3    H160559   5.744   3.912   0.465 -0.9378 -0.0221 -1.5532
13048TIP3    H260560   5.621   3.958   0.540  0.0659  0.5549 -0.2323
13049TIP3   OH260561   4.093   0.685   2.688 -0.1658 -0.2702  0.6130
13049TIP3    H160562   4.170   0.723   2.730  0.1298  1.2425 -1.2148
13049TIP3    H260563   4.039   0.761   2.665 -0.5605 -1.0951 -1.2242
13050TIP3   OH260564   2.613   0.218  14.949 -0.6603 -0.3432  0.2292
13050TIP3    H160565   2.580   0.159  14.881 -0.5557  1.2855 -1.2731
13050TIP3    H260566   2.614   0.165  15.029 -0.3765 -2.4196 -1.1198
13051TIP3   OH260567   6.082   3.251   5.751 -0.3527 -0.2099 -0.1446
13051TIP3    H160568   6.003   3.306   5.750 -0.2665 -0.0742  0.4247
13051TIP3    H260569   6.103   3.241   5.844 -1.6595 -3.1111 -0.1147
13052TIP3   OH260570   0.559   2.786  15.319 -0.1634 -0.0223  0.5489
13052TIP3    H160571   0.545   2.696  15.349  2.4099 -0.9423 -0.8443
13052TIP3    H260572   0.609   2.828  15.390  1.5551 -0.7177 -0.2205
13053TIP3   OH260573   1.718   3.984  16.819 -0.5080 -0.4667  0.4312
13053TIP3    H160574   1.684   4.072  16.802 -1.6364 -0.8965  0.3845
13053TIP3    H260575   1.684   3.962  16.906  2.1246  0.2438  1.6876
13054TIP3   OH260576   4.854   4.898   5.888  0.1728 -0.7325  0.3306
13054TIP3    H160577   4.800   4.976   5.896  2.0420  0.6391  0.0396
13054TIP3    H260578   4.802   4.838   5.834 -1.2246  0.3645  0.4345
13055TIP3   OH260579   4.372   4.553  12.452 -0.1387  0.4792 -0.2165
13055TIP3    H160580   4.353   4.553  12.358 -0.9392 -0.5670 -0.0703
13055TIP3    H260581   4.398   4.643  12.471  1.5043  0.3409 -1.7247
13056TIP3   OH260582   6.410   6.365  13.781 -0.2808  0.0388 -0.4514
13056TIP3    H160583   6.481   6.415  13.821 -1.4082  1.7086 -0.5089
13056TIP3    H260584   6.455   6.305  13.720  1.2321 -0.5478  1.1825
13057TIP3   OH260585   6.353   6.549  10.766 -0.5046 -0.2210  0.4411
13057TIP3    H160586   6.408   6.535  10.689 -0.6316 -0.6354  0.4236
13057TIP3    H260587   6.266   6.569  10.731 -0.1520  1.4019  0.4539
13058TIP3   OH260588   2.707   3.393  15.035 -0.0638  0.0980  0.0197
13058TIP3    H160589   2.636   3.338  15.069  0.4454 -0.5327  0.0591
13058TIP3    H260590   2.755   3.336  14.976  3.1652 -0.9162  3.4251
13059TIP3   OH260591   3.685   0.112   2.231 -0.1923  0.2405 -0.0582
13059TIP3    H160592   3.599   0.153   2.220  0.5443  1.4998 -1.0644
13059TIP3    H260593   3.664   0.022   2.257 -1.8191  0.3573 -0.8956
13060TIP3   OH260594   0.252   1.292   2.302 -0.1398 -0.6787  0.6434
13060TIP3    H160595   0.177   1.274   2.358 -0.8357  0.7046  0.1927
13060TIP3    H260596   0.222   1.362   2.244  1.5229 -0.0569  0.5080
13061TIP3   OH260597   1.437   2.008  15.961 -0.7055 -0.3404 -0.2523
13061TIP3    H160598   1.420   2.101  15.947  1.9767  0.1699 -0.4675
13061TIP3    H260599   1.415   1.992  16.053  1.5424  1.2075  0.5924
13062TIP3   OH260600   4.300   0.889   3.536 -0.3893 -0.3224  0.0005
13062TIP3    H160601   4.318   0.982   3.551 -0.6544  0.0148 -1.6535
13062TIP3    H260602   4.231   0.868   3.600 -0.7791  0.7838 -0.0361
13063TIP3   OH260603   5.510   5.233  12.649  0.0300 -0.1279 -0.1516
13063TIP3    H160604   5.444   5.297  12.622 -0.0533 -0.5534 -0.9849
13063TIP3    H260605   5.494   5.158  12.592  2.2674  0.3729 -1.5014
13064TIP3   OH260606   4.148   3.616  12.571 -0.2662  0.3911 -0.7558
13064TIP3    H160607   4.131   3.549  12.504 -1.8394  1.2455 -1.2525
13064TIP3    H260608   4.187   3.688  12.523 -2.1987  1.3509 -0.9600
13065TIP3   OH260609   0.706   1.139   4.810 -0.0264 -0.3274 -0.1124
13065TIP3    H160610   0.670   1.194   4.879  0.1074 -0.0647 -0.2530
13065TIP3    H260611   0.629   1.096   4.771 -0.1543 -0.0362 -0.1801
13066TIP3   OH260612   1.518   0.738   4.251  0.2432 -0.8924  0.0892
13066TIP3    H160613   1.488   0.650   4.275 -1.7441  0.4291  2.5846
13066TIP3    H260614   1.456   0.767   4.184  0.4118 -1.0305 -0.1313
13067TIP3   OH260615   0.122   0.291   0.798 -0.0316  0.6966 -0.5953
13067TIP3    H160616   0.216   0.272   0.800 -0.8964 -4.0276  0.8248
13067TIP3    H260617   0.095   0.268   0.709 -0.0094  1.3799 -0.7847
13068TIP3   OH260618   2.569   6.346  12.677  0.0536  0.1785  0.4264
13068TIP3    H160619   2.506   6.292  12.631  0.8034 -0.5905  0.2911
13068TIP3    H260620   2.549   6.332  12.770  0.3353 -0.4501  0.3969
13069TIP3   OH260621   2.942   5.009  12.371  0.9338  0.3083  0.6224
13069TIP3    H160622   2.987   5.034  12.451  0.8964  0.2689  0.6559
13069TIP3    H260623   3.007   5.019  12.302  0.7847  0.9706  0.5658
13070TIP3   OH260624   2.552   3.458   4.471 -0.0165  0.3456 -0.8142
13070TIP3    H160625   2.509   3.541   4.451 -1.5661  0.4116  2.4256
13070TIP3    H260626   2.585   3.469   4.560 -1.0247 -2.7615  0.0305
13071TIP3   OH260627   0.414   2.169   0.040 -0.4363  0.0835 -0.3364
13071TIP3    H160628   0.431   2.213   0.123  0.5866  1.2326 -1.1354
13071TIP3    H260629   0.499   2.135   0.013 -0.9947 -1.3274 -0.3261
13072TIP3   OH260630   1.582   2.741  15.967 -0.4734 -0.2878 -0.3657
13072TIP3    H160631   1.509   2.731  16.028  0.4735 -2.3994  0.4813
13072TIP3    H260632   1.584   2.659  15.918  1.6446 -0.4692 -0.0063
13073TIP3   OH260633   3.895   3.578  12.967 -0.0334  0.0594  0.2959
13073TIP3    H160634   3.865   3.595  13.057 -1.7488 -0.8297 -0.0692
13073TIP3    H260635   3.940   3.658  12.941  0.9380  0.1321  2.1381
13074TIP3   OH260636   0.782   1.574   2.233  0.2360  0.1994  0.3936
13074TIP3    H160637   0.868   1.570   2.275  0.1989  2.0628  0.6769
13074TIP3    H260638   0.720   1.554   2.303  0.4359 -1.6832  0.0717
13075TIP3   OH260639   1.960   2.943  13.512 -0.2138 -0.6285 -0.1873
13075TIP3    H160640   1.929   2.855  13.534 -0.7728 -0.2834  0.4062
13075TIP3    H260641   1.953   2.992  13.594  1.1680 -0.3304 -0.2323
13076TIP3   OH260642   5.172   0.896  16.331  0.1663  0.1609 -0.0127
13076TIP3    H160643   5.248   0.918  16.384  0.2162 -1.8978  0.8620
13076TIP3    H260644   5.097   0.909  16.390  0.0218  0.1590 -0.1950
13077TIP3   OH260645   6.195   0.074  11.659 -0.1950 -0.5509 -0.3378
13077TIP3    H160646   6.264   0.138  11.640  0.4471 -1.3157 -0.5867
13077TIP3    H260647   6.224  -0.006  11.615 -0.9211 -1.0585  0.1104
13078TIP3   OH260648   4.820   2.819   5.522 -0.0929  0.4181 -0.3112
13078TIP3    H160649   4.775   2.745   5.562 -0.8400  0.3247 -1.3133
13078TIP3    H260650   4.906   2.785   5.496 -0.7813 -0.3519 -1.6185
13079TIP3   OH260651   1.733   2.352  15.459  0.4196 -0.1632 -0.4039
13079TIP3    H160652   1.766   2.304  15.535  0.3199 -0.2810 -0.4341
13079TIP3    H260653   1.711   2.439  15.493 -2.5794 -1.1775  0.3824
13080TIP3   OH260654   5.340   6.409  16.953  0.1724  0.2527 -0.5589
13080TIP3    H160655   5.334   6.318  16.981 -0.7952  0.0872 -1.2513
13080TIP3    H260656   5.411   6.446  17.005  0.0689 -0.6947  0.2668
13081TIP3   OH260657   6.094   2.420  14.861 -0.2037 -0.3605  0.0113
13081TIP3    H160658   6.128   2.428  14.950 -0.6381  0.9781  0.0692
13081TIP3    H260659   6.165   2.452  14.806  0.4351 -2.0930 -0.2114
13082TIP3   OH260660   4.681   1.928  16.247  0.1486  0.0892  0.0376
13082TIP3    H160661   4.725   2.012  16.260 -0.7236  0.7479 -1.2089
13082TIP3    H260662   4.667   1.894  16.335  0.7674  1.1122  0.5397
13083TIP3   OH260663   4.054   3.101  16.907  0.2439  0.1710 -0.5024
13083TIP3    H160664   4.106   3.169  16.865 -0.3222  1.3837  0.7367
13083TIP3    H260665   4.046   3.129  16.998 -0.6791 -1.1401 -0.1628
13084TIP3   OH260666   0.185   3.803  17.038  0.4785  0.1498 -0.1631
13084TIP3    H160667   0.168   3.858  17.115 -1.9261 -1.5470  0.5656
13084TIP3    H260668   0.211   3.718  17.074  3.2412  0.4712 -1.2886
13085TIP3   OH260669   5.465   1.123  15.902  0.3195 -0.7602  0.0975
13085TIP3    H160670   5.376   1.119  15.937  0.0158 -0.0945 -0.5826
13085TIP3    H260671   5.453   1.134  15.807  1.1019  0.8286  0.1594
13086TIP3   OH260672   0.651   5.996  16.694 -0.0766 -0.3249 -0.4606
13086TIP3    H160673   0.559   5.975  16.711  0.5100 -0.7459  2.4972
13086TIP3    H260674   0.695   5.911  16.695  0.4067 -0.0837 -1.3767
13087TIP3   OH260675   4.007   0.728  11.962 -0.3691 -0.1331  0.4182
13087TIP3    H160676   4.025   0.811  11.917  0.0848 -1.5831 -2.1728
13087TIP3    H260677   3.982   0.754  12.050 -1.8035  2.8719 -0.7859
13088TIP3   OH260678   6.109   2.905  11.684 -0.2024  0.7349 -0.0162
13088TIP3    H160679   6.044   2.868  11.624 -1.1054  2.0807  0.1232
13088TIP3    H260680   6.142   2.982  11.638 -2.4905  3.0583  2.0989
13089TIP3   OH260681   3.709   6.629   2.051 -0.0130  0.6081 -0.3452
13089TIP3    H160682   3.641   6.685   2.087 -0.6067 -0.4403  0.1696
13089TIP3    H260683   3.662   6.562   2.002  0.6355 -0.2621  0.2188
13090TIP3   OH260684   2.301   2.431   1.837  0.0122  0.2948  0.4939
13090TIP3    H160685   2.217   2.413   1.795  0.1952  0.1276  0.1950
13090TIP3    H260686   2.279   2.448   1.928 -0.3496  0.2788  0.4125
13091TIP3   OH260687   6.049   0.996   0.922  0.1571 -0.3111 -0.6098
13091TIP3    H160688   6.131   0.966   0.884  1.0959  0.3049  0.8890
13091TIP3    H260689   6.032   0.936   0.994 -0.6262 -0.3295 -0.8062
13092TIP3   OH260690   6.584   6.328  14.714  0.0807  0.3395 -0.1217
13092TIP3    H160691   6.587   6.240  14.751  1.7561  0.2660 -0.4060
13092TIP3    H260692   6.547   6.315  14.626  0.8075 -0.1527 -0.3582
13093TIP3   OH260693   3.238   3.214   2.920  0.3756  0.1704 -0.6661
13093TIP3    H160694   3.250   3.167   2.837 -1.6183  1.6377 -1.8320
13093TIP3    H260695   3.211   3.302   2.893 -0.6715  0.5539  1.5713
13094TIP3   OH260696   4.961   2.569  12.430  0.1733  0.1664  0.7262
13094TIP3    H160697   4.934   2.537  12.517  2.0038 -0.1303  1.1923
13094TIP3    H260698   4.972   2.663  12.441  2.9515 -0.2319  1.4943
13095TIP3   OH260699   4.325   0.754   5.484  0.3312  0.3208 -0.0095
13095TIP3    H160700   4.412   0.719   5.505  0.0312  0.4315  1.4931
13095TIP3    H260701   4.296   0.703   5.408  2.7916  2.0851 -2.2236
13096TIP3   OH260702   6.278   5.763   3.473 -0.0265 -1.0000 -0.0750
13096TIP3    H160703   6.195   5.729   3.507 -0.0895 -0.3058  0.4634
13096TIP3    H260704   6.317   5.688   3.429 -0.6127 -1.5238  0.2773
13097TIP3   OH260705   5.972   5.773   2.403 -0.4734  0.3598  0.7167
13097TIP3    H160706   6.029   5.800   2.331 -1.2410  1.1344  0.3929
13097TIP3    H260707   5.905   5.718   2.362  1.2416 -2.3736  1.4080
13098TIP3   OH260708   4.040   2.018  12.857  0.3720  0.6640  0.1585
13098TIP3    H160709   4.103   2.024  12.929  2.3407 -0.5419 -1.4377
13098TIP3    H260710   4.036   1.924  12.837 -0.5514  0.9430 -0.9765
13099TIP3   OH260711   5.036   4.207   0.039  0.0752 -0.4007  0.0520
13099TIP3    H160712   5.045   4.152  -0.038  0.8773 -1.5678  0.9675
13099TIP3    H260713   5.122   4.247   0.050 -0.0431 -0.2256  0.3434
13100TIP3   OH260714   6.225   6.635  13.185  0.4925  0.0906  0.4074
13100TIP3    H160715   6.308   6.627  13.231 -0.6120 -1.3949  2.2176
13100TIP3    H260716   6.172   6.561  13.217 -2.1422  2.0036  0.6500
13101TIP3   OH260717   1.451   3.242   0.977  0.2341  0.6656 -0.1169
13101TIP3    H160718   1.392   3.249   0.902  0.8067 -1.4222 -0.8039
13101TIP3    H260719   1.394   3.248   1.053 -0.5823  1.0097 -0.7518
13102TIP3   OH260720   1.064   5.810  15.176  0.1246  0.5597  0.2815
13102TIP3    H160721   1.098   5.732  15.132  1.4191 -0.1697  2.5420
13102TIP3    H260722   1.122   5.881  15.147  0.2619  0.3012 -0.0823
13103TIP3   OH260723   0.534   5.385   5.228  0.7935  0.0894  0.5093
13103TIP3    H160724   0.547   5.342   5.144 -0.7871 -1.1081  0.8668
13103TIP3    H260725   0.611   5.442   5.238  1.7660 -0.9361 -1.0057
13104TIP3   OH260726   1.845   4.235   5.395 -0.3814 -0.3834 -0.2753
13104TIP3    H160727   1.892   4.184   5.460 -1.4323  0.4095  1.1255
13104TIP3    H260728   1.886   4.321   5.397 -1.7176  0.2443  0.7902
13105TIP3   OH260729   4.237   0.081  15.750  0.2437  0.4984  0.6313
13105TIP3    H160730   4.145   0.086  15.726  0.3116  3.2875  0.8709
13105TIP3    H260731   4.278   0.034  15.677 -0.9282  1.6336 -0.7775
13106TIP3   OH260732   0.690   2.636  12.955  0.7118 -0.0054 -0.4551
13106TIP3    H160733   0.673   2.712  13.010 -0.1552  0.2001 -0.9953
13106TIP3    H260734   0.754   2.667  12.891  0.9455  0.0456 -0.1986
13107TIP3   OH260735   1.535   0.356   5.336  0.2622 -0.5002 -0.0079
13107TIP3    H160736   1.561   0.378   5.426 -2.8617 -2.6289  1.4935
13107TIP3    H260737   1.529   0.261   5.336 -2.7281 -0.3391 -1.5934
13108TIP3   OH260738   5.645   1.316  14.018  0.9316 -0.7405  0.0373
13108TIP3    H160739   5.716   1.276  14.068  1.5040  1.8196  1.3986
13108TIP3    H260740   5.623   1.395  14.068 -3.1572 -1.6638 -0.1307
13109TIP3   OH260741   3.862   5.642  14.036  0.1771  0.1729 -0.4408
13109TIP3    H160742   3.807   5.608  14.107  0.3721  1.6116  0.4114
13109TIP3    H260743   3.935   5.580  14.030 -0.7980 -0.9673 -0.6306
13110TIP3   OH260744   1.938   3.794   6.424  0.9297  0.1632 -0.2879
13110TIP3    H160745   2.010   3.733   6.438  0.6541 -0.2105 -0.4746
13110TIP3    H260746   1.903   3.771   6.337  0.7304  0.4871 -0.2961
13111TIP3   OH260747   6.762   6.120  14.621 -0.4667  0.2215  0.2993
13111TIP3    H160748   6.812   6.038  14.626  3.2892  2.3640  0.2114
13111TIP3    H260749   6.752   6.147  14.712  0.0711  0.6116  0.2515
13112TIP3   OH260750   2.308   6.573   3.103 -0.0706  0.1223 -0.3403
13112TIP3    H160751   2.249   6.553   3.030  0.0810  0.1457 -0.4693
13112TIP3    H260752   2.307   6.668   3.109  0.0999  0.1337 -0.4661
13113TIP3   OH260753   4.158   3.612   1.629  0.2007  0.7671 -0.0495
13113TIP3    H160754   4.208   3.547   1.580 -0.1024  0.8798 -0.5143
13113TIP3    H260755   4.218   3.641   1.698  0.3173 -0.0323  0.1838
13114TIP3   OH260756   6.611   4.363  12.279  0.1528 -0.0364  0.2307
13114TIP3    H160757   6.655   4.444  12.253  1.9978 -1.2429 -0.4558
13114TIP3    H260758   6.674   4.318  12.335 -1.3348 -0.4512  1.6404
13115TIP3   OH260759   4.666   6.079  15.527 -0.4976 -0.0291 -0.3235
13115TIP3    H160760   4.638   6.088  15.435  0.8429 -1.2271 -0.8779
13115TIP3    H260761   4.711   5.994  15.529  0.3606  0.4490  1.2226
13116TIP3   OH260762   1.741   6.347  14.884 -0.7167  0.7769 -0.1458
13116TIP3    H160763   1.727   6.440  14.900 -2.9536  0.5103 -0.4631
13116TIP3    H260764   1.694   6.330  14.802 -0.0294 -0.5645 -0.2746
13117TIP3   OH260765   0.713   5.997   5.224 -0.0257  0.1524 -0.2746
13117TIP3    H160766   0.663   5.928   5.180  0.0189 -0.1603  0.1622
13117TIP3    H260767   0.650   6.039   5.283  0.0375  0.2511 -0.2768
13118TIP3   OH260768   4.292   1.998  15.562 -0.0714  0.1877 -1.1273
13118TIP3    H160769   4.228   1.933  15.592 -0.4349 -0.1078 -2.5058
13118TIP3    H260770   4.376   1.966  15.595 -0.3767 -0.4946 -0.9911
13119TIP3   OH260771   0.027   2.415  12.512  0.6576 -0.4479  0.0232
13119TIP3    H160772  -0.048   2.463  12.476 -0.3212 -1.7901  0.2189
13119TIP3    H260773   0.093   2.418  12.443  0.7027  1.3826  0.1322
13120TIP3   OH260774   0.244   3.139  12.321  0.1724  0.3741  0.1530
13120TIP3    H160775   0.239   3.188  12.239  1.3493 -0.4460 -0.4279
13120TIP3    H260776   0.155   3.108  12.337 -0.0140  0.3466 -0.9376
13121TIP3   OH260777   5.208   1.789   0.111  0.0741 -0.1810  0.4384
13121TIP3    H160778   5.142   1.722   0.092 -0.7753  0.1854  2.0373
13121TIP3    H260779   5.176   1.867   0.065 -1.6369  0.5177  2.7000
13122TIP3   OH260780   4.210   2.665   5.008  0.2246 -0.3447 -0.3370
13122TIP3    H160781   4.118   2.689   5.017  0.3560  0.3039 -0.6636
13122TIP3    H260782   4.242   2.721   4.937  0.8600 -0.5866 -0.2405
13123TIP3   OH260783   1.553   1.374   2.772 -0.3558 -0.0761  0.4716
13123TIP3    H160784   1.521   1.412   2.691 -1.4577 -1.1779  0.3786
13123TIP3    H260785   1.502   1.417   2.841 -0.1414  0.1132  0.5140
13124TIP3   OH260786   3.046   2.176  12.341 -0.1443  0.2176 -0.4979
13124TIP3    H160787   3.123   2.125  12.317 -1.0926 -0.3774 -2.4275
13124TIP3    H260788   3.071   2.267  12.325  0.2150  0.0358 -0.9738
13125TIP3   OH260789   1.258   3.263  16.308  0.1396  0.0096  0.6977
13125TIP3    H160790   1.326   3.267  16.375 -0.1636  1.9660  0.9211
13125TIP3    H260791   1.283   3.190  16.253  2.8681  1.1670  0.3030
13126TIP3   OH260792   0.736   0.188   2.625  0.5496  0.3793 -0.4513
13126TIP3    H160793   0.644   0.205   2.643  0.6356  0.2773  0.0815
13126TIP3    H260794   0.741   0.178   2.529 -0.0450  0.0446 -0.4474
13127TIP3   OH260795   6.533   1.532   1.877  0.1658 -0.3209  0.1940
13127TIP3    H160796   6.626   1.514   1.863  0.0451 -0.9190  0.1266
13127TIP3    H260797   6.514   1.610   1.825  0.5719 -0.3536  0.0015
13128TIP3   OH260798   4.123   4.443   4.939  0.3444  0.0610  0.8962
13128TIP3    H160799   4.114   4.535   4.915  0.1492 -0.0169  0.6644
13128TIP3    H260800   4.217   4.428   4.941  0.3903  0.4184  1.5369
13129TIP3   OH260801   1.222   4.021  14.252 -0.2150  0.0017 -0.2938
13129TIP3    H160802   1.245   3.959  14.321 -0.5582 -0.2325 -0.3886
13129TIP3    H260803   1.235   4.108  14.292  0.7419 -0.1166 -0.3179
13130TIP3   OH260804   2.656   2.609  11.210 -0.3422 -0.4079 -0.3807
13130TIP3    H160805   2.660   2.678  11.143  0.0519  0.5989  0.6507
13130TIP3    H260806   2.634   2.530  11.162 -0.2505  0.3364 -1.6775
13131TIP3   OH260807   1.086   1.320   0.084  0.5631 -0.1587  0.1704
13131TIP3    H160808   1.145   1.253   0.051  0.2099 -0.7400  0.6939
13131TIP3    H260809   1.126   1.349   0.166  1.0906  0.7957 -0.4165
13132TIP3   OH260810   6.462   4.057   3.340  0.8855  0.0997 -0.1636
13132TIP3    H160811   6.548   4.092   3.317  0.5911  0.7066 -0.3516
13132TIP3    H260812   6.411   4.134   3.367  0.7605 -0.4026  1.0914
13133TIP3   OH260813   4.255   6.138  10.766 -0.2073 -0.1978 -0.1858
13133TIP3    H160814   4.274   6.104  10.679  2.4324  0.9867 -0.1140
13133TIP3    H260815   4.187   6.080  10.800 -0.4217 -1.3949 -2.5608
13134TIP3   OH260816   2.319   3.144  14.605  0.1312  0.3925 -0.0487
13134TIP3    H160817   2.247   3.184  14.654  0.7880  0.4815  0.8730
13134TIP3    H260818   2.376   3.218  14.582  0.3762  0.2231  0.0045
13135TIP3   OH260819   1.489   2.464  12.718 -0.8973  0.0222  0.2555
13135TIP3    H160820   1.438   2.383  12.718 -1.4845  0.3735 -1.7113
13135TIP3    H260821   1.429   2.532  12.688  0.0723  0.8718  0.1826
13136TIP3   OH260822   2.828   5.278  17.097  0.2300 -0.4265 -0.0722
13136TIP3    H160823   2.785   5.330  17.029  0.9569  1.7954  1.1179
13136TIP3    H260824   2.908   5.246  17.055 -0.5284 -1.0984 -1.0115
13137TIP3   OH260825   3.294   2.810   5.946  0.2989 -0.3259  0.6129
13137TIP3    H160826   3.234   2.839   5.878  0.0607 -0.8565  0.5975
13137TIP3    H260827   3.376   2.792   5.900  0.6747  1.0362  0.7300
13138TIP3   OH260828   0.775   1.318   4.617  0.0613 -0.0873 -0.0466
13138TIP3    H160829   0.870   1.318   4.602  0.2193  0.2947  0.9027
13138TIP3    H260830   0.765   1.278   4.703 -0.7787 -1.7383 -0.8856
13139TIP3   OH260831   3.424   6.215   5.474  0.1945  0.2607 -0.2824
13139TIP3    H160832   3.508   6.247   5.505  1.1029 -1.1493 -1.2048
13139TIP3    H260833   3.379   6.293   5.441  1.2446  0.9876 -0.0119
13140TIP3   OH260834   3.236   0.456   3.112 -0.4946  0.3690  0.0969
13140TIP3    H160835   3.237   0.511   3.034 -0.0232  0.3958  0.1199
13140TIP3    H260836   3.314   0.402   3.104  0.1109  1.0838  1.0545
13141TIP3   OH260837   6.024   3.017   4.609  0.0670 -0.0980  0.2041
13141TIP3    H160838   5.961   3.022   4.537 -0.1880 -0.8666  0.3662
13141TIP3    H260839   5.974   3.046   4.686  0.2060  0.2678  0.1590
13142TIP3   OH260840   3.564   2.751   2.808 -0.5470  0.1607  0.1206
13142TIP3    H160841   3.589   2.827   2.859  0.1054 -0.5207  0.8349
13142TIP3    H260842   3.571   2.778   2.717 -2.7011  1.7151  0.3702
13143TIP3   OH260843   3.031   2.019   5.396 -0.5279  0.0785 -1.6275
13143TIP3    H160844   3.113   1.969   5.396 -0.0463  0.8471 -0.5073
13143TIP3    H260845   3.038   2.076   5.320 -0.0515  0.0956 -1.5744
13144TIP3   OH260846   1.458   1.691  12.668  0.0007 -0.5063  0.0257
13144TIP3    H160847   1.518   1.758  12.699  1.8478 -2.9477  1.9060
13144TIP3    H260848   1.375   1.712  12.712  0.0873  1.4644 -0.6873
13145TIP3   OH260849   6.027   2.533  14.164 -0.3084  0.1136 -0.0860
13145TIP3    H160850   6.049   2.549  14.073 -1.1033 -0.0734 -0.3134
13145TIP3    H260851   6.093   2.582  14.214  1.3512 -1.4254 -0.7311
13146TIP3   OH260852   0.491   2.747  11.475  0.0369  0.3304  0.0675
13146TIP3    H160853   0.496   2.838  11.447 -1.8320  0.1576 -0.9635
13146TIP3    H260854   0.461   2.751  11.565 -1.0998  0.7273 -0.3186
13147TIP3   OH260855   5.744   5.100   1.924  0.0241  0.1760 -0.3795
13147TIP3    H160856   5.808   5.169   1.942  0.1856  0.2435 -1.1991
13147TIP3    H260857   5.707   5.123   1.839 -0.4691 -0.3353 -0.3043
13148TIP3   OH260858   1.233   1.957   1.499 -0.3471  0.5274 -0.2124
13148TIP3    H160859   1.321   1.924   1.516 -0.4725 -0.1939 -0.9247
13148TIP3    H260860   1.174   1.893   1.539 -0.6082 -0.5406 -2.2337
13149TIP3   OH260861   2.739   6.526   0.935  0.1009 -0.1378  1.2054
13149TIP3    H160862   2.667   6.510   0.874  0.5358  1.3177  0.2815
13149TIP3    H260863   2.791   6.446   0.933  0.2747  0.0032 -0.5738
13150TIP3   OH260864   2.392   1.350   3.744  0.1361 -0.7425  0.1247
13150TIP3    H160865   2.412   1.438   3.776 -0.4850 -0.1491 -1.0439
13150TIP3    H260866   2.477   1.309   3.732  0.5339  0.3871 -1.1199
13151TIP3   OH260867   3.666   4.266  17.119  0.0581  0.3569 -0.1246
13151TIP3    H160868   3.720   4.336  17.082  0.2961  0.3091  0.1311
13151TIP3    H260869   3.668   4.196  17.053  0.2570  0.3817 -0.1457
13152TIP3   OH260870   2.277   0.433  16.619  0.5559  0.0268  0.3202
13152TIP3    H160871   2.284   0.378  16.541  0.7380  1.0751 -0.4110
13152TIP3    H260872   2.191   0.413  16.655 -0.0809  0.5197 -0.9020
13153TIP3   OH260873   5.916   4.089   5.141 -0.3597 -0.5153 -0.3688
13153TIP3    H160874   5.834   4.136   5.124 -0.2475 -0.1132  0.1615
13153TIP3    H260875   5.943   4.055   5.056  0.2214  1.4915 -1.0254
13154TIP3   OH260876   0.991   0.261   3.457 -0.0104  0.5765 -0.4378
13154TIP3    H160877   1.061   0.320   3.484 -0.0681 -0.7663  2.9198
13154TIP3    H260878   1.036   0.187   3.417  0.5621 -0.4004  1.9375
13155TIP3   OH260879   6.584   5.425   0.888  0.5859  0.2737  0.2720
13155TIP3    H160880   6.499   5.462   0.865  0.5987 -0.6851 -1.4429
13155TIP3    H260881   6.622   5.488   0.949 -1.6743  0.3146  1.6777
13156TIP3   OH260882   2.854   0.483  14.581 -0.0769 -0.3906  0.4990
13156TIP3    H160883   2.799   0.420  14.626 -0.7636  0.1692  0.4544
13156TIP3    H260884   2.877   0.547  14.649  0.2106 -0.4184  0.4305
13157TIP3   OH260885   1.432   0.516  11.420  0.8533  0.2699 -0.0764
13157TIP3    H160886   1.384   0.570  11.356  0.4551  1.0478  0.8540
13157TIP3    H260887   1.474   0.449  11.368 -0.0981  0.4297 -1.0815
13158TIP3   OH260888   3.803   6.760   2.772  0.0794 -0.0328  0.3997
13158TIP3    H160889   3.865   6.733   2.703 -0.1774  1.4278 -0.4288
13158TIP3    H260890   3.830   6.849   2.794  1.3413 -1.1267  3.5558
13159TIP3   OH260891   5.838   5.096   1.284 -0.3282 -0.5969 -0.1185
13159TIP3    H160892   5.883   5.049   1.214 -2.2079  0.7432 -2.2987
13159TIP3    H260893   5.838   5.188   1.255 -1.7612 -0.1161  1.2995
13160TIP3   OH260894   0.179   3.713   2.436 -0.8839  0.0755 -0.4728
13160TIP3    H160895   0.089   3.687   2.456 -0.8412 -0.5523 -1.1054
13160TIP3    H260896   0.191   3.691   2.344  0.3931 -1.1934 -0.0248
13161TIP3   OH260897   2.637   1.518   2.649 -0.5417 -0.1851 -0.5031
13161TIP3    H160898   2.689   1.589   2.611  0.9817 -0.0095  1.8249
13161TIP3    H260899   2.566   1.563   2.696 -0.3118 -0.2602 -0.0863
13162TIP3   OH260900   5.770   0.397   2.913 -0.0165  0.8486 -0.0387
13162TIP3    H160901   5.767   0.365   3.003 -1.8940 -0.1524 -0.4340
13162TIP3    H260902   5.813   0.327   2.864  0.9007  1.3452  0.0298
13163TIP3   OH260903   4.536   1.629   3.494  0.2598 -0.2152  0.0707
13163TIP3    H160904   4.579   1.594   3.417 -0.0394 -0.9152  0.2153
13163TIP3    H260905   4.443   1.621   3.475  0.1815  1.1536 -0.1798
13164TIP3   OH260906   6.591   0.890  14.272  0.3374  0.2948  0.1437
13164TIP3    H160907   6.659   0.918  14.212 -1.1649  0.4589 -1.5279
13164TIP3    H260908   6.620   0.921  14.358  1.3781  2.1080 -0.8362
13165TIP3   OH260909   0.332   0.247  15.065  0.1726 -0.3014  0.0753
13165TIP3    H160910   0.293   0.230  15.151 -1.3242  0.6164 -0.4148
13165TIP3    H260911   0.264   0.223  15.003  1.0649 -0.4574 -0.8501
13166TIP3   OH260912   0.724   3.715  13.918 -0.3102  0.3606 -0.8090
13166TIP3    H160913   0.742   3.674  14.002 -0.3429  0.6078 -0.6852
13166TIP3    H260914   0.742   3.646  13.854  0.3257  0.3686 -0.6400
13167TIP3   OH260915   0.484   4.488  10.705 -0.8482 -0.2250  0.5336
13167TIP3    H160916   0.506   4.562  10.762 -0.6764 -0.2186  0.4575
13167TIP3    H260917   0.447   4.530  10.626  2.7229 -0.0248 -1.1217
13168TIP3   OH260918   6.647   0.259  14.616 -0.6414  0.1000  0.0170
13168TIP3    H160919   6.685   0.292  14.697  0.2397 -0.7735 -0.0367
13168TIP3    H260920   6.568   0.313  14.603  0.0671  1.2957  0.6118
13169TIP3   OH260921   5.237   4.646   0.266  0.4364  0.1570 -0.1599
13169TIP3    H160922   5.149   4.680   0.250  0.3709 -0.1895 -0.5383
13169TIP3    H260923   5.278   4.712   0.323 -0.6620 -0.5556  1.4960
13170TIP3   OH260924   2.211   1.009   5.751 -0.0990  0.2629  0.1834
13170TIP3    H160925   2.186   0.950   5.680 -0.5953  0.5569  0.1127
13170TIP3    H260926   2.186   0.962   5.830  1.2203 -0.4281  0.2041
13171TIP3   OH260927   2.211   6.704   5.535 -0.1547  0.0238 -0.4919
13171TIP3    H160928   2.301   6.716   5.504 -0.0447 -1.1465 -0.6589
13171TIP3    H260929   2.212   6.738   5.624 -0.0649  1.9154 -1.1905
13172TIP3   OH260930   2.167   3.999   4.322  0.0789  0.7262 -0.2914
13172TIP3    H160931   2.130   4.085   4.345 -0.7692  0.7798 -1.7738
13172TIP3    H260932   2.258   4.004   4.350 -0.3370  1.5789  0.9760
13173TIP3   OH260933   5.490   0.520   5.628  0.9510 -0.3151 -0.0452
13173TIP3    H160934   5.509   0.435   5.668  0.7587 -1.1905 -1.7316
13173TIP3    H260935   5.417   0.555   5.679  2.0557 -0.4317  1.6568
13174TIP3   OH260936   4.655   6.325   4.074 -0.6479 -0.2414  0.0391
13174TIP3    H160937   4.580   6.280   4.113  0.6951 -0.6858  2.1882
13174TIP3    H260938   4.729   6.300   4.129  1.1214  0.1003 -2.1132
13175TIP3   OH260939   6.063   5.087   4.374 -0.0335 -0.4567  0.7000
13175TIP3    H160940   6.128   5.154   4.350  0.0985 -0.6208  0.5970
13175TIP3    H260941   6.003   5.132   4.434 -1.5966  0.5668 -1.5643
13176TIP3   OH260942   1.462   1.729  15.222 -0.0367  0.4318  0.2429
13176TIP3    H160943   1.496   1.817  15.235 -0.6126  0.4567  1.7989
13176TIP3    H260944   1.420   1.707  15.306 -0.6400 -0.9857 -0.4018
13177TIP3   OH260945   1.779   2.226  15.688  0.5843 -0.0229  0.1951
13177TIP3    H160946   1.863   2.232  15.733  1.6662 -0.6499 -1.6454
13177TIP3    H260947   1.740   2.144  15.720 -0.6501  1.6597  3.1547
13178TIP3   OH260948   2.756   5.720   5.056 -0.0772 -0.0596  0.1679
13178TIP3    H160949   2.742   5.803   5.010 -0.2109 -0.1032  0.1320
13178TIP3    H260950   2.815   5.743   5.128 -0.3848  0.1368  0.3629
13179TIP3   OH260951   1.062   1.251  13.779 -0.3302  0.7647 -0.4142
13179TIP3    H160952   1.100   1.175  13.735  0.0237  1.0580 -0.6155
13179TIP3    H260953   1.129   1.319  13.774 -1.3883  1.7563 -2.0689
13180TIP3   OH260954   1.162   1.824   0.196 -0.3187  0.2986 -0.1760
13180TIP3    H160955   1.083   1.857   0.154 -1.1702 -2.5351 -0.8588
13180TIP3    H260956   1.133   1.797   0.284  0.3955  1.4496  0.4239
13181TIP3   OH260957   1.898   1.326  12.109  0.0298  0.0571 -0.4512
13181TIP3    H160958   1.807   1.300  12.118 -0.2778  0.8342 -1.2791
13181TIP3    H260959   1.922   1.358  12.196 -0.1593 -1.1295  0.0512
13182TIP3   OH260960   3.684   4.364   4.063  0.1904  0.1035 -0.1690
13182TIP3    H160961   3.625   4.324   4.000  1.0243 -0.1273 -0.8101
13182TIP3    H260962   3.678   4.458   4.044 -1.5819  0.2842  1.1792
13183TIP3   OH260963   0.221   0.431   3.817  0.2736 -0.3246 -0.0530
13183TIP3    H160964   0.224   0.506   3.757  2.6514  0.5735  1.1128
13183TIP3    H260965   0.228   0.470   3.904 -1.1984 -1.7444  0.7334
13184TIP3   OH260966   3.953   1.741   4.613 -0.2440  0.0356 -0.1873
13184TIP3    H160967   3.983   1.761   4.702 -0.5711 -0.1822 -0.0246
13184TIP3    H260968   4.013   1.673   4.583  0.0473  0.3164 -0.2432
13185TIP3   OH260969   6.498   3.716  13.456  0.5526 -0.5904  0.0292
13185TIP3    H160970   6.495   3.641  13.515 -3.0322  0.3059  1.1585
13185TIP3    H260971   6.553   3.688  13.383 -0.1881 -4.0631  0.7339
13186TIP3   OH260972   1.886   3.794   4.660 -0.1595 -0.5936 -0.3586
13186TIP3    H160973   1.913   3.779   4.569  0.2937 -1.0765 -0.1394
13186TIP3    H260974   1.790   3.787   4.657 -0.1434 -0.6748 -0.7850
13187TIP3   OH260975   5.309   0.495  11.930  0.4727 -0.1993 -0.4025
13187TIP3    H160976   5.325   0.589  11.917  2.1964 -0.3255  0.5672
13187TIP3    H260977   5.396   0.455  11.923  0.6467 -1.0332  4.4510
13188TIP3   OH260978   3.743   1.635   3.976  0.1421  0.1102 -0.1993
13188TIP3    H160979   3.737   1.540   3.963  0.3542  0.0591  0.0635
13188TIP3    H260980   3.814   1.663   3.918 -0.2050  0.1714 -0.5929
13189TIP3   OH260981   1.216   0.752   3.659  0.0523  0.3021 -1.0024
13189TIP3    H160982   1.133   0.791   3.685 -0.6772 -0.9413 -1.3878
13189TIP3    H260983   1.200   0.718   3.571  0.9311 -0.0356 -1.0416
13190TIP3   OH260984   0.162   6.028   0.443 -0.5619 -0.3200 -0.0912
13190TIP3    H160985   0.149   5.933   0.434  0.6097 -0.3918 -1.0080
13190TIP3    H260986   0.186   6.039   0.535 -0.6181 -0.9243  0.0021
13191TIP3   OH260987   6.041   2.262  14.049  0.0936  0.2367 -0.7626
13191TIP3    H160988   5.984   2.186  14.061 -1.2658  1.3549  0.0796
13191TIP3    H260989   6.010   2.325  14.114  0.1972  2.0917 -2.4627
13192TIP3   OH260990   3.537   5.839  13.898 -0.4901  0.0642 -0.2986
13192TIP3    H160991   3.463   5.887  13.860 -0.3638 -0.2410 -0.9527
13192TIP3    H260992   3.511   5.821  13.988 -0.8944  0.6143 -0.3024
13193TIP3   OH260993   0.347   4.962   1.095  0.0886 -0.4516  0.6107
13193TIP3    H160994   0.319   5.035   1.150  0.7905  1.6188 -1.6883
13193TIP3    H260995   0.432   4.935   1.130 -0.2885 -0.3449  1.6132
13194TIP3   OH260996   6.069   2.258  12.000  0.0784  0.3772 -0.0850
13194TIP3    H160997   6.001   2.201  12.037 -0.7482  1.3997 -0.0104
13194TIP3    H260998   6.137   2.197  11.970  0.2536 -0.5363  2.0527
13195TIP3   OH260999   2.560   2.630  12.703  0.2930  0.2896 -0.2369
13195TIP3    H161000   2.630   2.607  12.765 -0.4988 -2.0033 -0.1270
13195TIP3    H261001   2.603   2.630  12.618  0.5085 -0.8442 -0.1405
13196TIP3   OH261002   2.732   4.499   2.408 -0.2916 -0.3008 -0.1172
13196TIP3    H161003   2.799   4.445   2.365  0.5660  0.4203  0.2896
13196TIP3    H261004   2.696   4.553   2.338  0.3381  0.0921 -0.1465
13197TIP3   OH261005   6.405   5.509  16.120 -0.1012  0.0703  0.1628
13197TIP3    H161006   6.315   5.529  16.144  0.0817  1.4325 -0.2575
13197TIP3    H261007   6.458   5.558  16.183  0.3573 -1.4650  1.0031
13198TIP3   OH261008   6.058   4.922  15.674  0.1169  0.0423 -0.3825
13198TIP3    H161009   6.044   4.923  15.769 -0.5953 -0.4822 -0.4761
13198TIP3    H261010   6.146   4.958  15.662 -0.2317  1.1670  0.3959
13199TIP3   OH261011   5.176   3.834  17.006 -0.1469 -0.0495  0.5777
13199TIP3    H161012   5.149   3.809  16.918 -2.2067 -2.6111  1.8933
13199TIP3    H261013   5.268   3.808  17.011 -0.0629 -0.0489 -0.7399
13200TIP3   OH261014   0.127   1.942  16.262  0.5633 -0.2567 -0.0118
13200TIP3    H161015   0.093   1.853  16.271  1.2712 -0.6574 -1.1975
13200TIP3    H261016   0.197   1.935  16.197  1.0601  1.0535  0.3512
13201TIP3   OH261017   6.429   4.327   5.121 -0.7442  0.3926  0.3073
13201TIP3    H161018   6.344   4.283   5.112 -2.1486  2.4106  3.0238
13201TIP3    H261019   6.412   4.417   5.095  0.6341  0.7639  0.6686
13202TIP3   OH261020   2.256   2.390  14.766 -0.7381 -0.3875  0.2732
13202TIP3    H161021   2.337   2.385  14.715 -0.9135  1.1330 -0.1869
13202TIP3    H261022   2.233   2.299  14.784  0.8441 -0.8376  0.0432
13203TIP3   OH261023   3.872   1.769  12.220  0.7836 -0.4181  0.3270
13203TIP3    H161024   3.886   1.760  12.314  0.6459 -1.6379  0.2339
13203TIP3    H261025   3.785   1.808  12.212  0.4482 -1.0722  0.6937
13204TIP3   OH261026   2.463   1.886  14.944 -0.1889 -0.3269 -0.0395
13204TIP3    H161027   2.400   1.868  14.874  1.1720  0.7100 -1.5727
13204TIP3    H261028   2.451   1.815  15.006 -2.2438 -0.6386 -0.7536
13205TIP3   OH261029   1.703   3.107  17.066  0.4679  0.2729 -0.4406
13205TIP3    H161030   1.796   3.118  17.046  0.3246 -0.8579 -1.8284
13205TIP3    H261031   1.699   3.033  17.127  0.4201 -0.1692 -0.9793
13206TIP3   OH261032   5.254   1.092   2.885 -0.1531  0.3843 -0.5062
13206TIP3    H161033   5.172   1.082   2.837 -1.2064  2.5403  0.7549
13206TIP3    H261034   5.294   1.170   2.846  1.5634 -0.9667 -1.4724
13207TIP3   OH261035   2.901   1.877   6.091  0.3432 -0.2142  0.2158
13207TIP3    H161036   2.965   1.821   6.135  2.4983  1.1474 -1.0658
13207TIP3    H261037   2.889   1.951   6.151  0.7018 -0.0114  0.0408
13208TIP3   OH261038   4.264   1.639   3.717  0.0721 -0.3915 -0.1148
13208TIP3    H161039   4.181   1.654   3.673 -0.9227 -0.5486  1.6630
13208TIP3    H261040   4.301   1.727   3.728 -0.2183 -0.2539 -0.2351
13209TIP3   OH261041   4.075   5.422  14.031  0.3927  0.0110 -0.3744
13209TIP3    H161042   4.092   5.483  13.959  2.9456  0.6212  0.6924
13209TIP3    H261043   4.111   5.466  14.108 -1.1279 -1.2076  1.0762
13210TIP3   OH261044   4.795   0.896  15.125  0.0352 -0.2683  0.1277
13210TIP3    H161045   4.764   0.897  15.034 -0.3852  0.2662  0.2777
13210TIP3    H261046   4.740   0.959  15.170 -0.2000 -1.0246  0.9082
13211TIP3   OH261047   2.743   6.141  14.389  0.3065  1.1088  0.4290
13211TIP3    H161048   2.697   6.196  14.325  1.7668  0.8936 -0.8209
13211TIP3    H261049   2.816   6.195  14.419  2.4248 -0.5169 -1.6488
13212TIP3   OH261050   1.001   4.523   0.182  0.2740 -0.3664  0.3192
13212TIP3    H161051   0.991   4.613   0.153 -0.0176 -0.7399 -0.7338
13212TIP3    H261052   1.004   4.471   0.102 -2.2463 -1.5904  0.9841
13213TIP3   OH261053   5.058   4.328  11.591  0.2494  0.0704  0.0224
13213TIP3    H161054   5.003   4.406  11.590 -1.1286 -0.7445  3.9177
13213TIP3    H261055   4.997   4.255  11.584  1.4607 -0.7559 -2.7666
13214TIP3   OH261056   3.182   2.468   0.346  0.1233  0.0916 -0.2745
13214TIP3    H161057   3.188   2.560   0.321  1.4676 -0.3925 -1.7687
13214TIP3    H261058   3.217   2.420   0.272 -0.8463 -1.6628  0.3718
13215TIP3   OH261059   5.932   4.417  13.871  0.0576  0.2816  0.3305
13215TIP3    H161060   5.968   4.505  13.865  0.8430 -0.0666 -0.2639
13215TIP3    H261061   5.981   4.367  13.805  0.2227 -0.7931  1.2491
13216TIP3   OH261062   2.389   4.625  12.880 -0.2355 -0.1661  0.4776
13216TIP3    H161063   2.437   4.543  12.867  0.0884 -0.0296  0.8042
13216TIP3    H261064   2.315   4.600  12.935  1.3855  0.2523  2.9685
13217TIP3   OH261065   0.097   5.204  12.734  0.3561  0.5852  0.5913
13217TIP3    H161066   0.048   5.218  12.653  1.1482 -0.4726 -0.0928
13217TIP3    H261067   0.078   5.113  12.758  1.7268  0.2628  0.4889
13218TIP3   OH261068   1.912   1.696   5.901 -0.0972 -0.2225  0.1906
13218TIP3    H161069   1.831   1.646   5.888  1.2485 -2.3423 -0.2877
13218TIP3    H261070   1.973   1.659   5.837  0.7340  2.5533 -0.6555
13219TIP3   OH261071   4.941   3.797  11.433  0.2178 -0.3037  0.1038
13219TIP3    H161072   5.032   3.771  11.420 -0.0228 -1.2661  0.2766
13219TIP3    H261073   4.902   3.796  11.346  0.3443 -0.0372  0.0466
13220TIP3   OH261074   3.328   3.998  16.386  0.3208 -0.2142  0.6174
13220TIP3    H161075   3.338   3.982  16.292 -0.0976  0.4415  0.4615
13220TIP3    H261076   3.367   4.084  16.400 -1.1358  0.4363  0.7445
13221TIP3   OH261077   5.260   4.615  12.027 -0.8789 -0.4189  0.1485
13221TIP3    H161078   5.206   4.691  12.050  0.5394  1.5746 -2.6594
13221TIP3    H261079   5.201   4.559  11.976 -2.0629 -1.4902  2.6119
13222TIP3   OH261080   5.326   2.741   6.284  0.1061 -0.3315  0.6213
13222TIP3    H161081   5.316   2.752   6.379  0.3904 -1.1216  0.7463
13222TIP3    H261082   5.419   2.725   6.272 -0.1578 -1.6777  0.3519
13223TIP3   OH261083   3.239   2.786   4.367  0.9482  0.2074 -0.0632
13223TIP3    H161084   3.173   2.728   4.331  2.3545 -1.4022 -0.1276
13223TIP3    H261085   3.321   2.758   4.325  1.4920  3.0099 -0.9871
13224TIP3   OH261086   2.296   0.358  11.890 -0.3399  0.0717 -0.0840
13224TIP3    H161087   2.360   0.429  11.886  0.6948 -0.9577 -1.8883
13224TIP3    H261088   2.236   0.376  11.818 -0.2126 -0.7489 -0.3950
13225TIP3   OH261089   3.545   0.365   1.034 -0.5707  0.0331  0.0749
13225TIP3    H161090   3.489   0.437   1.006 -0.7698  1.0550  2.9366
13225TIP3    H261091   3.484   0.297   1.063 -0.3741  0.0280  0.4897
13226TIP3   OH261092   6.003   5.266  12.046  0.2074  0.5196 -0.4689
13226TIP3    H161093   5.936   5.294  11.983 -1.7299 -1.3119  0.7020
13226TIP3    H261094   6.025   5.177  12.020 -0.0835  0.0049  0.9941
13227TIP3   OH261095   6.714   2.426   4.948 -0.1632  0.0444 -0.1944
13227TIP3    H161096   6.793   2.478   4.933 -0.0120  0.9846  3.3380
13227TIP3    H261097   6.645   2.474   4.903  0.8561  0.5101 -1.2897
13228TIP3   OH261098   3.733   2.883  17.127 -0.7482 -0.3636  0.0773
13228TIP3    H161099   3.781   2.965  17.129 -1.1527 -0.1619  2.6456
13228TIP3    H261100   3.683   2.882  17.209 -0.1447 -3.5241  0.4603
13229TIP3   OH261101   6.216   1.135   2.707 -0.1074  0.8106 -0.4048
13229TIP3    H161102   6.133   1.142   2.753 -0.1527  1.9934 -0.6622
13229TIP3    H261103   6.194   1.139   2.614  0.0104 -1.3163 -0.5373
13230TIP3   OH261104   6.408   1.538  12.831  0.3072  0.1408  0.5357
13230TIP3    H161105   6.490   1.537  12.781  0.2617 -0.7723  0.4736
13230TIP3    H261106   6.436   1.555  12.921  0.4839  0.7436  0.3703
13231TIP3   OH261107   5.455   1.187   0.967  0.6165 -0.2034 -0.2351
13231TIP3    H161108   5.370   1.208   0.928 -0.3448 -0.9337  1.4469
13231TIP3    H261109   5.477   1.263   1.020  2.3708  1.1950 -2.8663
13232TIP3   OH261110   2.268   4.153  11.327  0.3250 -0.0922 -0.2217
13232TIP3    H161111   2.189   4.144  11.273  0.2623 -0.7681 -0.0156
13232TIP3    H261112   2.339   4.124  11.269  0.2702 -0.7143  0.0192
13233TIP3   OH261113   1.081   6.660   0.982 -1.3389 -0.2157 -0.1811
13233TIP3    H161114   1.099   6.627   1.069  1.9322  2.0377  0.0917
13233TIP3    H261115   1.075   6.755   0.993  0.1432  0.1960 -2.5425
13234TIP3   OH261116   1.675   0.723   6.114  0.5918  0.8588  0.3638
13234TIP3    H161117   1.603   0.729   6.177 -0.1019  1.2901 -0.4563
13234TIP3    H261118   1.752   0.704   6.168 -0.1002  0.5457  1.2716
13235TIP3   OH261119   1.449   2.103  13.985  0.4719  0.2742 -0.1542
13235TIP3    H161120   1.452   2.032  14.050 -0.3173  0.4802  0.1189
13235TIP3    H261121   1.382   2.076  13.923 -0.3786  1.1167  0.3672
13236TIP3   OH261122   2.977   4.071   2.283 -0.5968  0.1592 -0.2389
13236TIP3    H161123   3.020   4.046   2.202 -1.1545  0.2701 -0.5713
13236TIP3    H261124   2.955   3.988   2.325 -0.2327  0.1033 -0.1625
13237TIP3   OH261125   2.559   4.669   5.988  0.0680 -0.2660 -0.0665
13237TIP3    H161126   2.559   4.627   5.902 -0.5599 -0.3644 -0.0226
13237TIP3    H261127   2.557   4.596   6.050 -1.7091 -0.1808  0.0026
13238TIP3   OH261128   3.104   5.907   5.633  0.6049  0.1907  0.3379
13238TIP3    H161129   3.183   5.922   5.582 -0.0470  1.3672 -0.3177
13238TIP3    H261130   3.137   5.878   5.719  1.7302  0.2463 -0.0645
13239TIP3   OH261131   4.744   0.722   5.343  0.0688 -0.0259  0.6139
13239TIP3    H161132   4.704   0.808   5.332 -0.5774 -0.1390  1.8875
13239TIP3    H261133   4.726   0.699   5.435 -0.5029 -1.8624  0.0656
13240TIP3   OH261134   5.266   2.883  13.355  0.2523 -0.2171 -0.0562
13240TIP3    H161135   5.271   2.959  13.297 -0.9387 -0.1787 -0.1288
13240TIP3    H261136   5.357   2.864  13.377  0.5449  1.5358  0.3618
13241TIP3   OH261137   3.827   3.568  17.142  0.1243  0.1828  0.5222
13241TIP3    H161138   3.873   3.485  17.125  0.5926  0.1340  1.9343
13241TIP3    H261139   3.898   3.632  17.152 -0.1906  0.5040  0.6745
13242TIP3   OH261140   4.267   1.788  10.567 -0.8865  0.0687  0.3929
13242TIP3    H161141   4.289   1.698  10.544 -1.1332 -0.0222  0.5005
13242TIP3    H261142   4.339   1.817  10.623 -0.2916  0.2921 -0.4915
13243TIP3   OH261143   5.911   5.010  15.296  0.4205  0.2895 -0.1563
13243TIP3    H161144   5.945   4.935  15.248 -0.9738 -0.8159  0.5315
13243TIP3    H261145   5.902   5.079  15.230 -1.4808 -1.2014 -1.5242
13244TIP3   OH261146   2.955   2.891   1.358  0.5292  0.3610  0.0617
13244TIP3    H161147   2.865   2.857   1.356  0.0899  1.5681 -1.3339
13244TIP3    H261148   2.980   2.885   1.450 -1.4948  1.3216  0.7086
13245TIP3   OH261149   0.916   3.208  16.148  0.0752  0.4837  0.4062
13245TIP3    H161150   0.897   3.181  16.238  0.6190  2.3774  1.1347
13245TIP3    H261151   0.996   3.261  16.156  1.2232 -0.9021 -1.4771
13246TIP3   OH261152   1.350   1.695  14.069  0.1102  0.5872 -0.3928
13246TIP3    H161153   1.378   1.674  14.158  0.2929  0.6595 -0.4352
13246TIP3    H261154   1.258   1.720  14.078 -0.2219 -0.5899 -0.3984
13247TIP3   OH261155   1.362   3.391  13.289 -0.3606  0.7278 -0.0308
13247TIP3    H161156   1.364   3.354  13.201  1.1217 -0.0397  0.2942
13247TIP3    H261157   1.429   3.460  13.288 -0.4711  0.8463  0.4392
13248TIP3   OH261158   4.932   0.991   2.147 -0.2678  0.6652 -0.0906
13248TIP3    H161159   4.879   0.957   2.218 -0.0143  2.2418  0.8941
13248TIP3    H261160   4.961   0.914   2.099 -2.4308 -0.2931  0.0684
13249TIP3   OH261161   5.784   5.181  11.655 -0.0795  0.1167  0.0383
13249TIP3    H161162   5.768   5.137  11.738  1.5033  0.2376  0.4166
13249TIP3    H261163   5.874   5.214  11.661  0.0588  0.1437 -1.7078
13250TIP3   OH261164   1.133   3.542   4.443  0.0802 -0.5794 -0.0489
13250TIP3    H161165   1.069   3.475   4.419 -1.2806  0.6567  0.0308
13250TIP3    H261166   1.184   3.557   4.364  0.5738 -1.9086  0.0165
13251TIP3   OH261167   3.166   4.905   2.057 -0.4460 -0.2102 -0.0141
13251TIP3    H161168   3.148   4.974   2.120 -0.2674  1.8804 -2.2064
13251TIP3    H261169   3.119   4.932   1.977  1.6480 -1.3535 -1.6828
13252TIP3   OH261170   4.760   4.378  12.787 -0.0371 -0.2361  0.1205
13252TIP3    H161171   4.854   4.391  12.771  0.1722 -0.5571  1.0810
13252TIP3    H261172   4.745   4.415  12.873 -0.3159 -2.3203  0.9986
13253TIP3   OH261173   3.906   6.581   0.997  0.2745 -0.0706  0.3193
13253TIP3    H161174   3.996   6.571   0.967 -0.2468 -2.5204 -0.5899
13253TIP3    H261175   3.855   6.529   0.935 -1.8240  1.6205  0.5773
13254TIP3   OH261176   1.222   2.828   2.848 -0.2197  0.5738  0.5888
13254TIP3    H161177   1.267   2.905   2.813  0.1491 -0.3730 -1.0508
13254TIP3    H261178   1.160   2.864   2.912  1.9584  1.9823  1.9759
13255TIP3   OH261179   4.612   3.195   2.957 -0.3826  0.1497  0.4374
13255TIP3    H161180   4.621   3.290   2.945 -0.1364 -0.0408 -0.8857
13255TIP3    H261181   4.700   3.166   2.982 -0.3968  0.2258  0.5774
13256TIP3   OH261182   5.476   6.180   1.420 -0.1418  0.0621  0.3883
13256TIP3    H161183   5.461   6.092   1.455  2.0524 -0.9803 -1.1565
13256TIP3    H261184   5.567   6.199   1.444 -0.2509  1.4404 -0.2621
13257TIP3   OH261185   3.624   1.004   1.708 -0.0870 -0.2189 -1.0255
13257TIP3    H161186   3.696   1.010   1.644  0.4027 -1.0490 -0.5602
13257TIP3    H261187   3.646   1.069   1.775  1.3157 -1.8845  0.1723
13258TIP3   OH261188   2.065   4.141   0.549  0.4197 -0.8042  0.4391
13258TIP3    H161189   2.031   4.057   0.520  0.9880 -0.7663 -0.3572
13258TIP3    H261190   2.058   4.198   0.472 -0.1169 -0.0800  1.0218
13259TIP3   OH261191   6.258   1.621  11.594 -0.2369  0.2576  0.1751
13259TIP3    H161192   6.232   1.636  11.685  0.2545 -0.3400  0.4188
13259TIP3    H261193   6.226   1.698  11.547  0.6827  1.2140  1.0763
13260TIP3   OH261194   2.970   1.349   6.656  0.3930 -0.0658 -0.3274
13260TIP3    H161195   2.929   1.294   6.589 -0.0841 -0.3799  0.2242
13260TIP3    H261196   2.990   1.289   6.728 -0.6089  0.5737  0.4960
13261TIP3   OH261197   0.947   4.174  16.991 -0.6420 -0.1099 -0.3705
13261TIP3    H161198   0.854   4.182  17.013 -0.8435 -0.8611 -0.9397
13261TIP3    H261199   0.985   4.256  17.020 -0.7809 -1.2851  3.3131
13262TIP3   OH261200   6.483   3.238  13.720 -0.0285  0.4490 -0.2349
13262TIP3    H161201   6.542   3.168  13.695 -0.8970 -0.9611  1.5922
13262TIP3    H261202   6.527   3.283  13.792  0.4712  1.7346 -1.3148
13263TIP3   OH261203   4.435   3.987   3.272  0.4372 -0.1989  0.1671
13263TIP3    H161204   4.463   3.919   3.333 -0.4305  0.6982  1.6020
13263TIP3    H261205   4.358   4.026   3.313 -0.4980  0.0706 -1.7681
13264TIP3   OH261206   5.557   6.355  11.170 -0.2243 -0.3735  0.1955
13264TIP3    H161207   5.577   6.261  11.168 -0.2125 -0.3641 -2.1594
13264TIP3    H261208   5.482   6.363  11.229  1.0854 -1.5617  2.0855
13265TIP3   OH261209   4.288   2.248  14.005 -0.0861 -0.5490  0.2188
13265TIP3    H161210   4.279   2.283  14.093  0.0272 -0.4549  0.1935
13265TIP3    H261211   4.380   2.222  13.998  0.1124  0.2047 -0.1453
13266TIP3   OH261212   6.678   0.120  12.524 -0.4737  0.1866 -0.0528
13266TIP3    H161213   6.626   0.162  12.592  0.1128  1.1000 -0.1632
13266TIP3    H261214   6.639   0.033  12.514 -0.6563  0.1100  1.3315
13267TIP3   OH261215   0.731   1.576   1.754 -0.3150  0.3793  0.2461
13267TIP3    H161216   0.818   1.610   1.734  0.7897 -1.8452  1.0845
13267TIP3    H261217   0.738   1.541   1.843 -1.6640 -1.0358 -0.1704
13268TIP3   OH261218   6.748   4.670   4.682 -0.4445 -0.0529  0.0293
13268TIP3    H161219   6.783   4.623   4.607  0.4323  0.5299  0.0595
13268TIP3    H261220   6.820   4.669   4.746 -0.0287  2.2121 -0.3740
13269TIP3   OH261221   5.770   0.565   1.271 -0.6004 -0.6407  0.3439
13269TIP3    H161222   5.692   0.576   1.218  0.5816 -1.3461 -1.5766
13269TIP3    H261223   5.794   0.654   1.297 -2.6204 -0.4891  1.8882
13270TIP3   OH261224   6.680   4.583   3.324  0.3224 -0.3309  0.3901
13270TIP3    H161225   6.607   4.578   3.262 -0.4506 -2.3695  1.4383
13270TIP3    H261226   6.652   4.531   3.399  2.7780 -0.9835  0.8967
13271TIP3   OH261227   1.756   4.496  11.808 -0.3219 -0.2970 -0.4926
13271TIP3    H161228   1.842   4.458  11.788  0.4060  0.1055  1.6922
13271TIP3    H261229   1.754   4.577  11.758  2.1575  1.5393  2.1250
13272TIP3   OH261230   5.721   1.387   2.066  0.3810 -0.1872  0.1430
13272TIP3    H161231   5.721   1.331   1.989  1.1008  1.3131 -0.9738
13272TIP3    H261232   5.641   1.438   2.059 -0.0120 -0.6922  0.8828
13273TIP3   OH261233   2.477   6.748  14.486 -0.2123  0.1657 -0.0969
13273TIP3    H161234   2.536   6.672  14.489  1.5444  1.5258  0.2215
13273TIP3    H261235   2.389   6.709  14.493  0.7338 -1.7311  2.0135
13274TIP3   OH261236   1.385   0.248   2.679  0.2265 -0.0206 -0.2340
13274TIP3    H161237   1.436   0.195   2.617  0.0867 -1.4206  0.8115
13274TIP3    H261238   1.310   0.278   2.628  1.2373  0.6817 -1.3381
13275TIP3   OH261239   0.335   0.456   0.164  0.0561 -0.2349  0.2771
13275TIP3    H161240   0.273   0.459   0.091  1.1589 -0.2327 -0.6804
13275TIP3    H261241   0.364   0.547   0.174  2.6061 -0.7738 -1.6790
13276TIP3   OH261242   1.673   6.133   1.734 -0.1554  0.5357 -0.1832
13276TIP3    H161243   1.634   6.102   1.816  0.3996 -0.8359 -0.4285
13276TIP3    H261244   1.766   6.145   1.754 -0.3077  1.7349 -0.1816
13277TIP3   OH261245   2.795   2.249  17.227 -0.3131  0.3166 -0.5979
13277TIP3    H161246   2.701   2.257  17.214 -0.4581 -1.3085 -0.7575
13277TIP3    H261247   2.811   2.154  17.223  1.6574  0.7194 -2.9328
13278TIP3   OH261248   6.247   5.205  12.152  0.0149  0.4519  0.6747
13278TIP3    H161249   6.172   5.247  12.111 -0.7903 -2.6334 -1.2031
13278TIP3    H261250   6.304   5.181  12.078  0.6646 -1.2547  1.6917
13279TIP3   OH261251   3.481   6.109   2.034  0.0945  0.1922 -0.1750
13279TIP3    H161252   3.493   6.187   2.089  1.4537  1.5904 -2.3486
13279TIP3    H261253   3.560   6.107   1.979 -1.0194 -1.3959 -1.7480
13280TIP3   OH261254   1.127   3.549   5.771  0.5084 -0.2476 -0.2260
13280TIP3    H161255   1.150   3.594   5.853 -2.7357 -0.2842  0.7786
13280TIP3    H261256   1.132   3.456   5.792  2.2045 -0.3219 -0.8533
13281TIP3   OH261257   6.231   5.157  15.756 -0.0214  0.2606 -0.1031
13281TIP3    H161258   6.147   5.136  15.798  0.5236 -0.6486  0.5371
13281TIP3    H261259   6.262   5.235  15.802 -0.4454  0.5121 -0.2419
13282TIP3   OH261260   5.945   5.354   1.249  0.5649 -0.4839 -0.9088
13282TIP3    H161261   5.979   5.319   1.167  1.8909 -0.7394 -0.2744
13282TIP3    H261262   5.944   5.449   1.236 -0.3558 -0.5838 -1.6281
13283TIP3   OH261263   3.579   2.997   3.715  1.1500  0.3494 -0.2502
13283TIP3    H161264   3.561   3.047   3.635  0.3123  3.9995  2.1042
13283TIP3    H261265   3.673   2.980   3.712  1.1713  0.6535 -1.8976
13284TIP3   OH261266   5.153   6.201  11.742  0.0403 -0.4133 -0.3773
13284TIP3    H161267   5.071   6.240  11.713  1.1421  1.4252 -1.0584
13284TIP3    H261268   5.213   6.213  11.669  1.4720  0.0161  0.8513
13285TIP3   OH261269   6.401   6.398  15.079  0.0202 -0.0295 -0.7871
13285TIP3    H161270   6.457   6.353  15.142  0.0179  2.0284  0.7233
13285TIP3    H261271   6.460   6.457  15.032 -0.5044  0.6422 -0.6116
13286TIP3   OH261272   3.829   0.557  11.363  0.1127 -0.0371  0.3709
13286TIP3    H161273   3.838   0.651  11.379 -0.3112  0.5838 -2.7467
13286TIP3    H261274   3.892   0.517  11.423  0.6439  2.2359  1.4127
13287TIP3   OH261275   0.067   4.469  15.858 -0.5551 -0.1510  0.0193
13287TIP3    H161276   0.046   4.453  15.950 -1.5693 -2.0294 -0.5071
13287TIP3    H261277   0.124   4.396  15.834 -0.1249  0.4479 -0.7908
13288TIP3   OH261278   2.480   2.613   4.566  0.5759 -0.5190  0.3735
13288TIP3    H161279   2.503   2.592   4.475  1.7914  0.5662  0.4131
13288TIP3    H261280   2.559   2.593   4.616  0.5236  0.6271  0.9229
13289TIP3   OH261281   4.828   4.965  12.315  0.3634  0.7211  0.3733
13289TIP3    H161282   4.841   5.035  12.250 -2.0961  1.3758  0.5502
13289TIP3    H261283   4.839   5.008  12.399 -1.6420  1.0565  0.4983
13290TIP3   OH261284   1.925   3.448   2.621 -0.1331 -0.3574  0.0147
13290TIP3    H161285   1.897   3.364   2.657 -1.6413 -0.3464 -1.1160
13290TIP3    H261286   1.887   3.452   2.534  0.8930  1.0006 -0.3988
13291TIP3   OH261287   6.451   1.788   2.908 -0.2571  0.3479  0.3378
13291TIP3    H161288   6.468   1.842   2.986  0.1659  2.4860 -1.2037
13291TIP3    H261289   6.375   1.735   2.933  0.3154  0.4721  2.4815
13292TIP3   OH261290   5.068   5.708  14.102  0.1929  0.4810  0.5955
13292TIP3    H161291   4.979   5.688  14.072  1.4000 -1.6189 -1.7515
13292TIP3    H261292   5.067   5.686  14.195 -2.0044  1.4220  0.8187
13293TIP3   OH261293   2.939   1.861   2.737 -0.4191 -0.7675  0.4515
13293TIP3    H161294   2.977   1.835   2.821  0.4213 -1.4762 -0.1362
13293TIP3    H261295   3.003   1.921   2.699 -0.3934 -1.1187 -0.0618
13294TIP3   OH261296   4.133   3.510   2.443 -0.0957  0.6783  0.3113
13294TIP3    H161297   4.041   3.515   2.415 -0.5054 -0.5403  1.3949
13294TIP3    H261298   4.145   3.418   2.468  1.5962  0.7002 -0.4087
13295TIP3   OH261299   0.515   1.766   1.039  0.1307 -0.1255 -0.0761
13295TIP3    H161300   0.465   1.720   0.972  0.3741 -0.9705  0.3077
13295TIP3    H261301   0.603   1.774   1.001 -0.5114  2.2011 -1.1396
13296TIP3   OH261302   4.262   5.898  13.405 -0.2606  0.3954  0.0626
13296TIP3    H161303   4.254   5.906  13.500  1.4077  0.6575  0.2045
13296TIP3    H261304   4.334   5.957  13.382  1.2731 -1.8020 -0.9824
13297TIP3   OH261305   1.640   0.562  12.921  0.0711  0.2470 -0.1084
13297TIP3    H161306   1.694   0.503  12.868 -1.2772  0.7667 -2.1015
13297TIP3    H261307   1.566   0.508  12.950  0.9497 -0.1130  1.5223
13298TIP3   OH261308   5.095   6.124   0.184  0.0470 -0.6763  0.5453
13298TIP3    H161309   5.026   6.096   0.124 -0.1861  3.7371 -1.4643
13298TIP3    H261310   5.049   6.149   0.264 -0.4410  0.0976  0.0276
13299TIP3   OH261311   1.132   2.985   0.506 -0.2134  0.0115 -0.2164
13299TIP3    H161312   1.115   2.966   0.598  1.5584  0.1344  0.1647
13299TIP3    H261313   1.079   3.062   0.487 -0.5711 -0.0008  0.7122
13300TIP3   OH261314   4.857   0.609   1.010  0.2400  0.3123 -0.0824
13300TIP3    H161315   4.821   0.538   1.064  1.2787  0.6003  1.0093
13300TIP3    H261316   4.814   0.688   1.042 -0.9420  0.2003 -1.3228
13301TIP3   OH261317   0.673   3.438  17.017  0.2521  0.1319  0.0622
13301TIP3    H161318   0.704   3.525  16.993 -1.3702  0.6229 -0.3576
13301TIP3    H261319   0.584   3.434  16.980  0.5230 -1.9074 -0.4165
13302TIP3   OH261320   3.828   4.571  14.353  0.3653  0.0558 -0.5358
13302TIP3    H161321   3.815   4.603  14.442 -0.6856  2.2195 -1.4120
13302TIP3    H261322   3.914   4.605  14.328  0.1128  0.5357 -0.7687
13303TIP3   OH261323   4.589   2.591  12.907  0.2443  0.1450 -0.5292
13303TIP3    H161324   4.523   2.660  12.898  0.7596  0.4716 -1.8817
13303TIP3    H261325   4.541   2.518  12.946 -1.1961  0.0184 -2.4666
13304TIP3   OH261326   0.668   0.388  16.096 -0.4993  0.3519  0.0017
13304TIP3    H161327   0.629   0.419  16.015  0.2954  1.0468 -0.1128
13304TIP3    H261328   0.692   0.467  16.143 -0.7167 -0.0486  0.8088
13305TIP3   OH261329   1.217   3.711  11.662  0.1290 -0.2502 -0.2759
13305TIP3    H161330   1.131   3.673  11.677  0.3127 -0.1360  1.1613
13305TIP3    H261331   1.278   3.651  11.705  0.6606  0.2526 -0.3240
13306TIP3   OH261332   4.371   3.133  13.769 -0.0647 -0.0966 -0.8268
13306TIP3    H161333   4.321   3.184  13.705 -0.0789  0.9478 -0.0014
13306TIP3    H261334   4.461   3.165  13.759  0.0743 -0.4955 -0.8638
13307TIP3   OH261335   2.103   2.159  10.313  0.2960 -0.3629  0.1003
13307TIP3    H161336   2.024   2.208  10.334  0.5111  2.0286 -4.0577
13307TIP3    H261337   2.072   2.076  10.278 -0.3040 -0.4103  0.7427
13308TIP3   OH261338   0.287   3.941   2.677  0.4704  0.3965 -0.2261
13308TIP3    H161339   0.303   3.888   2.754  0.9444  2.9299  1.4700
13308TIP3    H261340   0.374   3.961   2.642  0.2324 -1.7458 -2.1845
13309TIP3   OH261341   2.919   6.426   5.924  0.7758 -0.2704 -0.3540
13309TIP3    H161342   2.914   6.365   5.998  0.0214 -0.2806 -0.4097
13309TIP3    H261343   2.852   6.492   5.942  0.9913  0.0556 -0.7337
13310TIP3   OH261344   3.649   4.567   6.144  0.5951  0.0338  0.6914
13310TIP3    H161345   3.697   4.567   6.061 -0.8497  1.1731 -0.1864
13310TIP3    H261346   3.654   4.658   6.174 -0.6782  0.1022  0.7459
13311TIP3   OH261347   6.580   3.730   0.600  0.1181  0.3401 -0.2770
13311TIP3    H161348   6.581   3.786   0.678 -1.4488  0.7594 -0.5440
13311TIP3    H261349   6.494   3.688   0.602  0.1043  0.2881 -1.7154
13312TIP3   OH261350   2.409   3.641  16.061 -0.1364  0.2847  0.2721
13312TIP3    H161351   2.427   3.561  16.110  0.2022 -0.0701 -0.4257
13312TIP3    H261352   2.317   3.660  16.077 -0.1771 -0.1621  0.5555
13313TIP3   OH261353   1.112   4.754  14.924  0.3315  0.1841  0.3066
13313TIP3    H161354   1.019   4.752  14.948  0.1715  2.5461 -0.0376
13313TIP3    H261355   1.153   4.809  14.990  1.0856  0.9820 -0.7957
13314TIP3   OH261356   5.803   2.047   1.834 -0.3929 -0.3959  0.2030
13314TIP3    H161357   5.763   2.128   1.804 -0.7730 -0.5249  0.3521
13314TIP3    H261358   5.752   1.978   1.792 -0.6462 -0.5691  0.7869
13315TIP3   OH261359   5.291   3.838   5.550 -0.0523 -0.1832  0.2041
13315TIP3    H161360   5.371   3.800   5.513 -0.0126 -1.1479  1.2553
13315TIP3    H261361   5.229   3.766   5.550 -0.9241  0.5554 -0.5700
13316TIP3   OH261362   1.252   3.506  12.018  0.4519 -0.4512  0.0448
13316TIP3    H161363   1.256   3.414  12.045  1.6134 -0.6611 -0.8029
13316TIP3    H261364   1.289   3.507  11.930  0.3108  0.8089 -0.0094
13317TIP3   OH261365   0.770   2.707  16.936 -0.2918 -0.3243  0.3398
13317TIP3    H161366   0.775   2.773  17.005 -1.5064  2.2774 -1.9561
13317TIP3    H261367   0.861   2.694  16.909 -0.0405  0.3880  0.8167
13318TIP3   OH261368   3.726   1.924   0.638 -0.1639 -0.3137 -0.2849
13318TIP3    H161369   3.716   2.006   0.590 -0.8193 -0.1773  0.0809
13318TIP3    H261370   3.654   1.869   0.607  0.4049 -0.8365 -0.6966
13319TIP3   OH261371   1.657   1.147  12.147  0.9009 -0.0017  0.2384
13319TIP3    H161372   1.614   1.232  12.147 -0.0760 -0.4883  0.2293
13319TIP3    H261373   1.597   1.089  12.099  0.6395 -1.1405  1.8847
13320TIP3   OH261374   3.941   2.347   3.846  0.4836  0.3482  0.5423
13320TIP3    H161375   3.956   2.441   3.855 -0.9325  0.7471 -0.8619
13320TIP3    H261376   3.935   2.333   3.751  1.2716 -1.2618  0.7086
13321TIP3   OH261377   3.169   0.116  15.297 -0.1109  0.2629 -0.2533
13321TIP3    H161378   3.157   0.066  15.216  0.4228  1.2615 -0.9559
13321TIP3    H261379   3.105   0.187  15.291  0.5893  0.9092 -0.2735
13322TIP3   OH261380   0.456   0.141  14.490  0.0568  0.5285 -0.2966
13322TIP3    H161381   0.523   0.183  14.545 -1.4751  2.6970 -0.0456
13322TIP3    H261382   0.396   0.211  14.467 -3.1902 -1.7543  0.9813
13323TIP3   OH261383   5.978   0.097   0.592 -0.4994  0.1713  0.3688
13323TIP3    H161384   5.987   0.002   0.599 -2.3799 -0.0144  0.5753
13323TIP3    H261385   5.911   0.119   0.657 -0.1034  1.6462  0.2998
13324TIP3   OH261386   6.291   5.451  13.613  0.1778  0.0930  0.3932
13324TIP3    H161387   6.381   5.424  13.630 -0.0002 -0.3970  0.5479
13324TIP3    H261388   6.249   5.451  13.698 -0.0412  0.0589  0.2850
13325TIP3   OH261389   3.793   0.249   1.012  0.1847  0.2515  0.0654
13325TIP3    H161390   3.780   0.182   1.078 -0.4330  0.7062  0.4123
13325TIP3    H261391   3.711   0.299   1.011  0.6847  1.0900 -0.0721
13326TIP3   OH261392   3.888   4.838  12.006  0.4640  0.0015  0.1269
13326TIP3    H161393   3.958   4.879  12.056  0.1143 -0.1140  0.7094
13326TIP3    H261394   3.890   4.746  12.033 -0.1541  0.0738  0.4219
13327TIP3   OH261395   5.141   3.992   1.009 -0.0573 -0.3259  0.2474
13327TIP3    H161396   5.204   3.932   0.968  1.2570 -0.6883  2.7495
13327TIP3    H261397   5.092   3.937   1.070  1.9819  1.3228  3.4737
13328TIP3   OH261398   4.601   2.732  11.233  0.0123 -0.0637  0.0936
13328TIP3    H161399   4.687   2.717  11.195 -0.5719 -3.2263 -0.1195
13328TIP3    H261400   4.549   2.768  11.162  0.0952 -1.9224 -0.9396
13329TIP3   OH261401   2.113   5.890   3.787 -0.4835  0.0043 -0.1295
13329TIP3    H161402   2.063   5.963   3.750 -0.6179 -0.6991 -1.3505
13329TIP3    H261403   2.084   5.813   3.738  1.4590 -0.4916 -0.5513
13330TIP3   OH261404   4.808   0.334  11.251  0.2285 -0.1280 -0.4856
13330TIP3    H161405   4.854   0.386  11.316 -0.2653 -0.1868 -0.0901
13330TIP3    H261406   4.875   0.312  11.186  0.6918  0.0297 -0.0606
13331TIP3   OH261407   4.247   5.580  11.850 -0.6717 -0.1807  0.7113
13331TIP3    H161408   4.320   5.605  11.906 -0.9916  1.1769  0.5371
13331TIP3    H261409   4.262   5.488  11.829  2.1762  0.6434 -1.1350
13332TIP3   OH261410   3.110   0.730   0.050  0.1908  0.2160  0.4464
13332TIP3    H161411   3.060   0.810   0.070  2.1269  1.5063  0.3102
13332TIP3    H261412   3.157   0.752  -0.030 -1.0367 -1.9330 -0.9055
13333TIP3   OH261413   0.171   3.416  12.371  0.1327  0.2514  0.0858
13333TIP3    H161414   0.178   3.462  12.288  0.1240  0.5757  0.2629
13333TIP3    H261415   0.228   3.339  12.361 -0.6865 -0.2719 -0.5844
13334TIP3   OH261416   1.235   3.795  16.248  0.1262 -0.2760  0.0629
13334TIP3    H161417   1.165   3.760  16.193  0.9865  0.3927 -1.4803
13334TIP3    H261418   1.227   3.747  16.330 -0.7709 -1.7601 -0.8671
13335TIP3   OH261419   4.261   0.323  11.931 -0.1127  0.0901 -0.2382
13335TIP3    H161420   4.281   0.259  11.862  1.2244  0.3415 -0.1072
13335TIP3    H261421   4.196   0.381  11.891  0.0792 -0.2154 -1.0221
13336TIP3   OH261422   4.725   6.178  11.093 -0.1571  0.2529  0.0094
13336TIP3    H161423   4.795   6.220  11.043 -0.4102  0.2514 -0.3487
13336TIP3    H261424   4.737   6.210  11.182  0.5219 -0.0320  0.0268
13337TIP3   OH261425   3.316   3.781   4.913 -0.1224 -0.4959 -0.2218
13337TIP3    H161426   3.353   3.773   5.001  2.0186 -0.4024 -1.0770
13337TIP3    H261427   3.328   3.694   4.874  0.2214 -0.1510 -0.8931
13338TIP3   OH261428   0.243   4.486  15.005  0.1789  0.3734  0.1338
13338TIP3    H161429   0.281   4.401  15.025  0.1066 -0.1311 -1.8178
13338TIP3    H261430   0.153   4.467  14.978  0.9527  0.7378 -2.9322
13339TIP3   OH261431   0.321   4.056  10.904 -0.3034 -0.8321 -0.1224
13339TIP3    H161432   0.290   3.996  10.836  1.6996  0.2542 -2.0651
13339TIP3    H261433   0.300   4.143  10.871  2.3431 -0.2010 -0.2761
13340TIP3   OH261434   4.467   4.883   0.670 -0.3479  0.0779  0.0294
13340TIP3    H161435   4.419   4.965   0.664 -1.1939 -0.4509 -0.3888
13340TIP3    H261436   4.427   4.836   0.743 -0.0049 -0.0637  0.1312
13341TIP3   OH261437   2.000   4.561  16.277  0.0056 -0.7399  0.0515
13341TIP3    H161438   1.990   4.650  16.311 -3.1120 -0.9923 -0.0991
13341TIP3    H261439   1.970   4.504  16.347  1.9526 -1.7068  0.1317
13342TIP3   OH261440   1.170   6.163  10.906  0.5670  0.0597 -0.3742
13342TIP3    H161441   1.264   6.176  10.917  0.6416 -0.5444 -0.2749
13342TIP3    H261442   1.157   6.161  10.811  0.7469 -0.4967 -0.3887
13343TIP3   OH261443   4.397   3.493  16.835  0.0243 -0.4846  0.1920
13343TIP3    H161444   4.432   3.484  16.923 -0.7328  1.4568  0.7276
13343TIP3    H261445   4.321   3.551  16.845 -1.7289 -2.4481 -1.3327
13344TIP3   OH261446   1.503   2.230  15.559 -0.7402  0.1942 -0.3684
13344TIP3    H161447   1.573   2.213  15.622 -1.3692 -1.1229 -0.0168
13344TIP3    H261448   1.531   2.310  15.514  0.2639  0.5193  0.7941
13345TIP3   OH261449   1.719   4.863   2.403  0.9070 -0.2549  0.5875
13345TIP3    H161450   1.782   4.926   2.437  1.1241  1.5094 -2.9727
13345TIP3    H261451   1.767   4.814   2.336 -0.7036 -0.8496 -0.1543
13346TIP3   OH261452   2.148   3.547   6.190 -0.6631  0.1405 -0.0518
13346TIP3    H161453   2.154   3.553   6.285 -0.0795  0.6461 -0.1213
13346TIP3    H261454   2.082   3.479   6.175  4.3477 -5.3233  0.6900
13347TIP3   OH261455   5.934   4.572  15.206 -0.4154  0.3799 -0.2494
13347TIP3    H161456   5.872   4.599  15.273  0.0535 -0.0396  0.3563
13347TIP3    H261457   5.989   4.649  15.192 -0.1955  0.3012  0.2014
13348TIP3   OH261458   4.460   4.191   1.015 -0.3473  0.2075  0.0071
13348TIP3    H161459   4.438   4.276   1.053 -1.6525 -0.6245  1.1530
13348TIP3    H261460   4.398   4.181   0.942 -1.5794 -0.6530  1.1512
13349TIP3   OH261461   1.089   5.497  12.826  0.1892 -1.0664  0.2496
13349TIP3    H161462   1.134   5.539  12.899 -0.6290 -0.2886  0.3201
13349TIP3    H261463   0.998   5.524  12.836 -0.1449 -1.9517 -0.3594
13350TIP3   OH261464   2.656   1.449   1.738 -0.0836 -0.2238 -0.1201
13350TIP3    H161465   2.616   1.366   1.763 -0.4899 -0.6817 -2.1463
13350TIP3    H261466   2.750   1.430   1.735 -0.1791 -0.6239 -0.6129
13351TIP3   OH261467   6.781   0.192  13.911  0.0645  0.2268 -0.4418
13351TIP3    H161468   6.811   0.216  13.823 -0.4251 -2.4542 -1.3737
13351TIP3    H261469   6.861   0.189  13.963  0.8074 -1.4636 -1.6148
13352TIP3   OH261470   4.816   1.345   6.499 -0.4726 -0.0348 -0.0854
13352TIP3    H161471   4.832   1.430   6.456  0.9269  0.3876  1.2395
13352TIP3    H261472   4.734   1.358   6.546 -0.2361  0.6021  0.1590
13353TIP3   OH261473   5.519   6.502   4.523 -0.2971  0.1271 -0.2312
13353TIP3    H161474   5.608   6.468   4.524 -0.0012  0.8939 -0.5238
13353TIP3    H261475   5.528   6.592   4.494 -1.0443  0.5477  0.8124
13354TIP3   OH261476   3.399   5.051  16.180 -0.3271 -0.3188 -0.1071
13354TIP3    H161477   3.338   5.102  16.127  2.1268  0.5121 -2.2125
13354TIP3    H261478   3.462   5.017  16.117  1.7674 -0.6148  2.1033
13355TIP3   OH261479   5.147   5.301  15.545 -0.1420 -0.3047 -0.2902
13355TIP3    H161480   5.235   5.332  15.525 -0.3711 -0.1513 -1.0747
13355TIP3    H261481   5.098   5.315  15.464 -1.2285  0.8368  0.5387
13356TIP3   OH261482   5.107   3.303   1.269  0.4996 -0.7206 -0.0810
13356TIP3    H161483   5.067   3.302   1.357 -0.6948  1.0039 -0.5739
13356TIP3    H261484   5.101   3.394   1.242 -1.9405 -1.7435 -3.2267
13357TIP3   OH261485   6.337   1.759   2.302  0.1175 -0.6996 -0.2880
13357TIP3    H161486   6.368   1.670   2.320 -0.4558 -0.4046  2.2160
13357TIP3    H261487   6.327   1.799   2.388 -3.3915  0.5299 -1.2084
13358TIP3   OH261488   0.874   0.985   2.319  0.2336  0.1264 -0.3482
13358TIP3    H161489   0.915   0.910   2.275  1.0998 -0.7322  1.8952
13358TIP3    H261490   0.780   0.966   2.318  0.3441 -0.3836 -0.8750
13359TIP3   OH261491   0.934   4.045  16.247 -0.1658  0.2149 -0.1081
13359TIP3    H161492   1.021   4.052  16.209 -0.1752 -0.6771 -0.3160
13359TIP3    H261493   0.902   3.959  16.219 -0.3131 -0.3151  1.6074
13360TIP3   OH261494   6.743   3.781  12.268 -0.1682 -0.6396 -0.4104
13360TIP3    H161495   6.679   3.714  12.291 -0.0474  0.0464  1.9838
13360TIP3    H261496   6.696   3.864  12.277  0.0051 -0.3016 -2.2815
13361TIP3   OH261497   3.439   1.406   5.505  0.1136  0.1097 -0.0572
13361TIP3    H161498   3.396   1.328   5.469  1.2298 -1.3673  1.7167
13361TIP3    H261499   3.375   1.445   5.563  0.2447 -0.6351  0.5976
13362TIP3   OH261500   0.632   2.488  16.994 -0.3517 -0.7667 -0.0290
13362TIP3    H161501   0.665   2.577  16.994  2.4191 -1.7332  1.4833
13362TIP3    H261502   0.661   2.452  16.910  1.9183 -1.3689  0.9642
13363TIP3   OH261503   3.946   2.786  11.661 -0.3707  0.0063 -0.4416
13363TIP3    H161504   3.928   2.877  11.636 -0.8594 -0.0921 -0.4577
13363TIP3    H261505   4.030   2.766  11.619 -0.6015  0.2258 -1.0125
13364TIP3   OH261506   1.484   5.095  15.059  0.5199  0.2190 -0.5354
13364TIP3    H161507   1.416   5.163  15.057  2.8180  2.6623  0.8922
13364TIP3    H261508   1.526   5.107  15.144 -0.3777 -4.4353  0.6648
13365TIP3   OH261509   6.276   5.666   4.997  0.5185 -0.0199  0.1085
13365TIP3    H161510   6.286   5.581   4.955  0.0781 -1.4069  2.7131
13365TIP3    H261511   6.310   5.729   4.933 -0.9461 -1.9469 -2.6213
13366TIP3   OH261512   2.032   1.188  11.462  0.1075  0.2568 -0.2190
13366TIP3    H161513   1.945   1.207  11.499 -1.2194 -0.2091 -2.9439
13366TIP3    H261514   2.078   1.272  11.465 -1.9517  1.5342 -2.4655
13367TIP3   OH261515   5.542   5.031  12.434 -0.2925 -0.3148  0.0778
13367TIP3    H161516   5.548   4.960  12.369 -0.9972  1.0913 -1.5622
13367TIP3    H261517   5.466   5.081  12.407  0.9350  1.8061  0.4818
13368TIP3   OH261518   0.467   4.549  11.089 -0.0450  0.6273 -0.6783
13368TIP3    H161519   0.421   4.602  11.154  0.6039 -1.0560  1.1725
13368TIP3    H261520   0.558   4.547  11.118  0.4153  0.5391 -2.0886
13369TIP3   OH261521   2.801   0.636   5.800  0.0211 -0.9686  0.1624
13369TIP3    H161522   2.794   0.705   5.865  2.7914  0.4411 -0.9695
13369TIP3    H261523   2.770   0.557   5.846 -1.3824  0.6356  2.0514
13370TIP3   OH261524   3.573   4.140   5.825 -0.1218  1.0044  0.5976
13370TIP3    H161525   3.493   4.189   5.807 -0.0423  0.8687 -0.1341
13370TIP3    H261526   3.551   4.084   5.899 -1.6288 -1.2823 -1.5212
13371TIP3   OH261527   3.528   1.748  15.730  0.4484  0.1305 -0.1417
13371TIP3    H161528   3.622   1.733  15.741  0.5204  0.9091  0.3873
13371TIP3    H261529   3.497   1.766  15.819 -0.6614 -2.5543  0.0652
13372TIP3   OH261530   4.519   0.432  16.589 -0.0844  0.6177  0.8036
13372TIP3    H161531   4.542   0.515  16.630 -0.9531  1.4292 -0.3340
13372TIP3    H261532   4.569   0.431  16.507  1.0519 -0.6557  1.4702
13373TIP3   OH261533   3.823   3.648   4.383  0.1245  0.4433 -0.0455
13373TIP3    H161534   3.854   3.723   4.332 -1.2129  0.3069 -1.0658
13373TIP3    H261535   3.784   3.589   4.319  1.9011 -1.5551  0.6275
13374TIP3   OH261536   3.624   1.866   2.437 -0.2518 -0.1802 -0.0614
13374TIP3    H161537   3.591   1.944   2.482 -1.4794 -0.4431 -0.4827
13374TIP3    H261538   3.674   1.820   2.503  0.2124  0.8049  0.2875
13375TIP3   OH261539   2.544   2.842   2.927  0.2482 -0.0885 -0.0138
13375TIP3    H161540   2.633   2.853   2.960 -0.0224  0.4531  0.5433
13375TIP3    H261541   2.488   2.881   2.995 -0.2794  1.4826 -1.3285
13376TIP3   OH261542   1.446   1.361   0.443 -0.4600 -0.3936  0.0428
13376TIP3    H161543   1.479   1.322   0.363  1.5210  0.6606  0.2994
13376TIP3    H261544   1.351   1.367   0.430 -0.0418  0.9615 -2.7641
13377TIP3   OH261545   3.350   6.025  11.707  0.2147 -0.2950 -0.4659
13377TIP3    H161546   3.408   6.094  11.673 -0.4084  0.1214 -0.6915
13377TIP3    H261547   3.405   5.976  11.768  1.0143 -0.3494 -1.2193
13378TIP3   OH261548   3.616   0.584  15.317  0.0470  0.2939  0.4383
13378TIP3    H161549   3.605   0.518  15.248 -0.9073 -0.1817  1.0310
13378TIP3    H261550   3.557   0.555  15.387  0.5061  1.1395  1.1818
13379TIP3   OH261551   2.721   6.172  17.210  0.2251  1.1391 -0.0120
13379TIP3    H161552   2.800   6.223  17.194  0.5819  0.7544  0.5191
13379TIP3    H261553   2.744   6.112  17.280  0.5903 -1.5514 -2.3559
13380TIP3   OH261554   0.210   2.900   2.313 -0.8991  0.2074  0.2098
13380TIP3    H161555   0.185   2.962   2.244  1.6857  0.3267 -0.6723
13380TIP3    H261556   0.148   2.828   2.305 -0.1917 -0.1281 -2.7547
13381TIP3   OH261557   0.179   3.848  15.119 -0.4495  0.0656 -0.7353
13381TIP3    H161558   0.135   3.890  15.193  1.0076 -0.9111  0.7124
13381TIP3    H261559   0.272   3.850  15.143  0.0709  0.0317 -2.7010
13382TIP3   OH261560   0.262   4.060  15.579 -0.5712 -0.1096  0.0445
13382TIP3    H161561   0.285   3.972  15.548 -0.7459 -0.5128  1.0682
13382TIP3    H261562   0.170   4.070  15.554 -0.8111 -0.5693  0.7503
13383TIP3   OH261563   3.864   0.233  11.191  0.1994  0.0469  0.2320
13383TIP3    H161564   3.779   0.238  11.148  0.7243 -0.0651 -0.8499
13383TIP3    H261565   3.919   0.294  11.142  1.5978 -2.2548 -1.1541
13384TIP3   OH261566   0.939   0.298  10.838  0.1321  0.6448  0.2316
13384TIP3    H161567   0.909   0.389  10.831  0.4487  0.8846  1.6249
13384TIP3    H261568   1.020   0.295  10.788 -0.4443  0.8587 -0.7139
13385TIP3   OH261569   6.748   0.589   0.505 -0.2266  0.4050  0.1748
13385TIP3    H161570   6.823   0.621   0.554 -1.0668  1.0919  1.0248
13385TIP3    H261571   6.762   0.620   0.416  1.7253 -1.5379 -0.2525
13386TIP3   OH261572   1.345   5.494  12.118 -0.8424  0.0263 -0.1776
13386TIP3    H161573   1.250   5.490  12.103 -0.7243  0.6927 -1.1187
13386TIP3    H261574   1.376   5.562  12.059  0.0761  0.5835  0.9250
13387TIP3   OH261575   1.426   0.937  11.432 -0.0642 -0.3339  0.4370
13387TIP3    H161576   1.403   1.012  11.487  1.4785  1.1207 -0.8515
13387TIP3    H261577   1.484   0.884  11.487 -0.8817 -0.4123  1.2307
13388TIP3   OH261578   1.511   3.256   0.449 -0.1397 -0.8703 -0.0361
13388TIP3    H161579   1.545   3.278   0.363 -0.0380  0.0887  0.2448
13388TIP3    H261580   1.582   3.207   0.491 -0.2808 -1.5507 -0.5728
13389TIP3   OH261581   4.837   4.650   4.662 -0.0792 -0.1164 -0.0990
13389TIP3    H161582   4.839   4.662   4.567  1.1566 -1.3560 -0.2476
13389TIP3    H261583   4.750   4.614   4.680 -0.5488  0.7317 -0.6828
13390TIP3   OH261584   3.252   2.650  11.198 -0.8623  0.3196 -0.7339
13390TIP3    H161585   3.284   2.740  11.204  1.0987 -0.3492 -0.6650
13390TIP3    H261586   3.172   2.656  11.147  0.1725  1.9008 -2.2166
13391TIP3   OH261587   0.117   4.501  11.233  0.4509  0.0145 -0.4482
13391TIP3    H161588   0.163   4.577  11.267  0.0039  0.2829 -0.4445
13391TIP3    H261589   0.184   4.451  11.187  1.1182 -0.4961  1.0481
13392TIP3   OH261590   1.841   2.378  12.651 -0.6158 -0.1024  0.1729
13392TIP3    H161591   1.768   2.384  12.589 -0.0650  0.6549 -0.4084
13392TIP3    H261592   1.807   2.416  12.732 -1.1014 -0.4270  0.1255
13393TIP3   OH261593   3.564   0.259   5.670 -0.2803 -1.4171  0.5357
13393TIP3    H161594   3.481   0.298   5.643  1.4528  1.4305 -0.8990
13393TIP3    H261595   3.572   0.282   5.763  0.3355  1.0587 -0.0936
13394TIP3   OH261596   1.764   5.344   5.797 -0.0968 -0.4223  0.2671
13394TIP3    H161597   1.786   5.260   5.756 -1.0491 -0.3807 -0.3359
13394TIP3    H261598   1.669   5.350   5.789 -0.1172  0.3399  1.0460
13395TIP3   OH261599   4.751   5.275  13.438 -0.0009  0.0683 -0.7116
13395TIP3    H161600   4.796   5.247  13.358  2.1788  0.0894  0.4668
13395TIP3    H261601   4.776   5.209  13.504 -1.8027  0.0279 -0.0512
13396TIP3   OH261602   4.567   1.097  13.250  0.1514 -0.4113 -0.4774
13396TIP3    H161603   4.568   1.157  13.324 -0.2095 -1.3618  0.3085
13396TIP3    H261604   4.482   1.112  13.208  0.2675 -0.0319 -0.5867
13397TIP3   OH261605   1.155   6.541   2.656  0.0785  0.3248  0.0968
13397TIP3    H161606   1.110   6.471   2.704  1.4200 -1.1055 -0.7054
13397TIP3    H261607   1.211   6.582   2.722 -0.0589  0.0724  0.3742
13398TIP3   OH261608   6.198   2.846   4.759  0.7222  0.1720  0.5488
13398TIP3    H161609   6.138   2.883   4.694 -0.8940 -0.3427  1.7186
13398TIP3    H261610   6.163   2.758   4.775  1.7354 -0.0863  1.3248
13399TIP3   OH261611   1.587   4.984   4.331  0.4327 -1.0864  0.4571
13399TIP3    H161612   1.661   4.960   4.275  0.4898 -0.6515  0.3411
13399TIP3    H261613   1.518   5.009   4.269  0.8306  0.3951  0.5726
13400TIP3   OH261614   5.450   4.387  14.772  0.2519 -0.4611  0.4037
13400TIP3    H161615   5.443   4.478  14.801 -1.9318 -0.6363  0.4908
13400TIP3    H261616   5.507   4.391  14.695 -0.9116  1.1648 -0.3865
13401TIP3   OH261617   4.389   2.924   1.914  0.2640  0.2497 -0.5228
13401TIP3    H161618   4.330   2.978   1.861  0.4786 -0.1448 -1.1702
13401TIP3    H261619   4.376   2.835   1.880  0.5163  0.0201 -0.0108
13402TIP3   OH261620   0.391   1.824  11.167 -0.1283  0.2825 -0.0817
13402TIP3    H161621   0.484   1.849  11.163 -0.1013  0.1796 -0.0993
13402TIP3    H261622   0.347   1.883  11.106  0.0859 -0.4026 -0.9101
13403TIP3   OH261623   4.835   1.330  16.282 -1.0429 -0.1268 -0.0120
13403TIP3    H161624   4.912   1.325  16.339 -0.7541 -0.3281 -0.4160
13403TIP3    H261625   4.765   1.290  16.333 -0.8881  0.0971  0.3787
13404TIP3   OH261626   1.369   4.351  16.430  0.5561  0.2130  0.4334
13404TIP3    H161627   1.437   4.294  16.395 -0.2906 -0.2460 -0.4826
13404TIP3    H261628   1.417   4.419  16.477  1.6124 -0.6043  0.5562
13405TIP3   OH261629   1.873   4.649   0.866  0.0647  0.4956  0.4102
13405TIP3    H161630   1.822   4.631   0.787  0.3273 -1.4821  0.6567
13405TIP3    H261631   1.808   4.651   0.936 -0.0213  1.0342  0.3198
13406TIP3   OH261632   6.268   1.717  13.483 -0.5468 -0.5160 -0.3020
13406TIP3    H161633   6.246   1.730  13.575  2.1882 -0.4502  0.4019
13406TIP3    H261634   6.205   1.770  13.435 -2.0347 -0.5699  1.5176
13407TIP3   OH261635   3.260   6.233   1.133 -0.1821 -0.0985 -0.0013
13407TIP3    H161636   3.264   6.310   1.075  1.4315 -0.8943 -0.9565
13407TIP3    H261637   3.194   6.257   1.198 -0.0384  1.9237 -0.5522
13408TIP3   OH261638   1.145   6.151  15.305 -0.1203  0.5617 -0.0645
13408TIP3    H161639   1.125   6.222  15.244 -3.8103 -2.0050 -2.0237
13408TIP3    H261640   1.198   6.090  15.254 -0.7636 -0.2330  0.2230
13409TIP3   OH261641   4.402   5.294   1.292  0.0634  0.3668 -0.2025
13409TIP3    H161642   4.358   5.253   1.218  0.9998 -1.4181  0.2039
13409TIP3    H261643   4.420   5.384   1.263 -1.6043  0.3767 -1.2761
13410TIP3   OH261644   0.072   4.849  14.860  0.1437  0.1002 -0.2103
13410TIP3    H161645   0.101   4.811  14.943 -1.4066  0.6748  0.6162
13410TIP3    H261646   0.018   4.781  14.820 -0.8593  0.6184  0.2563
13411TIP3   OH261647   1.947   2.937  16.266  0.4420 -0.4760 -0.1088
13411TIP3    H161648   1.966   2.847  16.240  0.7918 -0.2396 -0.6873
13411TIP3    H261649   1.930   2.932  16.360  0.9024 -1.0764 -0.0552
13412TIP3   OH261650   2.901   5.590  13.512  0.0194 -0.2031  0.1498
13412TIP3    H161651   2.871   5.609  13.601  2.6876 -1.8439  1.4709
13412TIP3    H261652   2.972   5.651  13.497  0.2936 -0.6647 -0.4460
13413TIP3   OH261653   5.120   4.658   0.825  0.6395 -0.5330  0.6438
13413TIP3    H161654   5.147   4.704   0.904  0.3029  0.7360  0.0343
13413TIP3    H261655   5.046   4.708   0.792  1.3989 -0.4783 -1.0103
13414TIP3   OH261656   6.024   6.415  13.262  0.0180  0.2596  0.0472
13414TIP3    H161657   6.050   6.325  13.279 -3.5240 -0.5936  1.2726
13414TIP3    H261658   6.015   6.455  13.348 -1.5173  0.8372 -0.3579
13415TIP3   OH261659   5.121   6.787   3.058 -0.0512 -0.0157 -0.7877
13415TIP3    H161660   5.203   6.741   3.073  0.7069  0.9743 -1.8529
13415TIP3    H261661   5.089   6.754   2.974  0.2548  1.0419 -1.3270
13416TIP3   OH261662   2.996   6.029  17.212 -0.4983 -0.2614 -0.2002
13416TIP3    H161663   3.034   6.045  17.298  1.3062  0.6217 -1.1382
13416TIP3    H261664   2.941   5.952  17.225 -0.3040 -0.1146  1.7480
13417TIP3   OH261665   0.259   3.076   1.558 -0.4474 -0.2208 -0.2464
13417TIP3    H161666   0.307   3.042   1.483 -0.4212 -0.4983 -0.1038
13417TIP3    H261667   0.176   3.107   1.521 -0.8034 -1.1788 -0.2574
13418TIP3   OH261668   0.837   1.604  16.661  0.6919  0.4421 -0.4759
13418TIP3    H161669   0.878   1.521  16.638 -0.5384 -0.5983  0.9529
13418TIP3    H261670   0.881   1.632  16.742 -0.0689  0.2877  0.0015
13419TIP3   OH261671   4.325   5.089   0.281  0.0140  0.1886  0.1541
13419TIP3    H161672   4.278   5.017   0.240 -0.3560  1.1353 -1.0895
13419TIP3    H261673   4.411   5.089   0.239  0.3864 -0.1942  0.9104
13420TIP3   OH261674   2.522   0.546   0.448 -0.5475 -0.2035  0.9152
13420TIP3    H161675   2.613   0.575   0.460 -0.2668 -0.5333 -0.2908
13420TIP3    H261676   2.480   0.561   0.532  0.4730  0.5405  1.2986
13421TIP3   OH261677   6.231   4.806  16.379  0.0992 -0.1366 -0.7603
13421TIP3    H161678   6.263   4.859  16.306  1.4078 -0.7055 -0.6090
13421TIP3    H261679   6.187   4.732  16.337  0.4594 -0.2311 -0.9683
13422TIP3   OH261680   4.356   0.155  12.785  0.1035  0.7790 -0.1697
13422TIP3    H161681   4.410   0.228  12.815 -1.1578  1.3025  0.8859
13422TIP3    H261682   4.383   0.141  12.694  1.9009  1.1147  0.2929
13423TIP3   OH261683   5.684   3.310   4.888 -0.0397 -0.3494 -0.2305
13423TIP3    H161684   5.705   3.381   4.949 -0.0284  0.1399 -0.7962
13423TIP3    H261685   5.592   3.322   4.867 -0.1796 -0.8464  0.1229
13424TIP3   OH261686   0.898   3.916  13.153 -0.0897  0.4262  0.4829
13424TIP3    H161687   0.911   3.985  13.088  0.7169 -0.5985 -0.4779
13424TIP3    H261688   0.986   3.880  13.167 -0.3042  0.4287  1.9274
13425TIP3   OH261689   4.422   2.315  13.130 -0.3494  0.1169 -0.2912
13425TIP3    H161690   4.410   2.357  13.045 -0.2180  2.4564  0.8061
13425TIP3    H261691   4.512   2.282  13.129  0.1162  1.3774 -0.5369
13426TIP3   OH261692   0.289   5.882  14.460 -0.6750  0.3064 -0.1234
13426TIP3    H161693   0.259   5.973  14.466 -1.1652  0.1454 -0.1060
13426TIP3    H261694   0.242   5.837  14.531 -1.5557 -0.2610 -1.0510
13427TIP3   OH261695   2.726   4.488  14.896 -0.0919 -0.1847  0.0379
13427TIP3    H161696   2.782   4.412  14.878  0.7117  0.5798 -0.6963
13427TIP3    H261697   2.756   4.555  14.835  0.1189  1.1767  1.6119
13428TIP3   OH261698   4.964   3.270  11.566  0.4534 -0.0864 -0.0156
13428TIP3    H161699   5.005   3.267  11.652  0.7351 -0.4207 -0.1576
13428TIP3    H261700   4.883   3.219  11.575 -0.6022  1.6777  0.6119
13429TIP3   OH261701   1.520   2.295   0.974  0.2283 -0.2283 -0.3438
13429TIP3    H161702   1.448   2.261   1.027  0.5471  0.3786  0.5045
13429TIP3    H261703   1.489   2.381   0.944  1.0820  0.5967  1.0895
13430TIP3   OH261704   6.762   0.504  16.223 -0.1947 -0.0397 -0.4599
13430TIP3    H161705   6.810   0.587  16.221 -0.0395 -0.0970  0.4770
13430TIP3    H261706   6.670   0.530  16.220 -0.1658  0.2101  0.5418
13431TIP3   OH261707   4.617   5.938   1.109  0.0853  0.2018 -0.4432
13431TIP3    H161708   4.570   5.915   1.029  0.6684  1.7559 -1.2449
13431TIP3    H261709   4.702   5.895   1.100 -0.5481 -1.2294  0.2481
13432TIP3   OH261710   3.648   4.573  16.253  1.1128 -0.0073 -0.5315
13432TIP3    H161711   3.603   4.606  16.331  0.7331 -1.5500 -0.0859
13432TIP3    H261712   3.699   4.498  16.285  3.3272  1.1798 -1.1983
13433TIP3   OH261713   4.738   1.337   1.901  0.2241  0.3223 -0.5226
13433TIP3    H161714   4.677   1.391   1.952  0.7118  0.2727  0.1127
13433TIP3    H261715   4.806   1.312   1.963 -0.5286 -1.8811 -0.5318
13434TIP3   OH261716   6.698   2.865  12.838  0.5444 -0.1870  0.0038
13434TIP3    H161717   6.672   2.930  12.773  0.4705  0.4357  0.6541
13434TIP3    H261718   6.784   2.894  12.869  0.1063  0.1118  0.9571
13435TIP3   OH261719   0.655   3.231   3.989 -0.2528 -0.3565 -0.3713
13435TIP3    H161720   0.645   3.207   3.897 -0.8377  0.6800 -0.5910
13435TIP3    H261721   0.614   3.160   4.038 -0.1326 -0.8043 -0.9222
13436TIP3   OH261722   0.234   0.644   3.671 -0.3047  0.1949 -0.1239
13436TIP3    H161723   0.294   0.715   3.690 -0.3967  0.2837 -0.1606
13436TIP3    H261724   0.147   0.681   3.688 -0.3949  0.3189 -0.8418
13437TIP3   OH261725   1.282   2.961  14.519  0.8141  0.2193  0.2387
13437TIP3    H161726   1.350   3.016  14.557  1.7540 -0.2190 -0.7662
13437TIP3    H261727   1.322   2.874  14.513  0.6837  0.2564 -1.6424
13438TIP3   OH261728   3.640   5.459  11.088  0.0725  0.1075  0.3048
13438TIP3    H161729   3.710   5.525  11.084 -2.8202  3.4196  1.9970
13438TIP3    H261730   3.629   5.442  11.182  0.0502 -2.0512 -0.0703
13439TIP3   OH261731   4.318   2.443  10.758  0.6204  0.7806  0.8221
13439TIP3    H161732   4.272   2.526  10.760  0.7740  0.8564  1.1686
13439TIP3    H261733   4.404   2.464  10.721  1.7417  1.3097  3.5942
13440TIP3   OH261734   2.837   0.765   2.507  0.4077 -0.0394 -0.3764
13440TIP3    H161735   2.867   0.855   2.519  0.2442  0.0269 -0.4664
13440TIP3    H261736   2.752   0.773   2.464  0.1061 -0.2178  0.1915
13441TIP3   OH261737   1.482   4.267  15.473  0.1473  0.2668 -0.7479
13441TIP3    H161738   1.442   4.188  15.437  0.9381  0.6541 -2.5583
13441TIP3    H261739   1.463   4.335  15.409 -0.5985  1.5723  0.8444
13442TIP3   OH261740   5.939   0.898  12.583  0.8121  0.8213  0.2053
13442TIP3    H161741   6.001   0.969  12.600  2.1434 -0.2113 -0.1993
13442TIP3    H261742   5.900   0.879  12.668  2.4409  0.2423  0.8572
13443TIP3   OH261743   5.812   3.302   0.235 -0.1833 -0.1244  0.0686
13443TIP3    H161744   5.767   3.385   0.229 -0.8232 -0.4070  0.9120
13443TIP3    H261745   5.742   3.236   0.240  0.3081 -0.5910  0.9765
13444TIP3   OH261746   4.816   4.216   5.193 -0.5067 -0.2110 -0.4664
13444TIP3    H161747   4.808   4.122   5.211 -0.4081 -0.2152 -0.4414
13444TIP3    H261748   4.745   4.256   5.244  0.0415 -0.1795  0.2793
13445TIP3   OH261749   5.994   1.636  15.809  0.7269  0.3305  0.3602
13445TIP3    H161750   5.923   1.698  15.792 -0.8477 -1.5547 -0.1517
13445TIP3    H261751   5.977   1.563  15.749  2.3387 -0.7537  1.1815
13446TIP3   OH261752   4.128   3.357  16.559 -0.0279 -0.6006 -0.4811
13446TIP3    H161753   4.095   3.386  16.644  0.7866  0.3439 -0.4770
13446TIP3    H261754   4.208   3.308  16.580 -0.9543 -2.1827 -0.5495
13447TIP3   OH261755   2.616   2.377   3.241  1.2279 -0.1730  0.0489
13447TIP3    H161756   2.557   2.334   3.303  0.9412 -1.6364 -1.2409
13447TIP3    H261757   2.576   2.463   3.227  1.7388  0.5175  2.5196
13448TIP3   OH261758   0.917   0.881  16.692 -0.9146  0.0747 -0.0393
13448TIP3    H161759   0.903   0.806  16.750  0.4280 -0.4702 -0.3887
13448TIP3    H261760   0.982   0.935  16.737 -0.5234  0.0983 -0.6127
13449TIP3   OH261761   6.085   0.177   5.978  0.0707 -0.0771 -0.5040
13449TIP3    H161762   6.040   0.094   5.995 -0.9930  0.9470  1.8319
13449TIP3    H261763   6.154   0.181   6.044 -0.5722  1.3864  0.0845
13450TIP3   OH261764   6.099   0.216   1.164  0.2533 -0.7435  0.2050
13450TIP3    H161765   6.158   0.239   1.092 -1.5444 -0.4422 -1.2328
13450TIP3    H261766   6.035   0.287   1.165 -1.3858 -2.1893  0.2480
13451TIP3   OH261767   5.160   0.225  15.022 -0.5072 -0.2609  0.1232
13451TIP3    H161768   5.188   0.168  14.949 -0.3218 -0.5589  0.4231
13451TIP3    H261769   5.241   0.263  15.055 -0.4344 -1.2573  1.1067
13452TIP3   OH261770   4.837   4.760  12.924 -0.2468 -0.6355  0.7034
13452TIP3    H161771   4.854   4.830  12.986  1.2399 -1.0312  0.7496
13452TIP3    H261772   4.920   4.745  12.880 -0.7397 -1.8379  0.1349
13453TIP3   OH261773   2.176   5.707   4.800 -1.1010  0.4736 -0.0923
13453TIP3    H161774   2.150   5.799   4.801 -1.7061  0.3240 -1.0865
13453TIP3    H261775   2.224   5.697   4.718  1.2210  0.4922  1.2151
13454TIP3   OH261776   0.851   0.551  11.488 -0.4659 -0.9756 -0.2045
13454TIP3    H161777   0.858   0.618  11.556 -0.8587 -1.7766  0.6385
13454TIP3    H261778   0.839   0.601  11.407  0.2027 -0.0078  0.2786
13455TIP3   OH261779   4.783   5.415  15.619 -0.1690 -0.0924  0.0189
13455TIP3    H161780   4.859   5.471  15.606 -0.8353  1.0021  0.7546
13455TIP3    H261781   4.732   5.424  15.538  0.9468 -1.6214 -0.9033
13456TIP3   OH261782   2.248   5.937  15.626 -0.0308 -0.0302  0.1180
13456TIP3    H161783   2.296   5.937  15.543 -1.6385  1.1064 -0.8589
13456TIP3    H261784   2.298   5.878  15.683 -1.2345 -4.3805 -3.0245
13457TIP3   OH261785   4.032   0.319   3.409 -0.4019  0.0512  0.4371
13457TIP3    H161786   3.974   0.282   3.476 -2.4521  0.4182 -1.0718
13457TIP3    H261787   4.068   0.398   3.449 -1.4015  0.1330  1.2157
13458TIP3   OH261788   5.164   2.182   1.268  0.6218  0.0146  0.4068
13458TIP3    H161789   5.133   2.092   1.259  2.8697 -0.4852 -3.2551
13458TIP3    H261790   5.245   2.176   1.317  0.3031  0.1771  0.9643
13459TIP3   OH261791   4.491   6.508  15.313 -0.2964 -0.1823  0.2160
13459TIP3    H161792   4.563   6.504  15.251 -0.0244  0.9649  0.4441
13459TIP3    H261793   4.413   6.492  15.260 -0.1235  1.4001 -0.5624
13460TIP3   OH261794   5.218   0.452   0.723 -0.5639 -0.6202 -0.0563
13460TIP3    H161795   5.260   0.383   0.671  0.8995 -0.9008  1.4659
13460TIP3    H261796   5.158   0.405   0.781 -0.2179 -0.5319  0.3705
13461TIP3   OH261797   5.569   3.996  10.688 -0.1827  0.6772  0.2655
13461TIP3    H161798   5.610   4.017  10.772 -0.9376  0.9518  0.5758
13461TIP3    H261799   5.617   4.049  10.624  0.7120  0.0971  0.4482
13462TIP3   OH261800   0.595   3.113  16.810 -0.1251  0.1053  0.0185
13462TIP3    H161801   0.532   3.051  16.848  0.8474  0.8233  2.9608
13462TIP3    H261802   0.673   3.060  16.794  0.5483  0.4192  2.0977
13463TIP3   OH261803   3.030   1.773  10.455 -0.2303  0.2126 -0.0657
13463TIP3    H161804   2.983   1.852  10.429 -1.2905  0.0328  1.2703
13463TIP3    H261805   3.079   1.799  10.533  0.8805  0.0304 -0.6750
13464TIP3   OH261806   4.746   6.279   6.342  0.2609  0.4902  0.1265
13464TIP3    H161807   4.681   6.212   6.362  1.7568 -1.1605 -0.3289
13464TIP3    H261808   4.708   6.331   6.272 -1.8124  1.4738  1.9186
13465TIP3   OH261809   6.114   5.231  13.388  0.3290  0.2206  0.3006
13465TIP3    H161810   6.145   5.177  13.461 -0.7641 -1.6353 -0.5633
13465TIP3    H261811   6.190   5.242  13.332  0.3730 -1.2035  0.0484
13466TIP3   OH261812   4.400   6.575   4.934  0.4772  0.2919  0.3945
13466TIP3    H161813   4.319   6.532   4.906  0.1336 -0.4703  2.4345
13466TIP3    H261814   4.464   6.551   4.867 -0.2255 -1.7335  0.3915
13467TIP3   OH261815   0.420   3.041   0.444 -0.5169 -0.6131 -0.7732
13467TIP3    H161816   0.350   3.061   0.508  0.8725 -1.6949  1.1482
13467TIP3    H261817   0.471   3.121   0.439  0.2170 -0.9829  0.6045
13468TIP3   OH261818   0.815   4.057   3.405 -0.1147  0.5629 -0.3974
13468TIP3    H161819   0.869   4.084   3.331 -1.8670  2.6281 -0.9564
13468TIP3    H261820   0.774   3.975   3.376 -0.5048  1.1695 -1.6083
13469TIP3   OH261821   4.305   5.736  14.983  0.0155 -0.2838 -0.8728
13469TIP3    H161822   4.212   5.755  14.988 -0.1571 -1.2691 -0.2079
13469TIP3    H261823   4.347   5.822  14.971 -0.8368  0.3542  0.6928
13470TIP3   OH261824   2.121   6.695   2.439  0.2490 -0.0003 -0.1545
13470TIP3    H161825   2.197   6.754   2.433  0.8311 -0.7814 -0.4632
13470TIP3    H261826   2.048   6.753   2.460  0.3463  1.1891 -2.9718
13471TIP3   OH261827   3.906   4.654   4.359  0.4229 -0.1980  0.3458
13471TIP3    H161828   3.960   4.729   4.385  1.1299  0.2145 -2.1686
13471TIP3    H261829   3.938   4.582   4.413  1.7540  0.6484  0.7232
13472TIP3   OH261830   6.652   6.225   3.258 -0.6314 -0.2302  0.5303
13472TIP3    H161831   6.659   6.144   3.209 -0.6289  0.4740 -0.6472
13472TIP3    H261832   6.651   6.294   3.191  0.1706  0.7865  1.5430
13473TIP3   OH261833   2.300   4.967   3.581 -0.0497 -0.1859  0.1298
13473TIP3    H161834   2.360   5.017   3.525  1.2654 -1.2556  0.5645
13473TIP3    H261835   2.321   4.996   3.670 -1.4183  0.7414  0.1670
13474TIP3   OH261836   4.392   0.357   2.268 -0.5322 -0.6784 -0.2802
13474TIP3    H161837   4.442   0.281   2.237  0.6978 -0.5453  1.3281
13474TIP3    H261838   4.353   0.327   2.350 -0.5785  0.2291  0.0277
13475TIP3   OH261839   3.328   3.455   3.210  0.3631 -0.3137 -0.2296
13475TIP3    H161840   3.285   3.536   3.185  1.4936  0.4871  0.3964
13475TIP3    H261841   3.263   3.387   3.190 -0.4077  0.6810 -1.1977
13476TIP3   OH261842   1.080   6.763  13.634 -0.1459  0.2286 -0.4142
13476TIP3    H161843   1.131   6.788  13.711 -0.4080 -0.6500  0.0538
13476TIP3    H261844   1.032   6.842  13.609 -0.4594  0.3656  0.6300
13477TIP3   OH261845   0.563   1.802  11.823 -0.2876  0.0374 -0.2160
13477TIP3    H161846   0.573   1.730  11.761 -0.7756 -0.2684  0.0560
13477TIP3    H261847   0.594   1.879  11.776  2.1238 -0.6463  0.1497
13478TIP3   OH261848   2.449   1.175  17.198 -0.1422  0.1526  0.5686
13478TIP3    H161849   2.505   1.104  17.168 -0.6750  0.3196 -0.9035
13478TIP3    H261850   2.443   1.164  17.292 -0.2757 -1.7863  0.3395
13479TIP3   OH261851   0.213   4.819  12.368 -0.4844  0.1249  0.1684
13479TIP3    H161852   0.223   4.867  12.450  1.9950 -1.3074  0.7615
13479TIP3    H261853   0.298   4.828  12.324 -1.4122 -0.0546 -1.7187
13480TIP3   OH261854   6.635   1.031  14.517  0.0079 -0.6275 -0.1398
13480TIP3    H161855   6.722   1.037  14.558 -0.5509 -0.8316  1.1182
13480TIP3    H261856   6.575   1.025  14.591 -0.7275 -5.9702 -0.9867
13481TIP3   OH261857   0.125   5.352   2.112  0.1286  0.2559  0.3652
13481TIP3    H161858   0.119   5.271   2.062 -0.4787  0.1966  0.5321
13481TIP3    H261859   0.132   5.325   2.203  1.2531  0.3656  0.3218
13482TIP3   OH261860   1.069   3.900  12.249  0.5249  0.4560  0.0775
13482TIP3    H161861   0.974   3.883  12.254  0.4874  1.0509  1.7328
13482TIP3    H261862   1.106   3.846  12.319  1.0106  2.9086  1.7461
13483TIP3   OH261863   5.525   3.099   5.729  0.1324  0.1268 -0.4668
13483TIP3    H161864   5.451   3.101   5.669  0.5732  1.8278 -0.9658
13483TIP3    H261865   5.543   3.006   5.742 -1.9350 -0.2864 -0.5197
13484TIP3   OH261866   0.850   2.804  14.998  0.1532  0.0761 -0.4666
13484TIP3    H161867   0.902   2.837  14.925  0.6616  1.8809  0.6817
13484TIP3    H261868   0.763   2.842  14.986  0.1747  0.1887 -0.2828
13485TIP3   OH261869   2.252   1.061  11.795  0.5141  0.3900 -0.5372
13485TIP3    H161870   2.275   1.145  11.756  1.7020  0.3815  0.1308
13485TIP3    H261871   2.233   1.081  11.887  2.7148 -0.3291  0.1176
13486TIP3   OH261872   5.143   0.187  16.531  0.6171 -0.1734 -0.3335
13486TIP3    H161873   5.109   0.105  16.567 -0.7303 -0.2426 -1.7174
13486TIP3    H261874   5.219   0.161  16.479  1.2477 -0.3236  0.6477
13487TIP3   OH261875   3.415   5.582  15.265 -0.6118  0.2424 -0.6098
13487TIP3    H161876   3.322   5.605  15.263 -0.3973  1.0854 -1.6199
13487TIP3    H261877   3.442   5.586  15.173  0.0468 -1.6095 -0.5065
13488TIP3   OH261878   2.513   5.764   2.583 -0.2859 -0.2528 -0.2685
13488TIP3    H161879   2.428   5.760   2.627  0.0438 -1.8531  0.2460
13488TIP3    H261880   2.547   5.674   2.587  0.8634  0.1048 -1.5869
13489TIP3   OH261881   1.170   4.173   2.642 -0.0735 -0.2012 -0.2937
13489TIP3    H161882   1.095   4.233   2.650 -0.5368 -0.5914 -1.5155
13489TIP3    H261883   1.190   4.173   2.548  1.6429  0.1021  0.0640
13490TIP3   OH261884   3.004   1.768  15.789 -0.3173 -0.3631 -0.4788
13490TIP3    H161885   3.057   1.825  15.734  0.3335 -0.1433  0.3577
13490TIP3    H261886   3.014   1.681  15.751  0.7880 -0.3517 -0.2372
13491TIP3   OH261887   5.725   0.664  13.322  0.6478 -0.0111  0.2043
13491TIP3    H161888   5.650   0.606  13.308  1.0631 -0.1189 -1.6813
13491TIP3    H261889   5.789   0.609  13.366  0.9583 -0.9458 -1.3854
13492TIP3   OH261890   6.744   3.973  16.432  0.4439 -0.2926  0.2436
13492TIP3    H161891   6.770   4.038  16.368 -1.4491  1.4571  1.2193
13492TIP3    H261892   6.780   4.005  16.515 -0.5156 -0.4527  0.7336
13493TIP3   OH261893   3.410   0.888  15.165  0.1210 -0.0017  0.1423
13493TIP3    H161894   3.448   0.975  15.169 -0.3459  0.3097 -1.7500
13493TIP3    H261895   3.477   0.831  15.204  1.1856  0.9484 -0.2791
13494TIP3   OH261896   3.599   2.011   2.917 -0.0183 -0.1662  0.4549
13494TIP3    H161897   3.635   1.923   2.902 -0.4109 -0.5709  1.8476
13494TIP3    H261898   3.668   2.070   2.886  0.4478 -0.9587 -0.0435
13495TIP3   OH261899   5.812   0.723   2.521  0.1562 -0.1445 -0.3595
13495TIP3    H161900   5.760   0.643   2.511  0.5994 -0.4281 -0.4572
13495TIP3    H261901   5.784   0.779   2.448  0.4854 -0.5783 -0.8266
13496TIP3   OH261902   5.339   5.290   0.769  0.1834  0.3535  0.2374
13496TIP3    H161903   5.324   5.285   0.675 -1.4767 -0.7974  0.5497
13496TIP3    H261904   5.416   5.236   0.784  0.8105  1.0140 -0.5168
13497TIP3   OH261905   4.458   3.734  14.488  0.4903  0.1444  0.0312
13497TIP3    H161906   4.499   3.775  14.412  0.8346  1.5101  0.9440
13497TIP3    H261907   4.365   3.727  14.465  0.7387 -0.2681 -0.8622
13498TIP3   OH261908   5.545   4.515   4.565  0.2863  0.1874  0.9781
13498TIP3    H161909   5.455   4.546   4.573  0.4738  0.7748  0.8771
13498TIP3    H261910   5.540   4.420   4.578 -0.6053 -0.0511 -0.9779
13499TIP3   OH261911   3.031   0.218  12.594 -0.4888 -0.1432  0.0304
13499TIP3    H161912   3.045   0.131  12.557 -0.9517  0.6511 -2.0769
13499TIP3    H261913   3.117   0.260  12.588 -0.7421  0.2575 -0.9129
13500TIP3   OH261914   0.124   4.158   2.932  0.0851 -0.0383  0.3237
13500TIP3    H161915   0.160   4.155   3.020  0.2998  2.4927  0.3658
13500TIP3    H261916   0.189   4.206   2.881 -0.5068 -0.6015 -0.9921
13501TIP3   OH261917   0.877   4.189   2.438 -0.5348  0.6271 -0.5149
13501TIP3    H161918   0.916   4.211   2.523  1.0683  0.2688 -1.1287
13501TIP3    H261919   0.860   4.273   2.397  2.2407  0.8113 -1.3856
13502TIP3   OH261920   5.333   1.641   2.770  0.0235 -0.1887  0.3325
13502TIP3    H161921   5.275   1.623   2.843 -0.5581 -0.0079 -0.0776
13502TIP3    H261922   5.280   1.625   2.692  0.7115 -0.6274 -0.0537
13503TIP3   OH261923   6.345   2.040  13.846  0.5489  0.6300 -0.0170
13503TIP3    H161924   6.319   1.949  13.861 -2.9383  1.5688 -0.0519
13503TIP3    H261925   6.440   2.035  13.832  0.3638 -3.0543 -0.5470
13504TIP3   OH261926   0.351   3.034   1.193 -0.0243  0.3778 -0.0917
13504TIP3    H161927   0.323   3.126   1.186  0.7495  0.5853 -0.6373
13504TIP3    H261928   0.308   2.991   1.119  0.1742  0.4552 -0.2543
13505TIP3   OH261929   4.749   0.558   4.726  0.2097 -0.0877 -0.1322
13505TIP3    H161930   4.774   0.651   4.732  1.0206 -0.2063 -1.5009
13505TIP3    H261931   4.777   0.521   4.810 -0.1730  0.9107  0.4518
13506TIP3   OH261932   4.852   0.860  14.259 -0.8064 -0.2320 -0.4374
13506TIP3    H161933   4.873   0.870  14.166 -0.9522 -2.6373 -0.7863
13506TIP3    H261934   4.931   0.819  14.296 -0.3935  1.5468  0.7143
13507TIP3   OH261935   2.321   0.950  13.267 -0.1361 -0.6761 -0.4568
13507TIP3    H161936   2.288   0.953  13.177 -2.8212  0.3794  0.5303
13507TIP3    H261937   2.324   1.042  13.295  0.2315 -1.0286  0.6931
13508TIP3   OH261938   4.159   4.739   4.564  0.1319  0.3676 -0.1485
13508TIP3    H161939   4.220   4.758   4.493  0.5676  0.8533  0.3427
13508TIP3    H261940   4.212   4.749   4.644 -0.0464 -1.3209  0.2042
13509TIP3   OH261941   3.187   4.546   4.602 -0.0051  0.4900 -0.2649
13509TIP3    H161942   3.257   4.503   4.651 -0.0380 -0.3383 -0.9220
13509TIP3    H261943   3.191   4.506   4.515 -3.6524 -2.2892  0.6967
13510TIP3   OH261944   4.728   1.505  14.833  0.2353 -0.3996 -0.4790
13510TIP3    H161945   4.692   1.568  14.771 -3.0105  0.9780  2.6238
13510TIP3    H261946   4.787   1.557  14.888 -0.7866 -0.4863  0.7257
13511TIP3   OH261947   0.701   5.077  12.734  1.1257  0.0765  0.0346
13511TIP3    H161948   0.792   5.076  12.703  0.3243 -0.0916 -2.4051
13511TIP3    H261949   0.666   5.160  12.702  0.0664 -0.4242 -0.1135
13512TIP3   OH261950   5.475   4.652  13.141  0.1760  0.2469  0.0740
13512TIP3    H161951   5.451   4.685  13.054 -0.7500 -1.8244 -0.4821
13512TIP3    H261952   5.495   4.731  13.192  1.5304  1.4458 -2.2307
13513TIP3   OH261953   6.568   1.862   4.191 -0.1753 -0.6114 -0.3231
13513TIP3    H161954   6.536   1.779   4.157 -0.3790 -0.4665 -0.4850
13513TIP3    H261955   6.496   1.923   4.177 -0.4819 -0.6717  0.8854
13514TIP3   OH261956   3.157   5.223   0.881  0.0551 -0.3806  0.5569
13514TIP3    H161957   3.223   5.181   0.826 -0.3000 -1.5850  1.0216
13514TIP3    H261958   3.146   5.163   0.955 -0.6139  0.4457  1.1350
13515TIP3   OH261959   0.190   2.650  15.500  0.2075 -0.4740 -0.5745
13515TIP3    H161960   0.214   2.742  15.501  1.1738 -0.7178 -0.2375
13515TIP3    H261961   0.178   2.627  15.593 -1.1865 -0.4027 -0.7238
13516TIP3   OH261962   3.722   2.474   2.722  0.5363 -0.7109 -0.2226
13516TIP3    H161963   3.650   2.525   2.761  0.6836 -0.9551  0.3809
13516TIP3    H261964   3.714   2.489   2.628  0.5098  0.3409 -0.0557
13517TIP3   OH261965   4.007   4.028  11.891 -0.1575 -0.3711 -0.2066
13517TIP3    H161966   3.948   3.953  11.885 -1.3721  0.3377  2.3502
13517TIP3    H261967   4.037   4.042  11.801 -2.9118 -1.5273 -1.3545
13518TIP3   OH261968   1.462   5.257   4.445 -0.4763  0.1383 -0.2046
13518TIP3    H161969   1.443   5.168   4.476 -1.5679  0.7122  0.8489
13518TIP3    H261970   1.378   5.290   4.414 -0.3016  1.1733  0.3902
13519TIP3   OH261971   1.433   3.587  11.777  0.2331 -0.2657  0.2068
13519TIP3    H161972   1.507   3.536  11.746  1.6477  1.7554  0.2322
13519TIP3    H261973   1.467   3.636  11.852 -1.0151  0.9562 -0.0069
13520TIP3   OH261974   4.163   0.007  14.942 -0.5327  0.4031  0.5205
13520TIP3    H161975   4.187   0.012  15.035  1.0952  1.7835  0.0425
13520TIP3    H261976   4.185   0.093  14.907  1.4437 -0.9700 -1.7573
13521TIP3   OH261977   4.655   0.139  11.814 -0.5984 -0.4793 -0.1549
13521TIP3    H161978   4.640   0.213  11.872 -1.7254 -0.1355 -0.8672
13521TIP3    H261979   4.589   0.074  11.839 -0.7298 -0.5491 -0.6720
13522TIP3   OH261980   3.869   3.106  14.423 -0.3160 -0.1440 -0.4075
13522TIP3    H161981   3.926   3.183  14.424  1.8795 -1.7318  1.0027
13522TIP3    H261982   3.786   3.137  14.459  1.0260  1.2069  1.6114
13523TIP3   OH261983   3.399   3.802  16.601  0.1193 -0.1336 -0.1336
13523TIP3    H161984   3.329   3.743  16.628 -0.2256  0.3655  0.0590
13523TIP3    H261985   3.365   3.847  16.524  1.0738 -1.5010 -1.3864
13524TIP3   OH261986   1.818   1.595  16.224 -0.2399  0.2528  0.5789
13524TIP3    H161987   1.897   1.611  16.172 -0.8895  0.3001 -0.4073
13524TIP3    H261988   1.780   1.681  16.238 -0.2852  0.1984  0.7939
13525TIP3   OH261989   2.216   2.873   1.212 -0.2570  0.4927  0.3303
13525TIP3    H161990   2.130   2.832   1.226 -0.5535  1.3158  0.9189
13525TIP3    H261991   2.255   2.876   1.299  0.4314  0.0028  0.0429
13526TIP3   OH261992   6.120   3.046   1.568 -0.3771  0.5533  0.4877
13526TIP3    H161993   6.063   3.086   1.633 -0.7309 -1.9014  1.7818
13526TIP3    H261994   6.196   3.017   1.619 -0.4655 -1.0249 -0.2530
13527TIP3   OH261995   0.494   3.531   3.658  0.0933  0.2181  0.8729
13527TIP3    H161996   0.527   3.551   3.746 -0.0261  3.1374  0.2987
13527TIP3    H261997   0.412   3.579   3.652 -0.5794 -1.0576 -0.3707
13528TIP3   OH261998   6.258   0.378   2.853  0.2589 -0.1469 -0.3810
13528TIP3    H161999   6.270   0.298   2.801 -0.4156  0.2476 -1.1692
13528TIP3    H262000   6.247   0.347   2.943 -1.4005 -1.0534 -0.8676
13529TIP3   OH262001   5.300   0.217   3.645 -0.2757 -0.1299 -0.1520
13529TIP3    H162002   5.250   0.190   3.568  0.2805  0.6127 -0.7771
13529TIP3    H262003   5.390   0.220   3.615  0.0845 -0.8894  0.8216
13530TIP3   OH262004   0.451   1.770   5.715  0.3186  1.1309 -0.0784
13530TIP3    H162005   0.456   1.708   5.643  2.0215  0.5963  0.4817
13530TIP3    H262006   0.494   1.849   5.682 -1.2011  1.7943 -0.5349
13531TIP3   OH262007   4.277   6.744   4.515  0.3513 -0.4422 -0.3447
13531TIP3    H162008   4.274   6.826   4.466  0.8897  0.5706  1.2943
13531TIP3    H262009   4.325   6.684   4.458 -1.1936 -0.0246 -2.1181
13532TIP3   OH262010   3.012   4.257  11.797  0.0973 -0.0304 -0.4235
13532TIP3    H162011   2.968   4.321  11.854 -1.5684 -0.8392 -0.7795
13532TIP3    H262012   3.011   4.176  11.847  1.0901 -0.0880 -0.4933
13533TIP3   OH262013   3.487   4.300   3.859 -0.2537  0.1007  0.1404
13533TIP3    H162014   3.478   4.213   3.818  2.2592 -0.3523  0.4403
13533TIP3    H262015   3.434   4.294   3.938 -3.0009  0.0775 -1.6310
13534TIP3   OH262016   0.755   2.646  13.495  0.6868  0.1016 -0.0042
13534TIP3    H162017   0.692   2.717  13.508 -0.0479 -0.5644  0.1548
13534TIP3    H262018   0.836   2.690  13.470  0.0814  0.9555 -0.4986
13535TIP3   OH262019   6.428   0.958  14.678  0.0672 -0.3655 -0.3324
13535TIP3    H162020   6.411   0.864  14.688 -1.5976 -0.2053 -1.4886
13535TIP3    H262021   6.347   0.993  14.642  1.5693  1.0811 -2.4465
13536TIP3   OH262022   6.604   4.809   2.035  0.2590  0.3889 -0.5563
13536TIP3    H162023   6.656   4.795   2.114 -0.7499  2.1732  0.4393
13536TIP3    H262024   6.549   4.731   2.028  0.6442  0.0413  0.2820
13537TIP3   OH262025   3.298   0.658   4.032  0.2665 -0.6716 -0.1418
13537TIP3    H162026   3.308   0.719   4.105  0.6000 -1.0217  0.1055
13537TIP3    H262027   3.242   0.704   3.969  2.2087  0.7189 -0.9029
13538TIP3   OH262028   3.163   0.914   4.836 -0.1108  0.0979 -0.4452
13538TIP3    H162029   3.134   0.892   4.747 -1.7971 -0.8383  0.3003
13538TIP3    H262030   3.139   1.007   4.846 -0.5604  0.0183 -0.7345
13539TIP3   OH262031   0.258   3.143   0.217 -0.0056  0.0902  0.0015
13539TIP3    H162032   0.228   3.162   0.128 -0.8726  0.0089  0.2690
13539TIP3    H262033   0.352   3.159   0.215 -0.0169  0.0365 -0.9427
13540TIP3   OH262034   1.801   1.955  12.049 -0.1345  0.2601  0.1166
13540TIP3    H162035   1.855   1.988  11.978  0.6765  0.2058  0.6974
13540TIP3    H262036   1.854   1.968  12.128  0.0301 -1.9991  0.4256
13541TIP3   OH262037   3.136   6.099  13.232 -0.1710 -0.5986 -0.1902
13541TIP3    H162038   3.163   6.166  13.169 -0.6785 -0.3052 -0.0880
13541TIP3    H262039   3.134   6.144  13.316 -1.6189 -0.4544 -0.2883
13542TIP3   OH262040   0.470   1.591  15.200  0.2082  0.1966 -0.0650
13542TIP3    H162041   0.490   1.679  15.232  0.0150 -0.1310  0.9922
13542TIP3    H262042   0.550   1.541  15.217  0.4371  0.2445 -0.9732
13543TIP3   OH262043   6.599   1.591  14.209  0.2954  0.0448 -0.5859
13543TIP3    H162044   6.664   1.636  14.263 -0.5737  1.4204 -0.6563
13543TIP3    H262045   6.650   1.530  14.155  1.3716  0.0946  0.3592
13544TIP3   OH262046   2.361   3.238  14.899  0.2136  0.0253  0.2716
13544TIP3    H162047   2.268   3.230  14.877  0.5514 -1.2049 -0.8328
13544TIP3    H262048   2.380   3.158  14.948  0.6226  0.4093  0.7384
13545TIP3   OH262049   6.383   4.715  13.947  0.6613  0.0421 -0.4232
13545TIP3    H162050   6.319   4.673  14.004 -0.2969 -0.4173 -1.8044
13545TIP3    H262051   6.375   4.668  13.864  3.6058 -0.7968 -0.2992
13546TIP3   OH262052   0.964   1.600   0.236 -0.0174 -0.3130  0.3817
13546TIP3    H162053   0.905   1.530   0.209 -2.8418  1.9377  0.4409
13546TIP3    H262054   0.999   1.635   0.154  1.5095 -1.8440  0.3605
13547TIP3   OH262055   2.549   5.372   0.619  0.4388 -0.2185 -0.8750
13547TIP3    H162056   2.490   5.444   0.597  1.4482  0.7614 -0.4175
13547TIP3    H262057   2.502   5.294   0.592 -0.5751  0.6243 -1.5935
13548TIP3   OH262058   0.118   1.859  14.654  0.5809  0.3539 -0.1029
13548TIP3    H162059   0.146   1.853  14.745 -0.1854 -0.5473  0.0902
13548TIP3    H262060   0.041   1.802  14.649  0.4656  0.5919 -1.2536
13549TIP3   OH262061   4.952   1.679   5.553 -0.0882  0.0471  0.4271
13549TIP3    H162062   5.016   1.613   5.526  0.1186 -0.0886  1.2350
13549TIP3    H262063   4.912   1.709   5.471  2.0420  1.1933 -0.2438
13550TIP3   OH262064   6.708   1.721   4.627  0.2789 -0.4391 -0.7439
13550TIP3    H162065   6.801   1.739   4.614 -0.1924  0.6856 -2.8765
13550TIP3    H262066   6.678   1.685   4.544 -1.0603 -1.4341  0.1420
13551TIP3   OH262067   0.535   4.356   1.360  0.2556  0.6350  0.0632
13551TIP3    H162068   0.574   4.384   1.443 -0.3187  0.8370  0.2639
13551TIP3    H262069   0.602   4.378   1.294  0.7695  0.3493  0.4833
13552TIP3   OH262070   4.611   3.596   2.260 -0.6144  0.2243 -0.0581
13552TIP3    H162071   4.647   3.685   2.248 -0.3586  0.1271 -0.0230
13552TIP3    H262072   4.545   3.607   2.328  0.2226  0.1839  0.7706
13553TIP3   OH262073   2.409   1.155   6.416  0.3295  0.3458 -0.7983
13553TIP3    H162074   2.434   1.117   6.500  0.6584 -0.7573 -1.3885
13553TIP3    H262075   2.489   1.197   6.384  0.4260  0.0384 -0.9559
13554TIP3   OH262076   3.774   0.672  12.345 -0.2976 -0.1957  0.7618
13554TIP3    H162077   3.827   0.612  12.397  0.1345  0.5301  1.1732
13554TIP3    H262078   3.735   0.731  12.410 -0.2842  0.2989  0.3248
13555TIP3   OH262079   2.977   0.414  16.632  0.1468  0.2437 -0.0960
13555TIP3    H162080   2.891   0.413  16.591  0.3130  0.1528 -0.4456
13555TIP3    H262081   3.030   0.355  16.578  0.4977  0.5031 -0.0367
13556TIP3   OH262082   2.979   5.860   3.556 -0.2590  0.3129 -0.1715
13556TIP3    H162083   2.914   5.794   3.578 -2.3310  2.6138  0.9478
13556TIP3    H262084   2.977   5.921   3.630  0.9149  2.1077 -1.5820
13557TIP3   OH262085   5.337   1.883   3.821  0.5926  0.3479 -0.2573
13557TIP3    H162086   5.287   1.962   3.802 -1.8951 -1.6008 -2.1475
13557TIP3    H262087   5.292   1.843   3.896  0.0343 -0.7331 -1.1421
13558TIP3   OH262088   3.010   4.021  16.340  0.2045 -0.2269  0.0617
13558TIP3    H162089   2.999   4.027  16.245  0.4950 -0.0068  0.0369
13558TIP3    H262090   3.026   3.928  16.357  0.1938 -0.2606 -0.1138
13559TIP3   OH262091   5.899   1.548   4.494  0.4323  0.2108 -0.5697
13559TIP3    H162092   5.927   1.548   4.402 -0.2430  0.2108 -0.7774
13559TIP3    H262093   5.940   1.470   4.531 -0.7516 -0.7955 -1.3339
13560TIP3   OH262094   0.049   5.308  15.339 -0.0271  0.8580  0.1305
13560TIP3    H162095   0.116   5.324  15.273  0.2420 -2.5009 -0.5258
13560TIP3    H262096   0.096   5.310  15.422  0.4520  0.8191 -0.1385
13561TIP3   OH262097   6.179   2.495  12.142  0.1712 -0.3594  0.8474
13561TIP3    H162098   6.122   2.446  12.083 -2.4036  2.8154  0.5511
13561TIP3    H262099   6.132   2.496  12.225  1.6347 -0.9913  1.6828
13562TIP3   OH262100   6.090   2.571   5.554 -0.4448  0.2488  0.5376
13562TIP3    H162101   6.047   2.655   5.572 -0.2161  0.2201  1.2629
13562TIP3    H262102   6.069   2.517   5.630 -0.8994 -0.4791 -0.1021
13563TIP3   OH262103   3.963   0.210  11.453  0.2203 -0.0663 -0.6416
13563TIP3    H162104   3.870   0.197  11.434 -0.2988 -0.5265  2.0652
13563TIP3    H262105   3.995   0.259  11.378 -2.4763  1.1148 -1.0992
13564TIP3   OH262106   2.756   5.830   2.931 -0.1360  0.0484  0.1842
13564TIP3    H162107   2.746   5.850   2.838  0.4408 -0.0384  0.1004
13564TIP3    H262108   2.849   5.843   2.949 -0.0302 -1.0486  0.4803
13565TIP3   OH262109   3.953   2.232  16.665  0.2767  0.4560  0.6192
13565TIP3    H162110   3.995   2.312  16.634  0.7020 -0.2472 -0.6745
13565TIP3    H262111   3.879   2.262  16.717 -2.3740  1.7442 -3.6513
13566TIP3   OH262112   3.131   2.537  11.866  0.4006  0.4163  0.0149
13566TIP3    H162113   3.146   2.629  11.888  1.1981  0.7352 -1.7683
13566TIP3    H262114   3.064   2.508  11.928  0.0007  2.2518  0.4672
13567TIP3   OH262115   5.568   1.120  15.642  0.1535  0.0056  0.1601
13567TIP3    H162116   5.646   1.121  15.586 -0.4473 -1.0228 -0.7155
13567TIP3    H262117   5.586   1.052  15.708 -0.8880 -1.8162 -1.3733
13568TIP3   OH262118   0.499   5.853  13.806 -0.4066 -0.2209  0.0581
13568TIP3    H162119   0.537   5.940  13.797 -0.6060  0.2414  3.2425
13568TIP3    H262120   0.572   5.797  13.832 -0.7457 -0.5378  0.3312
13569TIP3   OH262121   0.366   2.464  13.346 -0.5662  0.2107 -0.6204
13569TIP3    H162122   0.375   2.441  13.254 -2.3640 -1.4737 -0.4081
13569TIP3    H262123   0.446   2.430  13.388  0.8064  2.0201 -1.7179
13570TIP3   OH262124   5.246   4.015  14.682 -0.1866 -0.0254  0.0979
13570TIP3    H162125   5.192   3.977  14.613 -1.2502 -0.0666  0.9254
13570TIP3    H262126   5.220   3.966  14.761  0.0614  0.9029  0.7547
13571TIP3   OH262127   6.195   2.010  16.400 -0.1461  0.0147 -0.3771
13571TIP3    H162128   6.163   2.021  16.489  1.1312 -0.5283  0.1515
13571TIP3    H262129   6.143   2.072  16.348 -0.2833  0.9662  0.8825
13572TIP3   OH262130   4.707   6.386  16.511  0.0080  0.3715 -0.4938
13572TIP3    H162131   4.764   6.314  16.538  0.7213  0.7349 -1.0246
13572TIP3    H262132   4.758   6.465  16.528 -0.9967  0.7968  0.6571
13573TIP3   OH262133   3.630   0.840   4.343  0.3548  0.0549  0.0613
13573TIP3    H162134   3.622   0.875   4.432  1.8513 -0.5441  0.4512
13573TIP3    H262135   3.698   0.773   4.350  0.4949  0.0168 -1.5333
13574TIP3   OH262136   5.022   0.607  13.738  0.4653  0.5196  0.9965
13574TIP3    H162137   5.056   0.597  13.827 -1.4861  0.7059  1.8016
13574TIP3    H262138   4.945   0.664  13.749  0.7680  1.3195 -0.9435
13575TIP3   OH262139   3.029   6.114  16.312  0.1032 -0.1833 -0.1706
13575TIP3    H162140   3.116   6.144  16.288 -0.0544  0.9758  0.6961
13575TIP3    H262141   3.019   6.139  16.404 -1.5717  0.7085 -0.5811
13576TIP3   OH262142   4.357   0.602   3.969  0.4047  0.2227  0.1880
13576TIP3    H162143   4.405   0.571   4.046  1.4774 -0.6832 -0.8179
13576TIP3    H262144   4.405   0.566   3.894 -0.4184  1.3571 -0.9279
13577TIP3   OH262145   6.439   4.193  14.186 -0.5849  0.0305 -0.7544
13577TIP3    H162146   6.414   4.168  14.097 -2.7515  1.5533 -0.6182
13577TIP3    H262147   6.361   4.175  14.239 -0.1680  1.4619  0.3850
13578TIP3   OH262148   0.383   1.056  15.286 -0.5284  0.8301 -0.0264
13578TIP3    H162149   0.384   1.005  15.367  0.1365  1.3698  0.3154
13578TIP3    H262150   0.475   1.074  15.268 -0.6138  0.0041 -1.3675
13579TIP3   OH262151   5.650   0.478  12.831 -0.3676  0.1052 -0.1558
13579TIP3    H162152   5.614   0.542  12.769  1.4667  1.3256 -0.0207
13579TIP3    H262153   5.658   0.526  12.913 -1.3885 -1.0796  0.6524
13580TIP3   OH262154   1.023   4.658  15.847  0.4900 -0.4066 -0.4296
13580TIP3    H162155   0.985   4.745  15.840 -0.1561 -0.6796 -0.3200
13580TIP3    H262156   1.096   4.668  15.908 -0.1552 -0.1322  0.3074
13581TIP3   OH262157   5.281   6.054  10.922 -0.1746  0.2512 -0.0993
13581TIP3    H162158   5.370   6.042  10.888 -0.5152 -0.0209 -0.8968
13581TIP3    H262159   5.290   6.043  11.017  0.8365  1.3519 -0.0566
13582TIP3   OH262160   0.336   6.251  15.029 -0.1569 -0.4275  0.8116
13582TIP3    H162161   0.340   6.156  15.024 -2.1181 -0.4558 -1.0866
13582TIP3    H262162   0.245   6.271  15.047 -0.6816  1.1339 -2.9161
13583TIP3   OH262163   0.936   5.584  12.317  0.3382 -0.2162  0.2874
13583TIP3    H162164   0.859   5.641  12.324  0.4169  0.3459 -2.6973
13583TIP3    H262165   0.994   5.613  12.388 -0.4255  2.1782 -0.0134
13584TIP3   OH262166   1.166   0.659   0.180 -0.2552  0.1084  0.0420
13584TIP3    H162167   1.081   0.683   0.217 -0.2281  2.7195 -1.5131
13584TIP3    H262168   1.230   0.697   0.241 -0.1699 -1.1587  0.7679
13585TIP3   OH262169   1.566   3.107  14.215  0.3262 -0.0639  0.1808
13585TIP3    H162170   1.610   3.187  14.187  1.4578 -0.3697  1.0448
13585TIP3    H262171   1.480   3.137  14.247  0.1710  0.6155 -0.8671
13586TIP3   OH262172   0.037   2.829   3.647  0.1785  0.2291  0.1947
13586TIP3    H162173   0.007   2.810   3.558 -0.7907  0.7078  0.4111
13586TIP3    H262174  -0.033   2.882   3.685  1.0708  0.9364  0.8840
13587TIP3   OH262175   4.592   0.709   5.591  0.4073 -0.5625 -0.6812
13587TIP3    H162176   4.564   0.639   5.649  0.2442  0.3456  0.3516
13587TIP3    H262177   4.672   0.743   5.631  0.7744 -0.5089 -1.4563
13588TIP3   OH262178   0.628   3.256  10.700 -0.0909  0.4286 -0.2688
13588TIP3    H162179   0.620   3.200  10.778  1.2544  0.5707 -0.0109
13588TIP3    H262180   0.571   3.331  10.718  0.0997  0.3863  0.5133
13589TIP3   OH262181   4.618   3.135   3.784 -0.4218 -0.9999 -0.0593
13589TIP3    H162182   4.699   3.173   3.752  0.0998 -2.3807 -0.4346
13589TIP3    H262183   4.582   3.089   3.708 -1.1418 -1.0613  0.3178
13590TIP3   OH262184   2.522   6.398  13.894 -0.0226  0.1669  0.3100
13590TIP3    H162185   2.519   6.413  13.799  0.4623  0.7368  0.3846
13590TIP3    H262186   2.524   6.302  13.903 -1.7442  0.0619 -0.2069
13591TIP3   OH262187   5.461   0.737  12.257 -0.4944 -0.1650  0.2448
13591TIP3    H162188   5.438   0.824  12.289 -0.2669 -0.2070  0.5307
13591TIP3    H262189   5.440   0.739  12.164 -0.2705  0.2711  0.2018
13592TIP3   OH262190   4.989   3.787   5.287 -0.0507  0.2799 -0.6249
13592TIP3    H162191   5.074   3.825   5.266  1.7909 -2.0545  2.2399
13592TIP3    H262192   5.007   3.727   5.359 -4.1648 -0.2192  0.0773
13593TIP3   OH262193   4.535   5.209  11.999  0.2394 -0.2113  0.2091
13593TIP3    H162194   4.607   5.147  11.991  0.9961  0.5909  0.7658
13593TIP3    H262195   4.577   5.291  12.024 -1.0091 -0.0758  1.8975
13594TIP3   OH262196   5.571   1.028  15.368 -0.1841  0.2879  0.2382
13594TIP3    H162197   5.579   0.938  15.336 -3.1596  0.2489 -0.5743
13594TIP3    H262198   5.522   1.020  15.450 -0.6262  1.1811  0.0687
13595TIP3   OH262199   4.060   0.249   2.260 -0.5749 -0.3237 -0.3633
13595TIP3    H162200   4.072   0.291   2.175  1.1224  1.6727  0.8331
13595TIP3    H262201   4.060   0.155   2.240  0.3488  0.0896 -2.4961
13596TIP3   OH262202   3.757   4.121  14.796 -0.1366 -0.1157 -0.0448
13596TIP3    H162203   3.721   4.199  14.753 -0.0814  0.3559  0.7566
13596TIP3    H262204   3.800   4.154  14.875  0.1382 -0.9279  0.1550
13597TIP3   OH262205   1.605   3.800  15.031  0.1451 -0.0456 -0.3828
13597TIP3    H162206   1.569   3.789  14.942 -0.4118  0.5744 -0.2368
13597TIP3    H262207   1.545   3.750  15.087  0.4079 -0.3062 -0.3308
13598TIP3   OH262208   0.002   4.943  13.692 -0.2358  0.7886 -0.0889
13598TIP3    H162209   0.085   4.919  13.651 -0.4951  0.6183 -0.5212
13598TIP3    H262210  -0.054   4.866  13.679  0.1008  0.2071  1.7581
13599TIP3   OH262211   0.445   6.423   1.433  0.3108 -0.6580 -0.1384
13599TIP3    H162212   0.512   6.384   1.489  0.3308 -0.4403 -0.0059
13599TIP3    H262213   0.373   6.361   1.435  0.7261 -1.1590 -0.7338
13600TIP3   OH262214   0.372   4.749   2.523 -0.5139  0.0120 -0.3044
13600TIP3    H162215   0.356   4.690   2.449  1.6233 -1.1736  0.1412
13600TIP3    H262216   0.330   4.705   2.597 -0.7902  0.1312 -0.3886
13601TIP3   OH262217   0.397   1.339  17.040 -0.1809 -0.0859  0.4037
13601TIP3    H162218   0.401   1.244  17.039 -0.0273 -0.0878 -1.3203
13601TIP3    H262219   0.478   1.367  17.081 -0.4227 -0.7094  1.2993
13602TIP3   OH262220   4.364   2.046  15.302  0.2477  0.1979  0.2937
13602TIP3    H162221   4.363   2.011  15.391 -0.2522 -0.2206  0.1271
13602TIP3    H262222   4.276   2.029  15.268  0.3490  0.6056 -0.1816
13603TIP3   OH262223   2.876   6.045  16.829 -0.1855 -0.6636 -0.3636
13603TIP3    H162224   2.910   5.964  16.791  0.5618  0.6098 -2.5105
13603TIP3    H262225   2.792   6.020  16.868  1.7796 -3.2762  2.5024
13604TIP3   OH262226   3.711   6.519   3.951  0.5770 -0.0259  0.4582
13604TIP3    H162227   3.655   6.597   3.954 -0.8578 -1.0171 -0.2846
13604TIP3    H262228   3.747   6.513   4.040 -1.1500  0.1521  1.1927
13605TIP3   OH262229   0.805   1.361  14.166  0.4812  0.1072 -0.5806
13605TIP3    H162230   0.852   1.295  14.115 -0.9863 -0.8999 -0.6760
13605TIP3    H262231   0.712   1.342  14.150  0.0170  0.8972  1.0267
13606TIP3   OH262232   3.346   3.840  13.188 -0.0122 -0.4109  0.0143
13606TIP3    H162233   3.282   3.891  13.237 -0.6904 -1.0709 -0.1717
13606TIP3    H262234   3.431   3.868  13.222 -0.4938 -1.3101  2.0076
13607TIP3   OH262235   5.153   2.745   4.665 -0.2329  0.3282  0.3951
13607TIP3    H162236   5.084   2.806   4.638  0.7868  0.9117 -0.9195
13607TIP3    H262237   5.145   2.672   4.604 -1.4977 -0.9344  2.0092
13608TIP3   OH262238   2.620   5.558  16.096  0.2708  1.2517 -0.5545
13608TIP3    H162239   2.644   5.619  16.025 -1.5597 -0.2034 -2.4654
13608TIP3    H262240   2.685   5.488  16.089  0.2105  1.2055 -0.6456
13609TIP3   OH262241   4.273   4.870   4.788  0.0897 -0.7889  1.1023
13609TIP3    H162242   4.356   4.843   4.827  2.1156 -1.9566 -3.6045
13609TIP3    H262243   4.284   4.963   4.768  0.2115 -0.8876  0.6941
13610TIP3   OH262244   6.541   6.072  15.690 -0.2987 -0.4373 -0.0878
13610TIP3    H162245   6.555   6.135  15.619 -0.1018 -0.4559 -0.0650
13610TIP3    H262246   6.532   6.126  15.769  1.1984 -0.5080  0.1370
13611TIP3   OH262247   3.768   6.218  13.303 -0.0828 -0.1060  0.0547
13611TIP3    H162248   3.742   6.134  13.264 -0.4588 -0.1646  0.4311
13611TIP3    H262249   3.759   6.281  13.231  3.7534 -0.9571 -1.3218
13612TIP3   OH262250   1.644   1.483  14.575 -0.5185 -0.4008 -0.2638
13612TIP3    H162251   1.667   1.568  14.612 -1.4826 -0.1230 -0.2741
13612TIP3    H262252   1.621   1.429  14.650  0.1197 -0.6664 -0.2556
13613TIP3   OH262253   2.360   4.564   2.621 -0.6521 -0.5097 -0.0016
13613TIP3    H162254   2.310   4.515   2.556 -2.3215  0.4278  0.5500
13613TIP3    H262255   2.320   4.541   2.705  1.5771 -1.8226  0.7587
13614TIP3   OH262256   6.273   4.318   5.385 -0.6167  0.2978 -0.2662
13614TIP3    H162257   6.348   4.371   5.412 -0.8712 -0.9018  3.1041
13614TIP3    H262258   6.310   4.250   5.329  1.0894 -0.9911  2.3074
13615TIP3   OH262259   0.606   5.060   2.186 -0.0885  0.1958 -0.4910
13615TIP3    H162260   0.663   5.006   2.132  0.1897  0.8701 -0.8702
13615TIP3    H262261   0.585   5.135   2.131 -1.1140  0.0899 -0.2540
13616TIP3   OH262262   2.085   2.318   3.797 -0.2881  0.4615  0.2867
13616TIP3    H162263   2.123   2.257   3.734 -2.6510 -0.7951  0.0308
13616TIP3    H262264   2.077   2.400   3.748  1.0186  0.4344  0.0048
13617TIP3   OH262265   2.101   4.682   0.010 -0.0414 -0.1132  0.2482
13617TIP3    H162266   2.122   4.724   0.093  0.2146  0.5616 -0.1601
13617TIP3    H262267   2.184   4.680  -0.038  0.1115 -1.6911  0.5266
13618TIP3   OH262268   5.051   5.238  16.619 -0.0679  0.4864  0.2119
13618TIP3    H162269   5.025   5.233  16.711 -0.9657  0.1580 -0.0550
13618TIP3    H262270   5.002   5.312  16.584 -0.1521  0.2711 -0.1356
13619TIP3   OH262271   0.463   3.208   6.341  0.0734 -0.3466 -0.3111
13619TIP3    H162272   0.516   3.130   6.356 -2.2717 -1.6052  1.5650
13619TIP3    H262273   0.384   3.177   6.297 -0.0765  1.2335 -1.2253
13620TIP3   OH262274   6.714   1.538   5.524  0.4687 -0.2642 -0.1046
13620TIP3    H162275   6.723   1.444   5.543  1.3956 -0.1272  0.1898
13620TIP3    H262276   6.669   1.574   5.601 -1.0896 -0.6793 -0.8041
13621TIP3   OH262277   1.263   3.480   2.457  0.1945  0.2305 -0.1369
13621TIP3    H162278   1.240   3.560   2.505  0.1393 -0.1055  0.3974
13621TIP3    H262279   1.228   3.409   2.510 -1.1562 -0.0844 -1.4152
13622TIP3   OH262280   4.667   3.165   2.143 -0.3955  0.2232 -0.6916
13622TIP3    H162281   4.635   3.075   2.133 -1.2071  0.6009 -1.6597
13622TIP3    H262282   4.752   3.156   2.186 -0.9665 -0.9325  0.2344
13623TIP3   OH262283   5.750   0.241  15.299  0.2389  0.3855  0.1377
13623TIP3    H162284   5.656   0.255  15.292  0.1529 -0.1243  0.2346
13623TIP3    H262285   5.787   0.329  15.308 -0.1326  0.6486 -0.9307
13624TIP3   OH262286   3.531   6.407   0.854  0.0068  0.1034 -0.2991
13624TIP3    H162287   3.609   6.452   0.821 -0.3466 -0.3919 -1.8211
13624TIP3    H262288   3.543   6.316   0.830 -0.1194 -0.3342  1.2303
13625TIP3   OH262289   1.151   1.296  15.835 -0.4511 -0.0350  0.5340
13625TIP3    H162290   1.129   1.389  15.836 -1.2291 -0.1976 -0.4008
13625TIP3    H262291   1.136   1.266  15.925  0.0599  0.7870  0.9034
13626TIP3   OH262292   5.962   2.560   1.255 -0.2339 -0.6657 -0.6744
13626TIP3    H162293   6.040   2.549   1.201 -0.1699 -1.4906 -0.4278
13626TIP3    H262294   5.891   2.521   1.204 -0.3858 -0.4306 -0.6473
13627TIP3   OH262295   2.673   5.529  12.100  0.4248  0.6585 -0.4108
13627TIP3    H162296   2.589   5.576  12.108  1.5884  2.5022  1.4933
13627TIP3    H262297   2.727   5.587  12.046  1.4866  0.9853  0.9733
13628TIP3   OH262298   5.294   1.133   5.398 -0.0750  0.3881 -0.3522
13628TIP3    H162299   5.219   1.093   5.440 -1.8104  2.3192 -1.5151
13628TIP3    H262300   5.354   1.155   5.470 -0.6031 -1.1796  0.5669
13629TIP3   OH262301   3.225   1.007  13.492 -0.0318  0.2139 -0.1728
13629TIP3    H162302   3.275   1.022  13.573  0.1519  0.5614 -0.3505
13629TIP3    H262303   3.213   0.913  13.489 -0.5998  0.2503  0.6001
13630TIP3   OH262304   3.653   3.512   0.937  0.1976 -0.2657  0.0331
13630TIP3    H162305   3.602   3.500   1.017 -0.8251 -1.0981 -0.7187
13630TIP3    H262306   3.666   3.607   0.930 -2.9773  0.1525 -0.7941
13631TIP3   OH262307   2.604   0.721  15.848  0.4201  0.2220 -0.6110
13631TIP3    H162308   2.567   0.672  15.775 -0.0277 -0.1482 -0.1396
13631TIP3    H262309   2.654   0.792  15.807  0.9499 -0.5350 -1.2952
13632TIP3   OH262310   3.855   4.482   5.232 -0.7379  0.1546  0.3677
13632TIP3    H162311   3.817   4.487   5.145 -0.7785 -0.5590  0.3411
13632TIP3    H262312   3.924   4.416   5.225  0.8140  1.7329  0.3054
13633TIP3   OH262313   5.621   4.137   5.641  0.6118  0.4169 -0.0034
13633TIP3    H162314   5.542   4.135   5.586  1.4711 -0.2874 -1.2345
13633TIP3    H262315   5.686   4.184   5.589  2.0497 -1.9768 -0.4739
13634TIP3   OH262316   2.142   1.052  15.940  0.1110 -0.3313 -0.3219
13634TIP3    H162317   2.089   1.114  15.991 -0.9784  0.2402 -2.0824
13634TIP3    H262318   2.231   1.062  15.974 -0.6625 -0.3811  1.8240
13635TIP3   OH262319   1.322   4.055  11.256  0.2126  0.4934  0.1107
13635TIP3    H162320   1.324   4.026  11.347  0.5890  0.2477  0.0254
13635TIP3    H262321   1.407   4.095  11.241  1.3912 -2.2865 -1.0308
13636TIP3   OH262322   0.857   4.721   1.387 -0.2000 -0.0169  0.1003
13636TIP3    H162323   0.917   4.676   1.445 -0.8152 -0.1322  0.6577
13636TIP3    H262324   0.901   4.803   1.365 -0.3374  0.4154  1.4219
13637TIP3   OH262325   3.111   2.280  12.627 -0.1283 -0.4779  0.5879
13637TIP3    H162326   3.038   2.318  12.676 -1.2257 -1.9759  0.1746
13637TIP3    H262327   3.069   2.237  12.552  1.4515  1.0919 -1.2437
13638TIP3   OH262328   1.169   3.222   2.032 -0.4770  0.5176 -0.0084
13638TIP3    H162329   1.145   3.141   1.988 -0.3286  0.9258 -0.8460
13638TIP3    H262330   1.246   3.253   1.984 -1.5047  2.0003 -0.7264
13639TIP3   OH262331   4.043   0.880   1.861  0.0978  0.1960 -0.3238
13639TIP3    H162332   4.049   0.967   1.823 -0.9382  0.3382 -0.1788
13639TIP3    H262333   4.126   0.868   1.908  0.8571  0.5157 -1.5551
13640TIP3   OH262334   1.378   6.547  11.393 -0.6583  0.4465 -0.1883
13640TIP3    H162335   1.443   6.598  11.441 -1.1603  1.3965 -0.5075
13640TIP3    H262336   1.295   6.593  11.406 -1.1379 -0.3320 -0.4076
13641TIP3   OH262337   5.758   0.530   6.156  0.4865  0.3114 -0.2003
13641TIP3    H162338   5.831   0.493   6.105 -0.7681 -0.4117 -1.5033
13641TIP3    H262339   5.800   0.571   6.231  2.2594  0.0366 -1.0167
13642TIP3   OH262340   4.360   3.838   5.266  0.2595  0.0021 -0.1593
13642TIP3    H162341   4.345   3.772   5.333 -0.0121  1.0760  0.8625
13642TIP3    H262342   4.309   3.808   5.191 -1.2704 -0.0732  0.8725
13643TIP3   OH262343   6.704   6.693   3.270 -0.5024 -0.4297  0.0905
13643TIP3    H162344   6.705   6.684   3.365  0.4818 -3.1201 -0.1258
13643TIP3    H262345   6.615   6.671   3.244 -0.5436 -0.5133  0.3027
13644TIP3   OH262346   2.195   0.346  10.456 -0.2968  0.2266 -0.3509
13644TIP3    H162347   2.226   0.434  10.477  3.4574 -1.0740  0.1222
13644TIP3    H262348   2.268   0.307  10.407 -1.4283 -2.9705  0.4135
13645TIP3   OH262349   6.457   2.553   1.013 -0.1982 -0.0769  0.3238
13645TIP3    H162350   6.513   2.589   0.944  1.0400  0.6765  1.7217
13645TIP3    H262351   6.434   2.465   0.981  0.2797  0.3024 -1.0854
13646TIP3   OH262352   0.450   4.904  13.237 -0.1228  0.5764  0.1965
13646TIP3    H162353   0.393   4.961  13.186  1.9673  2.1378 -0.4459
13646TIP3    H262354   0.440   4.934  13.327 -1.3587 -0.0799  0.2925
13647TIP3   OH262355   2.076   0.653   0.220 -0.3744  0.0813 -0.3365
13647TIP3    H162356   2.081   0.585   0.287  2.4769  0.2647 -0.2933
13647TIP3    H262357   2.144   0.716   0.245 -0.8723  1.3517 -2.1018
13648TIP3   OH262358   2.946   0.101   2.127 -0.1660  0.5999  0.0087
13648TIP3    H162359   2.893   0.055   2.192 -1.7093  2.1869 -0.0755
13648TIP3    H262360   2.905   0.187   2.119 -0.4847  0.1884 -3.6665
13649TIP3   OH262361   2.261   5.783   0.820 -0.2407 -0.6569  0.1363
13649TIP3    H162362   2.187   5.797   0.879  0.1451 -1.5378  0.8326
13649TIP3    H262363   2.256   5.691   0.796 -0.4834 -0.2765 -1.3421
13650TIP3   OH262364   1.601   5.533  14.391 -0.0476  0.2278  0.1688
13650TIP3    H162365   1.678   5.589  14.382  0.4916 -0.2307  1.6503
13650TIP3    H262366   1.573   5.547  14.482 -1.3013 -0.1242 -0.1616
13651TIP3   OH262367   2.473   3.730   4.550  0.1358 -0.4049  0.3914
13651TIP3    H162368   2.386   3.697   4.572  0.5570 -1.6595  0.2080
13651TIP3    H262369   2.458   3.793   4.480 -0.3819 -2.5630 -1.4928
13652TIP3   OH262370   6.742   4.216  15.554 -0.1185  0.9528 -0.5303
13652TIP3    H162371   6.651   4.189  15.567 -0.0109  1.5034  1.4639
13652TIP3    H262372   6.737   4.309  15.535  0.1562  1.4382  1.6666
13653TIP3   OH262373   5.743   4.059   2.104 -0.0179  0.0934 -0.4655
13653TIP3    H162374   5.706   3.972   2.091  0.1295 -0.0979  0.3951
13653TIP3    H262375   5.826   4.044   2.149  0.0687  0.6736 -0.4247
13654TIP3   OH262376   3.600   2.284  15.070 -0.2524  0.1869  0.3622
13654TIP3    H162377   3.541   2.214  15.098  0.3690 -0.6686 -0.4192
13654TIP3    H262378   3.687   2.253  15.093  0.2440 -0.3893 -2.0963
13655TIP3   OH262379   5.686   3.884  15.194  0.5294  0.1558 -0.5316
13655TIP3    H162380   5.602   3.846  15.169  0.9763 -0.1931 -1.4938
13655TIP3    H262381   5.667   3.978  15.206 -0.9497 -0.5364  3.4888
13656TIP3   OH262382   5.505   0.714  14.459  0.2431 -0.0721  0.6307
13656TIP3    H162383   5.416   0.704  14.493 -0.5183 -0.6647 -1.4502
13656TIP3    H262384   5.541   0.626  14.457 -0.2445 -0.2669 -1.3651
13657TIP3   OH262385   4.306   1.696  13.573 -0.1029 -0.2581 -0.2909
13657TIP3    H162386   4.358   1.742  13.507  0.6057 -0.5534  0.0614
13657TIP3    H262387   4.363   1.691  13.650 -0.9199  0.0657  0.3382
13658TIP3   OH262388   4.463   2.939   6.074 -0.5037  0.2062  0.1438
13658TIP3    H162389   4.427   2.865   6.123  0.6457 -0.3982  0.0759
13658TIP3    H262390   4.449   2.917   5.982  0.7228 -0.3834  0.0936
13659TIP3   OH262391   6.203   3.958  15.832 -0.3443  0.0039 -0.6927
13659TIP3    H162392   6.165   3.879  15.794  0.7268 -0.0504 -1.6759
13659TIP3    H262393   6.173   3.958  15.923 -0.2226 -1.6113 -0.6361
13660TIP3   OH262394   0.293   5.688  14.668  0.2930 -0.1097  0.4140
13660TIP3    H162395   0.303   5.667  14.761  0.1448 -0.4914  0.3469
13660TIP3    H262396   0.375   5.659  14.628  0.1356 -0.4542  0.3390
13661TIP3   OH262397   6.595   4.900  12.132 -0.3335 -0.0266 -0.2037
13661TIP3    H162398   6.502   4.910  12.112 -0.2678  0.9542 -0.0602
13661TIP3    H262399   6.630   4.850  12.058 -1.0956 -0.9682  0.0631
13662TIP3   OH262400   0.532   5.336  15.195  0.2190  0.1363 -0.4986
13662TIP3    H162401   0.571   5.336  15.108  0.3336  1.9284 -0.4678
13662TIP3    H262402   0.557   5.420  15.233 -0.9239 -0.0710  0.7674
13663TIP3   OH262403   3.599   0.896  11.984 -0.7890 -0.4283  0.5527
13663TIP3    H162404   3.583   0.859  11.897  1.6917  0.6602 -0.3929
13663TIP3    H262405   3.567   0.829  12.044  1.0848 -2.9318 -1.1502
13664TIP3   OH262406   4.701   6.198   1.169 -0.3195  0.3195  0.4139
13664TIP3    H162407   4.700   6.176   1.262  1.5709  0.7173  0.5409
13664TIP3    H262408   4.675   6.117   1.125  2.3624 -0.9902  1.1196
13665TIP3   OH262409   3.911   6.224   2.977  0.1677  0.2645 -0.0434
13665TIP3    H162410   3.896   6.152   3.039  0.0734 -0.2716 -0.6788
13665TIP3    H262411   3.837   6.283   2.990  0.5200  0.5241  0.8586
13666TIP3   OH262412   1.369   0.378  14.209  0.0028  0.4078 -0.1572
13666TIP3    H162413   1.457   0.414  14.205  0.5404 -0.8633  0.0591
13666TIP3    H262414   1.366   0.330  14.292 -0.6453 -0.1778 -0.5088
13667TIP3   OH262415   6.148   0.454  16.860 -0.1692  0.1195 -0.1725
13667TIP3    H162416   6.131   0.530  16.805  1.0963  2.0581  2.0684
13667TIP3    H262417   6.148   0.380  16.798  0.6432  2.1389 -2.6913
13668TIP3   OH262418   6.734   5.315  11.322 -0.2297  0.0936 -0.2589
13668TIP3    H162419   6.673   5.273  11.261 -2.5175  1.2225  1.1502
13668TIP3    H262420   6.817   5.319  11.275 -1.3455 -1.1293 -2.4046
13669TIP3   OH262421   4.084   3.093  15.228 -0.5945 -0.3191 -0.3383
13669TIP3    H162422   4.107   3.020  15.286 -0.5694  0.2647  0.4012
13669TIP3    H262423   4.142   3.082  15.153  0.2453 -0.3948  0.2998
13670TIP3   OH262424   5.751   2.204  16.723 -0.1898  0.1122 -0.0144
13670TIP3    H162425   5.826   2.166  16.769  2.1325  3.2714 -1.0173
13670TIP3    H262426   5.757   2.169  16.634 -0.3789 -0.2524  0.1138
13671TIP3   OH262427   0.856   5.894   0.401 -0.2081  0.1375 -0.5372
13671TIP3    H162428   0.863   5.903   0.306 -0.5018 -3.5663 -0.9831
13671TIP3    H262429   0.762   5.885   0.418 -0.3008  2.2594  0.3268
13672TIP3   OH262430   1.035   4.432  16.096  0.1911  0.4410  0.0821
13672TIP3    H162431   1.131   4.440  16.093  0.0235  2.8360  0.2939
13672TIP3    H262432   1.016   4.404  16.185  0.6430  0.5609  0.2189
13673TIP3   OH262433   6.630   5.083  13.892  0.1343  0.3305 -0.2468
13673TIP3    H162434   6.684   5.058  13.817 -1.7959  0.1487 -1.6245
13673TIP3    H262435   6.656   5.173  13.911  0.3519  0.5351 -1.4341
13674TIP3   OH262436   3.081   3.627   0.813 -0.3083  0.5128  0.4151
13674TIP3    H162437   3.036   3.656   0.893 -0.6208  0.9602  0.0792
13674TIP3    H262438   3.060   3.694   0.748  2.3266  1.6942  0.7301
13675TIP3   OH262439   1.171   4.005   5.486  0.3379 -0.0867  0.1901
13675TIP3    H162440   1.137   3.953   5.559  3.6742 -0.1473  1.7893
13675TIP3    H262441   1.120   3.977   5.410 -1.4310 -1.9151  2.0143
13676TIP3   OH262442   0.866   3.101   5.704  0.5244  0.6325  0.0954
13676TIP3    H162443   0.952   3.120   5.741  0.4259  1.4354 -0.0651
13676TIP3    H262444   0.844   3.014   5.736  2.0200 -0.1686 -1.0269
13677TIP3   OH262445   4.125   1.381  14.845  0.7804 -0.2726 -0.1437
13677TIP3    H162446   4.194   1.323  14.812  1.0198 -1.1582  1.8241
13677TIP3    H262447   4.085   1.331  14.916 -1.1206  0.7261 -0.4989
13678TIP3   OH262448   2.070   4.434   0.872  0.6475 -0.3791  0.4767
13678TIP3    H162449   2.019   4.515   0.866 -0.8951 -1.2943  0.8369
13678TIP3    H262450   2.143   4.455   0.931 -0.2185  0.5079  1.2406
13679TIP3   OH262451   1.947   3.494  12.595  0.0888 -0.5476  0.3661
13679TIP3    H162452   2.026   3.541  12.624  1.2439 -0.8014 -2.1341
13679TIP3    H262453   1.970   3.402  12.603  0.3980 -0.6208 -1.1647
13680TIP3   OH262454   2.518   2.870  15.349  0.1473  0.1642  0.4189
13680TIP3    H162455   2.581   2.914  15.291  0.2620 -1.1765 -0.4918
13680TIP3    H262456   2.446   2.844  15.291  0.7664 -2.1707  0.6454
13681TIP3   OH262457   0.531   5.702  15.051 -0.8273  0.2281 -0.2510
13681TIP3    H162458   0.563   5.612  15.039 -0.6866  0.6460 -3.4473
13681TIP3    H262459   0.600   5.745  15.101 -1.8463 -1.9381  3.1963
13682TIP3   OH262460   3.651   1.178   6.411  0.1976 -0.3755 -0.3391
13682TIP3    H162461   3.716   1.232   6.366  0.0101  1.2335  1.2418
13682TIP3    H262462   3.666   1.089   6.379  0.0027  0.7219 -3.5966
13683TIP3   OH262463   3.077   6.167   2.448  0.8250  0.4931 -0.6972
13683TIP3    H162464   3.023   6.239   2.481  0.2341 -0.3991  0.3200
13683TIP3    H262465   3.014   6.105   2.412  1.3239  0.4312 -1.4577
13684TIP3   OH262466   2.126   2.939   1.992 -0.0533 -0.4501 -0.6694
13684TIP3    H162467   2.085   2.876   2.051 -0.8659  0.6664 -0.0132
13684TIP3    H262468   2.215   2.950   2.025  0.4329 -1.9998 -1.3979
13685TIP3   OH262469   0.036   5.739   4.596  0.2231  0.3001  0.0810
13685TIP3    H162470   0.100   5.705   4.659 -0.9464  0.5076  1.4028
13685TIP3    H262471   0.039   5.677   4.522  0.0485 -1.1745  1.2889
13686TIP3   OH262472   3.653   3.773   0.873 -0.0805 -0.4773  0.0462
13686TIP3    H162473   3.650   3.731   0.787  0.9703  1.4199 -0.9624
13686TIP3    H262474   3.735   3.822   0.873  0.5421 -1.4494  2.6382
13687TIP3   OH262475   2.401   6.153   4.306 -0.0568  0.6142 -0.0412
13687TIP3    H162476   2.462   6.134   4.378 -0.1879 -0.2362 -0.1415
13687TIP3    H262477   2.331   6.088   4.317  0.8493 -0.7734 -2.0316
13688TIP3   OH262478   4.880   6.707  14.886  0.3979 -0.3335 -0.3945
13688TIP3    H162479   4.860   6.624  14.928 -0.6575 -0.9252 -1.9994
13688TIP3    H262480   4.795   6.748  14.871  0.8486  0.5947 -0.4882
13689TIP3   OH262481   4.032   1.647   3.243 -0.0230  0.1309  0.2253
13689TIP3    H162482   4.062   1.676   3.157  0.7690 -0.3847  0.3209
13689TIP3    H262483   4.006   1.556   3.230 -2.1261  0.7527  0.0110
13690TIP3   OH262484   3.757   5.542   0.698 -0.1352  0.7234  0.1206
13690TIP3    H162485   3.743   5.450   0.675 -0.2940  0.6196  0.6395
13690TIP3    H262486   3.706   5.556   0.777  1.2650  0.7957  1.0396
13691TIP3   OH262487   3.625   1.201  15.504 -0.0762 -0.5124  0.5038
13691TIP3    H162488   3.535   1.230  15.518  0.8974  1.3380  3.1861
13691TIP3    H262489   3.679   1.273  15.536  2.3998 -1.3343 -1.6116
13692TIP3   OH262490   4.923   4.134   1.130  0.0762  0.4638 -0.3243
13692TIP3    H162491   4.964   4.220   1.142  0.3509  0.3978 -0.7740
13692TIP3    H262492   4.955   4.105   1.045 -0.7157  0.3030 -0.5642
13693TIP3   OH262493   4.648   0.996  15.338  0.0967 -0.5507 -0.5166
13693TIP3    H162494   4.651   0.973  15.431 -0.7244  0.7061 -0.1736
13693TIP3    H262495   4.584   0.935  15.300 -0.8745  0.0840  0.0796
13694TIP3   OH262496   4.671   1.943   5.533 -0.5548  0.4753  0.5798
13694TIP3    H162497   4.607   1.988   5.478  0.5613  0.0519 -1.0787
13694TIP3    H262498   4.726   2.012   5.568  1.3778  0.4548 -2.2432
13695TIP3   OH262499   6.572   0.870   1.057 -1.0132  0.2609 -0.2521
13695TIP3    H162500   6.502   0.876   1.122 -0.3895  1.3242  0.3497
13695TIP3    H262501   6.612   0.785   1.073  0.3187  1.2651  2.0243
13696TIP3   OH262502   0.794   5.582   5.668 -0.2160  0.3213  0.2802
13696TIP3    H162503   0.748   5.501   5.644  0.4457  0.3949 -1.3006
13696TIP3    H262504   0.797   5.632   5.586  2.5221  0.3864  0.3917
13697TIP3   OH262505   4.401   5.989   3.310  0.2666 -0.3265  0.5728
13697TIP3    H162506   4.374   6.004   3.401 -0.3759 -1.2824  0.5445
13697TIP3    H262507   4.319   5.986   3.261  0.5747 -0.5308  0.0669
13698TIP3   OH262508   0.175   2.352  15.131  0.3189 -0.3325 -0.3094
13698TIP3    H162509   0.139   2.433  15.094  0.8016 -0.1184 -0.3226
13698TIP3    H262510   0.188   2.295  15.056  0.9309 -0.0437 -0.4242
13699TIP3   OH262511   5.681   3.526   0.137 -0.2029 -0.2165  0.0924
13699TIP3    H162512   5.623   3.574   0.078  1.1884 -0.4752 -1.5185
13699TIP3    H262513   5.676   3.575   0.220  0.1698  1.9914 -1.1300
13700TIP3   OH262514   3.800   0.311   4.758 -0.3611 -0.5142 -0.3729
13700TIP3    H162515   3.778   0.307   4.665  0.9440  1.5944 -0.8186
13700TIP3    H262516   3.880   0.258   4.765  0.8368  1.1789 -0.9092
13701TIP3   OH262517   5.861   5.168   4.532  0.2083  0.1183 -0.0594
13701TIP3    H162518   5.811   5.217   4.597 -1.2291 -0.3478 -0.7990
13701TIP3    H262519   5.828   5.198   4.448  0.4493 -0.9385 -0.5456
13702TIP3   OH262520   6.707   4.512   2.858  0.0486 -0.6264  0.1363
13702TIP3    H162521   6.619   4.479   2.842 -0.4326  0.6396  0.0942
13702TIP3    H262522   6.695   4.607   2.868  1.4431 -0.4124 -0.1646
13703TIP3   OH262523   6.671   1.422  15.829  0.1066 -0.0960  0.0417
13703TIP3    H162524   6.721   1.447  15.907 -1.3934 -0.7639  1.2617
13703TIP3    H262525   6.595   1.375  15.864 -0.2803 -0.9393 -1.8758
13704TIP3   OH262526   3.878   0.926  15.072 -0.0610 -0.2052  0.1406
13704TIP3    H162527   3.966   0.961  15.089  0.5943 -1.5541 -0.4006
13704TIP3    H262528   3.819   0.986  15.118  1.1393  0.7496  0.4584
13705TIP3   OH262529   1.020   6.700   4.898 -0.7562  0.0469 -0.2259
13705TIP3    H162530   1.043   6.775   4.953 -1.0893  0.1110 -0.1746
13705TIP3    H262531   1.018   6.735   4.809 -1.6306  0.2592 -0.1216
13706TIP3   OH262532   6.263   3.062   4.418 -0.4490  0.2913  0.8231
13706TIP3    H162533   6.334   3.097   4.473  0.3199  1.1819 -0.7102
13706TIP3    H262534   6.183   3.088   4.463  0.1653  1.6242  1.1586
13707TIP3   OH262535   5.576   0.661   1.782  0.0835 -0.7502  0.3344
13707TIP3    H162536   5.485   0.682   1.761 -0.6887 -2.2268  2.0984
13707TIP3    H262537   5.611   0.622   1.701 -1.1724 -1.1643 -0.0151
13708TIP3   OH262538   0.056   5.853   5.443 -0.5609 -0.1466 -0.1126
13708TIP3    H162539  -0.002   5.927   5.432 -0.5212  0.0666  1.0424
13708TIP3    H262540  -0.002   5.777   5.453 -0.6557  0.0254  0.7460
13709TIP3   OH262541   4.472   2.869  10.703  0.1581 -0.7936 -0.3614
13709TIP3    H162542   4.550   2.916  10.735 -0.0734 -1.1925  0.7847
13709TIP3    H262543   4.486   2.863  10.609 -0.5822  3.0804 -0.8199
13710TIP3   OH262544   1.513   1.037   4.696 -0.4585  0.2268 -0.0014
13710TIP3    H162545   1.537   1.028   4.603  0.2377  0.6415  0.1326
13710TIP3    H262546   1.520   1.130   4.714  1.8718 -0.1005  1.0920
13711TIP3   OH262547   1.869   2.902   0.648  0.1334  0.4623 -0.6575
13711TIP3    H162548   1.939   2.865   0.594  0.8605  0.6593  0.1540
13711TIP3    H262549   1.818   2.826   0.676  0.1080  0.3063 -1.1169
13712TIP3   OH262550   3.865   1.583   6.890  0.3127 -0.0263 -0.0666
13712TIP3    H162551   3.874   1.659   6.833 -0.6965  0.8554  0.9226
13712TIP3    H262552   3.779   1.592   6.930  0.6198 -1.1136  0.8875
13713TIP3   OH262553   4.426   6.381  12.273  0.1050 -0.4321 -0.7345
13713TIP3    H162554   4.334   6.393  12.297  0.4329  0.4355  0.1432
13713TIP3    H262555   4.434   6.417  12.185  0.1454  1.9032  0.1939
13714TIP3   OH262556   0.377   4.642   5.353  0.2366 -1.1253 -0.5859
13714TIP3    H162557   0.411   4.681   5.272 -0.0601  0.6939  0.1461
13714TIP3    H262558   0.337   4.560   5.325  0.8883 -0.9247 -2.1602
13715TIP3   OH262559   3.560   4.499  11.947 -0.6370  0.3826 -0.6683
13715TIP3    H162560   3.623   4.538  12.007  0.8631 -0.0670 -1.9209
13715TIP3    H262561   3.515   4.432  11.999 -0.6621  1.2645  0.4568
13716TIP3   OH262562   1.431   1.395   2.537  0.0665  0.4224 -0.4541
13716TIP3    H162563   1.340   1.367   2.526 -0.1249 -0.3700  2.5845
13716TIP3    H262564   1.456   1.432   2.452 -3.1594  0.8817 -1.2562
13717TIP3   OH262565   3.120   3.144  16.798  0.3149 -0.1655  0.7904
13717TIP3    H162566   3.051   3.079  16.802 -1.5947  1.4513 -3.3761
13717TIP3    H262567   3.088   3.216  16.853  0.0237 -0.5550  1.1382
13718TIP3   OH262568   0.696   2.138  17.220 -0.2981 -0.0842 -0.1785
13718TIP3    H162569   0.779   2.125  17.173  0.0821 -2.6766  1.1039
13718TIP3    H262570   0.722   2.140  17.313 -1.6883 -0.9425  0.2311
13719TIP3   OH262571   2.541   5.108   5.774  0.2146  0.4917  0.2602
13719TIP3    H162572   2.475   5.133   5.709  0.9113 -1.1025 -1.0845
13719TIP3    H262573   2.489   5.072   5.847 -0.5014  1.2697  0.1523
13720TIP3   OH262574   2.593   4.423   0.067  0.2869 -0.1585  0.2000
13720TIP3    H162575   2.550   4.488   0.123  0.7712  1.1832 -0.9620
13720TIP3    H262576   2.671   4.397   0.117  0.0193  0.0550  0.7350
13721TIP3   OH262577   3.001   0.091   1.750 -0.0243 -0.0918 -0.2603
13721TIP3    H162578   3.051   0.125   1.824 -0.5271 -0.5115  0.2650
13721TIP3    H262579   3.040   0.005   1.732 -0.0459 -0.0826 -0.3535
13722TIP3   OH262580   4.783   1.403  11.709  0.4400 -0.2043  0.0762
13722TIP3    H162581   4.871   1.382  11.679  1.2279  0.0691  2.1099
13722TIP3    H262582   4.789   1.400  11.805 -1.4901  0.8751  0.2529
13723TIP3   OH262583   2.339   3.192   5.656 -0.0309 -0.2630 -0.2138
13723TIP3    H162584   2.365   3.121   5.596 -1.1218 -2.2638  1.5902
13723TIP3    H262585   2.244   3.198   5.646 -0.3153 -1.0700  1.7245
13724TIP3   OH262586   6.169   5.892   5.108  0.4654  0.3674 -0.0321
13724TIP3    H162587   6.214   5.952   5.047  0.3781  0.0570 -0.4061
13724TIP3    H262588   6.211   5.808   5.094 -0.1238  0.1089 -0.2687
13725TIP3   OH262589   3.446   2.734   1.427  0.6826  0.4366 -0.1701
13725TIP3    H162590   3.370   2.725   1.369  0.1432  0.9237  0.4596
13725TIP3    H262591   3.516   2.686   1.382 -0.0615 -0.2341 -0.6231
13726TIP3   OH262592   4.160   6.603   0.878  0.0133  0.4989 -0.2984
13726TIP3    H162593   4.225   6.547   0.921 -0.3895  0.2526 -0.0026
13726TIP3    H262594   4.208   6.681   0.852  0.2313  0.7197  0.7451
13727TIP3   OH262595   0.463   4.230   5.114 -0.2596  0.0925 -0.4954
13727TIP3    H162596   0.459   4.315   5.070  0.3907  0.0791 -0.5820
13727TIP3    H262597   0.535   4.239   5.177 -0.0467 -0.4686 -0.6601
13728TIP3   OH262598   5.414   4.497  15.380  0.1648 -0.1063  0.5645
13728TIP3    H162599   5.334   4.458  15.415 -0.2460  0.7308  0.5699
13728TIP3    H262600   5.448   4.551  15.451  0.5213 -0.1446  0.4242
13729TIP3   OH262601   3.898   3.693  16.719 -0.3226 -0.2285  0.5530
13729TIP3    H162602   3.921   3.782  16.746  0.0043 -0.3889  0.8130
13729TIP3    H262603   3.810   3.700  16.682  0.8806  0.7629 -2.2746
13730TIP3   OH262604   2.847   6.294   2.566 -0.0054  0.7732  0.0209
13730TIP3    H162605   2.882   6.249   2.643  0.3339 -2.7294 -2.0598
13730TIP3    H262606   2.752   6.279   2.570  0.2728 -1.7771 -1.5669
13731TIP3   OH262607   0.974   1.887  15.679  0.7173 -0.0292 -0.4525
13731TIP3    H162608   0.949   1.816  15.619 -1.0948  0.3083 -0.1170
13731TIP3    H262609   1.069   1.886  15.679  0.7548 -0.0117 -3.3923
13732TIP3   OH262610   1.483   5.969   0.391  0.5643 -0.0997  0.1034
13732TIP3    H162611   1.569   5.995   0.424 -0.1794  0.1928  1.8755
13732TIP3    H262612   1.434   6.051   0.384  0.5899 -0.2020 -1.4247
13733TIP3   OH262613   0.528   4.734  15.602 -0.1781 -0.1782  0.0209
13733TIP3    H162614   0.577   4.800  15.553 -0.7977  0.5014  0.3131
13733TIP3    H262615   0.488   4.679  15.535 -0.5573  0.4068 -0.2414
13734TIP3   OH262616   4.609   4.658  14.295  0.1942 -0.2403 -0.0408
13734TIP3    H162617   4.526   4.620  14.323  0.9294 -1.5248  0.4393
13734TIP3    H262618   4.663   4.583  14.270  1.9351  0.3997  1.6307
13735TIP3   OH262619   1.435   5.034  11.244  0.5384  0.0641 -0.1330
13735TIP3    H162620   1.413   5.095  11.174 -0.6890 -0.5054 -0.2589
13735TIP3    H262621   1.502   4.977  11.205  1.1443  0.8438 -0.2536
13736TIP3   OH262622   1.965   4.134   5.604 -0.8426 -0.0257  0.0157
13736TIP3    H162623   1.998   4.181   5.680 -1.8666 -0.3639  0.6805
13736TIP3    H262624   1.909   4.065   5.640  0.9767 -2.0472 -0.9218
13737TIP3   OH262625   6.309   3.559   2.814 -0.0082 -0.4514 -0.4643
13737TIP3    H162626   6.314   3.550   2.719  1.6041 -1.4853 -0.2931
13737TIP3    H262627   6.229   3.610   2.829  0.9951  1.7742 -2.4816
13738TIP3   OH262628   0.407   6.060  17.107  0.5401  0.2693 -0.1895
13738TIP3    H162629   0.486   6.006  17.116  0.9748  1.0479  0.8771
13738TIP3    H262630   0.338   6.010  17.149  0.3130 -0.7169 -1.7176
13739TIP3   OH262631   4.788   6.015   1.399  0.0523  0.0989  0.1837
13739TIP3    H162632   4.822   5.939   1.446  1.2702 -0.6371 -1.8068
13739TIP3    H262633   4.777   6.082   1.466  0.5388 -1.3155  1.7088
13740TIP3   OH262634   2.848   3.386  12.416 -0.1459 -0.2296 -0.1025
13740TIP3    H162635   2.918   3.451  12.425 -0.5108  0.1640 -0.0368
13740TIP3    H262636   2.792   3.421  12.346 -1.6304  0.7268  1.5190
13741TIP3   OH262637   0.613   4.487   5.735 -0.1003  1.5174 -0.1724
13741TIP3    H162638   0.531   4.460   5.692  0.5105  1.1213 -1.0934
13741TIP3    H262639   0.681   4.470   5.670  0.8722  0.6345  1.0615
13742TIP3   OH262640   2.908   2.792  12.058 -0.8595 -0.0200 -0.4802
13742TIP3    H162641   2.910   2.854  12.131 -1.9051  0.4719 -0.8659
13742TIP3    H262642   2.993   2.804  12.015 -0.1765 -0.4161  0.7278
13743TIP3   OH262643   3.026   3.670   2.901 -0.0884  0.0891 -0.6163
13743TIP3    H162644   2.978   3.608   2.957  0.7358  1.5780  1.8213
13743TIP3    H262645   2.961   3.735   2.876  0.1798  1.1136  1.2131
13744TIP3   OH262646   6.073   2.625  11.756  0.0389 -0.1413 -0.0479
13744TIP3    H162647   6.150   2.576  11.785  0.3913  0.3402 -0.1553
13744TIP3    H262648   6.109   2.708  11.722 -0.3990 -0.5623 -1.5524
13745TIP3   OH262649   0.404   3.477  11.790  0.3360  0.2071 -0.5120
13745TIP3    H162650   0.314   3.458  11.765  0.2919 -1.1893  0.6430
13745TIP3    H262651   0.412   3.572  11.782 -1.0313  0.2578 -1.3001
13746TIP3   OH262652   1.799   5.935   1.959 -0.0874  0.5894  0.0337
13746TIP3    H162653   1.887   5.911   1.931 -0.6818 -1.7628  0.1282
13746TIP3    H262654   1.755   5.852   1.976 -2.4397  1.7105 -0.3244
13747TIP3   OH262655   1.695   4.972   6.071  0.0916 -0.0362  0.6463
13747TIP3    H162656   1.678   4.886   6.110  1.2090 -0.2977  0.6009
13747TIP3    H262657   1.711   5.030   6.146  1.4242 -0.3523  0.6167
13748TIP3   OH262658   0.329   3.258   4.001 -0.3304 -0.3076 -0.3066
13748TIP3    H162659   0.268   3.193   3.966  0.2694 -1.7384  1.2464
13748TIP3    H262660   0.404   3.254   3.941 -0.2188 -1.1931 -0.1214
13749TIP3   OH262661   0.421   3.835   2.367 -0.6833 -0.1908 -0.1051
13749TIP3    H162662   0.367   3.766   2.406  0.2841 -1.3905 -0.8530
13749TIP3    H262663   0.475   3.790   2.302  0.8134  1.0780  0.2182
13750TIP3   OH262664   3.282   2.220   2.211  0.4387  0.0411  0.2195
13750TIP3    H162665   3.271   2.125   2.204 -0.8353  0.2641 -1.1901
13750TIP3    H262666   3.201   2.256   2.174  1.6884  1.6980 -1.0012
13751TIP3   OH262667   5.408   2.453   1.503  0.6109  0.4133  0.4890
13751TIP3    H162668   5.332   2.420   1.552  1.2928 -1.4430  0.3473
13751TIP3    H262669   5.475   2.465   1.570  0.5521  0.9647  0.4505
13752TIP3   OH262670   1.124   5.299  11.362 -0.5637  0.0241 -0.0725
13752TIP3    H162671   1.164   5.374  11.317 -1.6105  0.6599  0.0457
13752TIP3    H262672   1.031   5.305  11.340 -0.4985 -1.8411 -0.9136
13753TIP3   OH262673   4.010   1.429  15.363  0.0222 -0.3345 -0.4568
13753TIP3    H162674   3.991   1.342  15.397  1.2233 -0.8082 -0.9758
13753TIP3    H262675   3.937   1.449  15.304  0.6646 -1.7591 -1.7628
13754TIP3   OH262676   5.934   6.543  15.182  0.3972 -0.0357  0.0174
13754TIP3    H162677   6.020   6.552  15.223 -0.1265  1.1597  0.8974
13754TIP3    H262678   5.900   6.461  15.216 -0.7636  1.7851  3.4522
13755TIP3   OH262679   3.439   0.188  14.481  0.3328 -0.2203 -0.0081
13755TIP3    H162680   3.415   0.131  14.408 -1.1621  0.4781 -0.0750
13755TIP3    H262681   3.449   0.275  14.442  2.9866 -0.4547  0.0220
13756TIP3   OH262682   6.130   0.623  14.927 -0.3788 -0.3197 -0.4062
13756TIP3    H162683   6.139   0.643  15.020 -0.1551  1.7715 -0.8591
13756TIP3    H262684   6.102   0.531  14.925 -2.3780  0.1977  1.7943
13757TIP3   OH262685   0.689   3.871  15.076 -0.0623  0.0053 -0.7614
13757TIP3    H162686   0.659   3.853  14.987 -0.6018 -1.4968 -0.2902
13757TIP3    H262687   0.751   3.800  15.096 -0.1022  0.2092  0.1302
13758TIP3   OH262688   0.493   3.374   5.618  0.3867  0.4082 -0.5508
13758TIP3    H162689   0.412   3.405   5.578  0.0581 -0.0317 -0.2363
13758TIP3    H262690   0.559   3.382   5.549 -0.2932 -0.8962 -1.3710
13759TIP3   OH262691   4.118   0.649  16.532  0.1775 -0.3163 -0.0159
13759TIP3    H162692   4.118   0.647  16.628 -1.3273 -0.5040 -0.0064
13759TIP3    H262693   4.135   0.559  16.506  0.3244 -0.3170  0.0854
13760TIP3   OH262694   6.454   4.598   3.154 -0.0270 -0.0716 -0.6937
13760TIP3    H162695   6.414   4.571   3.071 -0.0716 -0.1013 -0.6630
13760TIP3    H262696   6.388   4.654   3.194  0.5478  1.0579 -1.3095
13761TIP3   OH262697   5.524   0.988   4.218 -0.1127  0.6236  0.4942
13761TIP3    H162698   5.495   1.063   4.167  1.1268  0.6019 -0.2799
13761TIP3    H262699   5.509   1.012   4.309 -0.8466  1.3182  0.1850
13762TIP3   OH262700   3.395   1.131   2.182  0.1387  0.1924 -0.1214
13762TIP3    H162701   3.351   1.054   2.216 -0.6549  0.4736 -0.4906
13762TIP3    H262702   3.329   1.175   2.128  0.9361  0.5087 -0.8545
13763TIP3   OH262703   3.757   2.162  13.353  0.2195 -0.2232  0.0110
13763TIP3    H162704   3.723   2.246  13.385 -0.7308 -0.2352 -0.9202
13763TIP3    H262705   3.800   2.122  13.429 -1.4470  0.0228  1.1030
13764TIP3   OH262706   6.001   5.695  13.582  0.1784  0.1772  0.3563
13764TIP3    H162707   5.961   5.682  13.496  1.3890 -0.8822 -0.0731
13764TIP3    H262708   6.089   5.727  13.562 -0.6180  3.0980  1.2905
13765TIP3   OH262709   1.328   5.461  16.574 -0.1477  0.0456  0.1003
13765TIP3    H162710   1.382   5.491  16.647 -0.4651  1.5386 -0.2530
13765TIP3    H262711   1.363   5.375  16.551 -1.1449 -1.2497  3.1419
13766TIP3   OH262712   2.055   0.615   0.782 -0.1333  0.6045  0.2624
13766TIP3    H162713   2.019   0.654   0.861  1.7100  2.5558  0.1851
13766TIP3    H262714   2.125   0.558   0.813  1.3419  2.2283  0.0264
13767TIP3   OH262715   0.242   0.924   5.319 -0.4548 -0.0039 -0.1490
13767TIP3    H162716   0.243   1.019   5.324 -1.4795  0.0024  0.1191
13767TIP3    H262717   0.221   0.896   5.409  0.3736 -0.5030 -0.0983
13768TIP3   OH262718   5.601   4.887   4.596  0.1475  0.4890  0.1159
13768TIP3    H162719   5.634   4.937   4.522  0.2276  1.5302  0.8463
13768TIP3    H262720   5.506   4.887   4.584  0.1221  1.1230  0.3041
13769TIP3   OH262721   5.889   3.865   2.433  0.2982  0.3986  0.0593
13769TIP3    H162722   5.827   3.820   2.491 -0.1360  0.7911 -0.0969
13769TIP3    H262723   5.967   3.878   2.486  0.7504 -1.3401 -0.1691
13770TIP3   OH262724   4.025   6.190   5.421  0.2004  0.1646  0.5465
13770TIP3    H162725   4.053   6.107   5.458  1.1198  0.8405  1.4012
13770TIP3    H262726   3.987   6.237   5.495 -1.8634 -0.1326 -0.2668
13771TIP3   OH262727   0.237   6.399  12.002 -0.8647 -0.6411  0.1548
13771TIP3    H162728   0.329   6.422  11.998 -0.8436 -1.0261 -1.6823
13771TIP3    H262729   0.225   6.366  12.092  0.6255 -0.0101  0.5971
13772TIP3   OH262730   6.387   5.732   5.890 -0.1496  0.0096  0.0295
13772TIP3    H162731   6.294   5.728   5.866  0.1008 -1.7530 -0.6965
13772TIP3    H262732   6.388   5.718   5.985 -0.5951 -0.1945  0.0042
13773TIP3   OH262733   0.509   3.581   6.362 -0.8828  0.1901 -0.3337
13773TIP3    H162734   0.491   3.673   6.379 -0.3080  0.0818  0.8867
13773TIP3    H262735   0.465   3.533   6.432 -1.6740 -0.5130 -1.2897
13774TIP3   OH262736   3.219   2.741   3.534 -0.1123  0.4958  0.2076
13774TIP3    H162737   3.181   2.795   3.465  0.1314  0.6041  0.1546
13774TIP3    H262738   3.185   2.654   3.518  0.8623  0.2746 -0.7577
13775TIP3   OH262739   4.646   0.043   1.471  0.5552 -0.0539  0.0715
13775TIP3    H162740   4.723  -0.003   1.439  0.0736  0.2455 -1.5336
13775TIP3    H262741   4.665   0.135   1.456 -0.7759 -0.0700 -1.8510
13776TIP3   OH262742   0.097   4.991   4.109  0.3319  0.6670  0.1526
13776TIP3    H162743   0.133   5.068   4.153 -0.1135  0.7499  0.3720
13776TIP3    H262744   0.073   5.023   4.021  1.3195  0.4767 -0.1875
13777TIP3   OH262745   6.192   4.220   4.691 -0.1630 -0.1115 -0.1771
13777TIP3    H162746   6.103   4.221   4.655 -0.2978 -0.9424  0.1291
13777TIP3    H262747   6.246   4.252   4.619 -0.5095 -1.1836 -0.9431
13778TIP3   OH262748   0.776   0.342   1.593  0.3390 -0.2560  0.1042
13778TIP3    H162749   0.843   0.361   1.659 -1.3879  1.5578  1.3870
13778TIP3    H262750   0.819   0.363   1.510  1.9373 -0.8066  0.7595
13779TIP3   OH262751   0.556   5.691   4.729  0.6018 -0.3547 -0.1920
13779TIP3    H162752   0.612   5.629   4.775 -0.1170 -1.3112 -0.5928
13779TIP3    H262753   0.586   5.777   4.759  1.3938 -0.8986  0.6083
13780TIP3   OH262754   2.467   6.446   3.472  0.1079  0.1490  0.5031
13780TIP3    H162755   2.379   6.438   3.509  0.0538  1.6717  0.7235
13780TIP3    H262756   2.525   6.421   3.544 -0.1414 -1.4014  0.1912
13781TIP3   OH262757   0.061   1.013   1.917  0.0081 -0.0941  0.0510
13781TIP3    H162758   0.074   1.108   1.921 -0.4172 -0.0569  0.6173
13781TIP3    H262759   0.043   0.988   2.008  0.5693 -0.7826 -0.0295
13782TIP3   OH262760   5.522   5.811  13.846  0.3959 -0.0606 -0.4529
13782TIP3    H162761   5.464   5.879  13.880  1.3016  1.0998 -1.1861
13782TIP3    H262762   5.589   5.801  13.914 -1.8787 -3.0571  1.4721
13783TIP3   OH262763   0.961   0.509   4.978  0.0517 -0.2535  0.2861
13783TIP3    H162764   0.906   0.446   4.932 -1.1474 -1.4327  3.1913
13783TIP3    H262765   0.946   0.592   4.932 -0.4913 -1.5005 -1.8632
13784TIP3   OH262766   5.478   2.345   4.559 -0.1376  0.2776 -0.8267
13784TIP3    H162767   5.454   2.337   4.651  3.7551  0.1553  0.2476
13784TIP3    H262768   5.455   2.260   4.521 -0.5092 -0.1594  0.3433
13785TIP3   OH262769   2.079   5.843  14.927  0.5325  0.5280 -0.1682
13785TIP3    H162770   1.988   5.813  14.922  0.1443  1.4573  1.0788
13785TIP3    H262771   2.073   5.939  14.925  1.5786  0.5756 -1.4213
13786TIP3   OH262772   0.276   5.127  13.427 -0.0223  0.5488  0.6919
13786TIP3    H162773   0.228   5.129  13.344 -0.1598 -0.0950  0.7530
13786TIP3    H262774   0.243   5.202  13.476 -0.6837  0.3412  0.5695
13787TIP3   OH262775   3.316   4.386  11.765 -0.1186  0.8017 -0.0583
13787TIP3    H162776   3.257   4.353  11.833 -0.5474 -0.2837 -0.9254
13787TIP3    H262777   3.342   4.473  11.795 -0.1704  0.2729  1.5672
13788TIP3   OH262778   5.668   2.784   3.487  0.2679  0.4027  0.2078
13788TIP3    H162779   5.727   2.829   3.427  1.4248 -0.1968  0.8636
13788TIP3    H262780   5.589   2.767   3.435  0.7341  1.0626 -0.7365
13789TIP3   OH262781   3.704   4.781   5.324 -0.2855 -0.3273  0.1335
13789TIP3    H162782   3.621   4.745   5.355  0.6628 -0.5412  2.5229
13789TIP3    H262783   3.771   4.732   5.372  1.1330  1.9133  0.4912
13790TIP3   OH262784   2.855   0.348   5.448 -0.0972 -0.4057 -0.1948
13790TIP3    H162785   2.887   0.432   5.482 -0.2284  0.1680 -1.4630
13790TIP3    H262786   2.917   0.325   5.380 -1.0207 -0.4938 -1.0087
13791TIP3   OH262787   2.772   6.161  11.062  0.4203  0.2344 -0.3410
13791TIP3    H162788   2.798   6.197  11.147 -1.5805 -0.5274  0.6288
13791TIP3    H262789   2.703   6.098  11.083  3.2997 -3.6729 -2.0387
13792TIP3   OH262790   0.746   2.772  16.585  0.5074  0.0285 -0.5444
13792TIP3    H162791   0.704   2.686  16.582  0.7754 -0.1147 -0.2255
13792TIP3    H262792   0.674   2.832  16.605  0.7350 -0.4384  1.8808
13793TIP3   OH262793   3.212   2.981  15.072  0.2136 -0.3338  1.0669
13793TIP3    H162794   3.157   3.011  14.999  0.0360 -2.1906  0.4020
13793TIP3    H262795   3.299   3.014  15.051 -0.0846  0.2316  0.6805
13794TIP3   OH262796   4.728   5.906  14.625 -0.5132  0.0861  0.4078
13794TIP3    H162797   4.696   5.846  14.558 -0.5848 -0.6932  1.1327
13794TIP3    H262798   4.759   5.982  14.576 -0.9856 -0.2792 -0.4783
13795TIP3   OH262799   3.943   5.976   4.982 -0.3839  0.4224  0.0793
13795TIP3    H162800   3.848   5.978   4.991 -0.4750 -1.6741 -0.1360
13795TIP3    H262801   3.975   6.043   5.042 -1.9728  0.7719  0.5426
13796TIP3   OH262802   6.606   2.407  11.292  0.1333 -0.1978 -0.5388
13796TIP3    H162803   6.620   2.501  11.290 -2.0646  0.2539  2.1123
13796TIP3    H262804   6.519   2.394  11.255  0.7806 -1.2991 -1.7375
13797TIP3   OH262805   4.644   3.617  13.462 -0.1916  0.2292  0.8936
13797TIP3    H162806   4.695   3.697  13.450  0.5052 -0.3037  0.2564
13797TIP3    H262807   4.683   3.574  13.538 -0.7927  0.6574  1.4561
13798TIP3   OH262808   0.496   0.478  11.470  0.9433 -0.0415  0.4393
13798TIP3    H162809   0.590   0.498  11.469  0.8994  0.1503  0.3359
13798TIP3    H262810   0.473   0.466  11.378  0.7644  0.3716  0.4291
13799TIP3   OH262811   0.399   4.901  10.693  0.1118  0.6008  0.5189
13799TIP3    H162812   0.394   4.817  10.647 -4.1041  1.5694 -0.9804
13799TIP3    H262813   0.329   4.898  10.758  0.2159  2.7489  0.7759
13800TIP3   OH262814   2.538   5.781   4.835 -0.0974  0.4063  0.6979
13800TIP3    H162815   2.515   5.744   4.920 -2.3342  0.8889  0.3212
13800TIP3    H262816   2.551   5.875   4.852 -1.0112  0.5839  0.4272
13801TIP3   OH262817   2.129   2.755   2.991 -0.2419 -0.2110  0.5360
13801TIP3    H162818   2.100   2.836   2.949  0.0349  0.7530  2.1876
13801TIP3    H262819   2.053   2.698   2.987 -0.9177  0.6674  0.6948
13802TIP3   OH262820   3.919   4.361   0.321 -0.1309 -0.0649  0.6945
13802TIP3    H162821   3.917   4.417   0.243  0.2610 -1.2745 -0.1988
13802TIP3    H262822   3.827   4.348   0.344 -0.2929 -0.6274 -0.2522
13803TIP3   OH262823   6.621   1.070  13.250 -0.1738 -0.1431  0.0499
13803TIP3    H162824   6.562   1.131  13.293  1.1200  0.9101  0.3517
13803TIP3    H262825   6.650   1.011  13.320 -2.1438 -1.7346 -0.4113
13804TIP3   OH262826   4.844   5.653  12.495  0.2000 -0.2456 -0.5155
13804TIP3    H162827   4.785   5.618  12.428  0.5914 -0.0053 -0.9894
13804TIP3    H262828   4.794   5.725  12.536 -0.9063 -1.8222  0.9915
13805TIP3   OH262829   0.682   0.102  10.948 -0.8543  0.4615  0.3668
13805TIP3    H162830   0.644   0.056  10.874  1.0329  1.8200 -1.5069
13805TIP3    H262831   0.680   0.194  10.923  2.1058  0.7242  0.8812
13806TIP3   OH262832   1.328   1.368   1.651 -0.0291 -0.2439  0.1931
13806TIP3    H162833   1.393   1.388   1.719 -0.2569  0.1358  0.3045
13806TIP3    H262834   1.362   1.290   1.608  1.8594  1.4296 -1.4836
13807TIP3   OH262835   6.677   3.616  14.110 -0.5737  0.0114 -0.2241
13807TIP3    H162836   6.653   3.704  14.137  1.3803  0.3605  0.4687
13807TIP3    H262837   6.768   3.624  14.080 -0.2591 -1.8275  0.1933
13808TIP3   OH262838   5.304   4.418   3.065 -0.0571 -0.0097  0.8747
13808TIP3    H162839   5.245   4.468   3.122 -1.8366  0.2074 -1.0924
13808TIP3    H262840   5.337   4.482   3.003 -1.0152 -0.8907 -0.5977
13809TIP3   OH262841   4.849   6.294  12.130 -0.0052 -0.7082 -0.2895
13809TIP3    H162842   4.838   6.206  12.166 -0.8537 -0.7173 -0.5521
13809TIP3    H262843   4.899   6.341  12.197 -0.6479 -1.0269  0.4265
13810TIP3   OH262844   5.327   3.332   1.604  0.3661  0.3440 -0.0766
13810TIP3    H162845   5.352   3.244   1.634 -0.2105 -0.1921 -1.1062
13810TIP3    H262846   5.392   3.353   1.537  1.0291  1.0881  0.7869
13811TIP3   OH262847   1.429   1.342  11.806  0.1333  0.5554  0.4818
13811TIP3    H162848   1.398   1.277  11.868  0.7159  0.8341  1.0633
13811TIP3    H262849   1.490   1.397  11.856 -0.3558  1.5466 -0.0003
13812TIP3   OH262850   4.074   0.403  11.141 -0.4303  0.7000 -0.1593
13812TIP3    H162851   4.095   0.378  11.051 -1.3586  0.3945 -0.2989
13812TIP3    H262852   4.152   0.447  11.173 -0.1885  1.0318 -1.2006
13813TIP3   OH262853   0.067   0.625  14.245  0.0666  1.2266  0.2508
13813TIP3    H162854   0.030   0.693  14.188 -0.5279  0.6572 -0.0350
13813TIP3    H262855  -0.007   0.589  14.293  0.2037 -0.0796 -0.4966
13814TIP3   OH262856   3.120   5.827   3.024  0.0434 -0.2237  0.1859
13814TIP3    H162857   3.052   5.784   3.077 -0.3275 -0.4957 -0.4981
13814TIP3    H262858   3.201   5.785   3.051 -0.1443 -0.3899  0.5053
13815TIP3   OH262859   5.757   1.704   3.625 -0.0264  0.0264 -0.4412
13815TIP3    H162860   5.742   1.776   3.565  0.5392  0.2004 -0.3785
13815TIP3    H262861   5.742   1.741   3.712 -1.1808 -0.3139 -0.4942
13816TIP3   OH262862   6.069   3.832   4.809 -0.1530  0.0876 -0.2513
13816TIP3    H162863   6.083   3.764   4.876 -0.3566 -0.9139 -1.2175
13816TIP3    H262864   6.154   3.876   4.803 -0.3691  0.7672  1.2840
13817TIP3   OH262865   2.336   4.668   4.425  0.1457 -0.7713 -0.2607
13817TIP3    H162866   2.370   4.679   4.336  0.3816 -1.7677 -0.2951
13817TIP3    H262867   2.397   4.608   4.467  0.2517 -0.0055  0.6985
13818TIP3   OH262868   2.481   1.886  15.999  0.5664 -0.0471  0.2543
13818TIP3    H162869   2.575   1.873  15.997  0.9621  2.3550  0.9614
13818TIP3    H262870   2.460   1.892  16.093  0.0806  1.6058  0.0580
13819TIP3   OH262871   5.815   3.695  15.344 -0.0220 -0.3317  0.0650
13819TIP3    H162872   5.772   3.754  15.282  0.7764 -0.3287 -0.5026
13819TIP3    H262873   5.813   3.609  15.301  0.3252 -0.3766  0.1347
13820TIP3   OH262874   5.085   4.541   5.920  0.3451 -0.1904  0.0571
13820TIP3    H162875   5.010   4.584   5.961 -0.1225  0.1569 -1.1255
13820TIP3    H262876   5.110   4.600   5.848  1.1810 -0.7449 -0.1180
13821TIP3   OH262877   4.254   1.455  11.672 -0.6763 -0.1687 -0.1976
13821TIP3    H162878   4.301   1.530  11.707  0.5828 -0.5624 -1.0304
13821TIP3    H262879   4.312   1.380  11.686 -1.5201 -0.8464 -0.2248
13822TIP3   OH262880   1.252   2.897   0.797 -0.5386  1.0529 -0.6110
13822TIP3    H162881   1.189   2.832   0.767 -0.8035  1.5791 -1.2183
13822TIP3    H262882   1.285   2.863   0.880  2.0044 -1.6274 -2.6031
13823TIP3   OH262883   5.673   0.497   2.616 -0.1764 -0.2040  0.9334
13823TIP3    H162884   5.604   0.446   2.658 -0.3889 -0.8280 -0.1710
13823TIP3    H262885   5.754   0.449   2.638 -0.3496 -0.8971  0.1188
13824TIP3   OH262886   1.712   3.918  11.100  0.7808  0.2900 -0.0529
13824TIP3    H162887   1.768   3.988  11.068  0.5296  0.6803  0.3562
13824TIP3    H262888   1.699   3.938  11.193  1.9250 -1.1018  0.4222
13825TIP3   OH262889   0.877   0.842  16.369 -0.6965  0.0841 -0.1435
13825TIP3    H162890   0.889   0.750  16.343  1.2285  0.5442 -0.9365
13825TIP3    H262891   0.911   0.846  16.458  0.2447  0.2575 -0.5075
13826TIP3   OH262892   5.133   6.626  17.200 -0.1072  0.3398  0.0988
13826TIP3    H162893   5.218   6.670  17.187  0.1918 -0.4388 -0.6344
13826TIP3    H262894   5.140   6.546  17.149  0.0524 -1.4918  2.8694
13827TIP3   OH262895   6.269   2.185  12.238  0.4323 -0.5936 -0.7788
13827TIP3    H162896   6.191   2.140  12.208  2.1616 -3.2806 -1.4616
13827TIP3    H262897   6.266   2.178  12.334  0.3020 -1.5114 -0.8522
13828TIP3   OH262898   6.541   1.129  16.225  0.4388  0.2472 -0.4780
13828TIP3    H162899   6.504   1.176  16.150  0.1660 -1.5239 -1.5001
13828TIP3    H262900   6.500   1.169  16.302  0.2427  1.6667 -1.3121
13829TIP3   OH262901   3.397   6.041  16.579 -0.4777 -0.4331 -0.1889
13829TIP3    H162902   3.376   5.960  16.534  0.0387 -0.8441  0.3022
13829TIP3    H262903   3.488   6.059  16.556 -0.3277 -0.4466  0.3858
13830TIP3   OH262904   4.240   1.872   6.269  0.3310  0.6238  0.1327
13830TIP3    H162905   4.274   1.794   6.225  0.2971  0.2426  0.7597
13830TIP3    H262906   4.296   1.943   6.240 -0.1572  0.5093 -1.0936
13831TIP3   OH262907   3.012   3.749  11.755 -0.0066 -0.1017  0.5552
13831TIP3    H162908   3.034   3.680  11.691 -1.1272 -1.1317  1.2450
13831TIP3    H262909   3.002   3.828  11.702 -0.3212 -0.8187 -0.4850
13832TIP3   OH262910   5.234   1.249   0.782  0.5361 -0.4118 -0.1600
13832TIP3    H162911   5.166   1.291   0.729 -0.8890 -1.0589  1.1344
13832TIP3    H262912   5.201   1.160   0.797  0.9655 -0.2720  1.7313
13833TIP3   OH262913   3.166   4.286  17.073  0.3204 -0.1918  0.2600
13833TIP3    H162914   3.104   4.282  17.146  1.3569  2.5154  1.3784
13833TIP3    H262915   3.112   4.275  16.995 -1.1257 -0.9496  1.3420
13834TIP3   OH262916   1.667   3.141   1.297  0.2344  0.3799 -0.3621
13834TIP3    H162917   1.607   3.067   1.285 -1.3093  1.2620  1.6523
13834TIP3    H262918   1.744   3.103   1.340 -0.1091 -0.2506 -0.3032
13835TIP3   OH262919   4.045   6.297  11.623  0.0797  0.2462 -0.3439
13835TIP3    H162920   3.956   6.296  11.589 -0.2281  2.1043  0.3908
13835TIP3    H262921   4.049   6.220  11.681 -1.4729  0.9001  0.6773
13836TIP3   OH262922   0.990   6.545   0.500 -0.4196 -0.2179 -0.2428
13836TIP3    H162923   0.921   6.588   0.551  1.2525  1.9776  0.2542
13836TIP3    H262924   1.061   6.531   0.563  0.3215 -0.7000 -1.1716
13837TIP3   OH262925   4.201   0.739   4.599  0.4064 -0.2074 -0.2723
13837TIP3    H162926   4.131   0.682   4.568  0.2528  0.0837 -0.4676
13837TIP3    H262927   4.247   0.688   4.665  1.4572 -1.2992 -1.8162
13838TIP3   OH262928   6.255   0.014  16.585 -0.1819  0.3316 -0.3711
13838TIP3    H162929   6.290  -0.054  16.643 -1.6796 -0.2356 -0.1149
13838TIP3    H262930   6.292  -0.005  16.499  0.2498 -0.1705 -0.0712
13839TIP3   OH262931   3.678   3.146   1.004 -0.4912  0.7975 -0.5689
13839TIP3    H162932   3.768   3.158   1.033 -0.9091  2.2078  0.1585
13839TIP3    H262933   3.624   3.184   1.073 -1.7185 -1.3586 -0.2852
13840TIP3   OH262934   0.644   1.764   0.125 -0.5678  0.4036 -0.3370
13840TIP3    H162935   0.668   1.855   0.142 -1.1887  0.2850  1.2825
13840TIP3    H262936   0.700   1.737   0.052  1.2778  1.3810  0.6913
13841TIP3   OH262937   1.603   2.023  13.583 -0.4385  1.2735  0.1249
13841TIP3    H162938   1.659   2.019  13.506  0.4760  2.5129  0.7278
13841TIP3    H262939   1.627   2.104  13.627  0.8837 -0.6526  3.1261
13842TIP3   OH262940   4.889   4.756  16.568 -0.4637  0.1800 -0.0984
13842TIP3    H162941   4.817   4.811  16.599 -1.6836 -1.3983 -0.0632
13842TIP3    H262942   4.851   4.668  16.560  1.8262 -1.0132  1.4161
13843TIP3   OH262943   3.164   0.524  10.608  0.6433 -0.2005  0.1039
13843TIP3    H162944   3.083   0.574  10.601  0.5379 -0.4768 -0.7114
13843TIP3    H262945   3.187   0.529  10.701 -0.4577 -0.3638  0.3957
13844TIP3   OH262946   6.420   0.352   4.544 -0.0015  0.3296  0.0653
13844TIP3    H162947   6.502   0.394   4.566 -0.1783  2.8714 -3.6505
13844TIP3    H262948   6.444   0.282   4.483 -0.4781  0.5171 -0.3474
13845TIP3   OH262949   6.265   3.410   2.325  0.0776  0.8346  0.0789
13845TIP3    H162950   6.220   3.493   2.342 -0.9539  0.9589 -3.0229
13845TIP3    H262951   6.252   3.395   2.231 -0.3837 -3.2198  0.7333
13846TIP3   OH262952   4.553   2.767  17.091  0.0367 -0.4413  0.0755
13846TIP3    H162953   4.632   2.783  17.141  0.7940  1.6536 -1.6851
13846TIP3    H262954   4.584   2.737  17.005 -1.1004 -0.7407 -0.2465
13847TIP3   OH262955   3.353   4.157  12.573  0.1572  0.3475 -0.0546
13847TIP3    H162956   3.389   4.094  12.635  1.5690 -0.5714 -1.7375
13847TIP3    H262957   3.272   4.117  12.542  0.8249 -0.4742 -0.7850
13848TIP3   OH262958   1.727   3.059   2.307 -0.9296  0.4310  0.4013
13848TIP3    H162959   1.701   3.078   2.397 -1.6147 -0.2712  0.3612
13848TIP3    H262960   1.663   3.105   2.253 -4.0578 -3.7160  0.3022
13849TIP3   OH262961   5.805   1.043   3.094  0.3538  0.0209  0.4058
13849TIP3    H162962   5.744   1.007   3.030  0.6893  0.0166  0.0854
13849TIP3    H262963   5.785   0.997   3.175  1.1041 -1.2287 -0.1065
13850TIP3   OH262964   6.635   5.876   0.352  0.2050  0.1469  0.1115
13850TIP3    H162965   6.615   5.970   0.362 -0.3709  0.2033 -1.4192
13850TIP3    H262966   6.555   5.839   0.315  1.6254 -0.3230 -2.5779
13851TIP3   OH262967   5.931   4.633  12.320  0.1301 -0.3106 -0.3662
13851TIP3    H162968   5.881   4.605  12.396 -2.0444  1.1376 -1.2420
13851TIP3    H262969   5.962   4.551  12.280 -0.2822 -1.1395  0.9974
13852TIP3   OH262970   0.139   3.771  16.500 -0.2747 -0.3405 -0.4902
13852TIP3    H162971   0.229   3.756  16.470 -0.3841  0.7318 -1.4171
13852TIP3    H262972   0.116   3.857  16.464 -0.9803  0.2824  1.3859
13853TIP3   OH262973   0.659   4.635   3.887 -0.8178  0.2270  0.1208
13853TIP3    H162974   0.615   4.660   3.806 -1.8500  2.0318  1.2146
13853TIP3    H262975   0.725   4.571   3.860 -1.4617  0.4644 -2.0707
13854TIP3   OH262976   3.865   5.230   0.950 -0.0218  0.5524 -0.0398
13854TIP3    H162977   3.883   5.304   1.009  1.2367 -0.7777  1.2702
13854TIP3    H262978   3.893   5.261   0.864  1.4497  1.2358  0.6781
13855TIP3   OH262979   1.874   3.179   5.288 -0.3391 -0.7048 -0.6042
13855TIP3    H162980   1.903   3.134   5.209  1.0380 -0.2270 -0.3948
13855TIP3    H262981   1.949   3.233   5.313 -1.2103  0.0941  0.3249
13856TIP3   OH262982   3.754   2.025   3.431 -0.2160 -0.2886 -0.1646
13856TIP3    H162983   3.815   2.001   3.361  0.4794 -0.9427  0.6483
13856TIP3    H262984   3.704   2.098   3.396  1.1843  0.4016 -0.7761
13857TIP3   OH262985   0.148   3.978  10.713 -0.5159  0.2216 -0.2304
13857TIP3    H162986   0.228   3.974  10.660 -0.2342 -0.6287  0.2535
13857TIP3    H262987   0.079   4.000  10.650  0.3123  2.3584 -0.4089
13858TIP3   OH262988   5.863   2.527   2.393 -0.3686 -0.0522 -0.1813
13858TIP3    H162989   5.946   2.546   2.350 -0.8915  0.4417 -0.9841
13858TIP3    H262990   5.883   2.457   2.455  0.1518 -1.6201 -2.0909
13859TIP3   OH262991   6.465   5.018   5.427  0.0799  0.6175  0.2767
13859TIP3    H162992   6.441   5.057   5.343 -2.2231  0.2740  0.7556
13859TIP3    H262993   6.509   4.937   5.403 -0.6547  0.4664 -0.6011
13860TIP3   OH262994   0.783   0.298  12.113  0.3363  0.1050  0.1379
13860TIP3    H162995   0.735   0.268  12.190  0.5609  0.3727  0.3794
13860TIP3    H262996   0.784   0.393  12.120 -0.2303  0.1726 -0.5467
13861TIP3   OH262997   4.359   2.164   1.482 -0.2461 -0.2061 -0.4804
13861TIP3    H162998   4.290   2.097   1.478 -1.0388  0.4265  1.7275
13861TIP3    H262999   4.435   2.118   1.517 -0.7454 -0.0293  0.8861
13862TIP3   OH263000   2.982   4.784   2.530  0.0037  0.5466 -0.3504
13862TIP3    H163001   2.942   4.864   2.495 -0.1098  0.2373 -0.9131
13862TIP3    H263002   3.004   4.732   2.453  2.2333  1.0596 -0.1143
13863TIP3   OH263003   1.480   2.102  12.636 -0.1269  0.1470 -0.0828
13863TIP3    H163004   1.412   2.106  12.568  0.0707 -1.5221 -0.4012
13863TIP3    H263005   1.431   2.089  12.717 -0.1761 -1.4927 -0.3670
13864TIP3   OH263006   2.278   2.571   5.584  0.6915 -0.2932 -0.3333
13864TIP3    H163007   2.275   2.653   5.633 -0.2771 -0.3652 -0.2787
13864TIP3    H263008   2.295   2.597   5.494  0.3932 -0.0389 -0.3142
13865TIP3   OH263009   1.878   1.566  14.038  0.1151  0.3678  1.0446
13865TIP3    H163010   1.968   1.598  14.030 -0.8536  3.0244  0.0560
13865TIP3    H263011   1.844   1.610  14.116 -0.3114 -0.6658  1.4424
13866TIP3   OH263012   5.384   3.510  13.172  0.3585 -0.0524  0.1380
13866TIP3    H163013   5.340   3.578  13.222 -2.1446  0.0165 -2.0821
13866TIP3    H263014   5.470   3.502  13.214 -0.1353  2.8497  1.8543
13867TIP3   OH263015   5.309   4.570  12.807  0.6817  0.0965 -0.1384
13867TIP3    H163016   5.332   4.660  12.832  0.6160  0.0321  0.1521
13867TIP3    H263017   5.278   4.530  12.888 -0.2222  0.1113 -0.4683
13868TIP3   OH263018   4.671   4.051   3.918  0.5129 -0.2683 -0.0788
13868TIP3    H163019   4.631   4.037   4.004 -0.1036 -0.5014 -0.4030
13868TIP3    H263020   4.610   4.010   3.856  1.8023 -1.6133 -0.4825
13869TIP3   OH263021   1.061   0.573  13.382  0.2795  0.2850  0.1825
13869TIP3    H163022   1.082   0.547  13.293 -0.5256  1.7612 -0.4511
13869TIP3    H263023   1.110   0.654  13.396  0.2154  0.1917  1.0001
13870TIP3   OH263024   1.142   2.604   4.435  0.2136 -0.0266 -0.5251
13870TIP3    H163025   1.107   2.671   4.376  1.2204  1.7630  0.8629
13870TIP3    H263026   1.237   2.618   4.433  0.2669 -0.0076  1.4223
13871TIP3   OH263027   3.144   4.147  16.834  0.1501 -0.2864 -0.2645
13871TIP3    H163028   3.130   4.135  16.740  0.6987  1.9172 -0.6475
13871TIP3    H263029   3.114   4.065  16.873 -0.6968 -0.9763 -2.2962
13872TIP3   OH263030   2.061   4.495   2.470 -0.4779  0.2237  0.5368
13872TIP3    H163031   2.035   4.504   2.378  0.2050 -0.5425  0.2552
13872TIP3    H263032   1.981   4.509   2.520 -0.8122  0.8655 -0.1640
13873TIP3   OH263033   4.572   2.244  13.528 -0.0655 -0.0297  0.4911
13873TIP3    H163034   4.502   2.253  13.593 -0.5389 -1.0408  0.1419
13873TIP3    H263035   4.560   2.156  13.493  1.9309 -0.5362  1.0314
13874TIP3   OH263036   4.200   2.606   0.832 -0.5129 -0.2590  0.0787
13874TIP3    H163037   4.132   2.671   0.850  0.9572  0.9492  1.3432
13874TIP3    H263038   4.205   2.553   0.912 -2.2271 -2.4931 -1.1989
13875TIP3   OH263039   4.993   3.385  12.856  0.5413 -0.0788 -0.6281
13875TIP3    H163040   5.070   3.345  12.897  1.7870  1.8312 -1.0442
13875TIP3    H263041   4.940   3.311  12.827  0.7709 -1.4438  2.3191
13876TIP3   OH263042   3.666   4.957   5.735 -0.7781  0.0735  0.0657
13876TIP3    H163043   3.592   4.971   5.794 -0.5420  1.0973  0.1249
13876TIP3    H263044   3.647   5.014   5.660 -0.3194 -0.0644 -0.1550
13877TIP3   OH263045   3.077   1.068   3.574  0.4270  0.1378  0.2673
13877TIP3    H163046   3.146   1.128   3.547  0.8410  0.4130  1.8564
13877TIP3    H263047   3.121   0.985   3.589  0.3310  0.1735  0.7635
13878TIP3   OH263048   0.738   2.414  13.335  0.2222  0.2813 -0.0360
13878TIP3    H163049   0.771   2.469  13.406  2.3109 -1.6622  0.5432
13878TIP3    H263050   0.690   2.344  13.378 -1.1893  0.8064 -0.7093
13879TIP3   OH263051   0.780   6.357   1.054 -0.2292  0.6082  0.2333
13879TIP3    H163052   0.839   6.429   1.075  0.0191  0.1483  1.1365
13879TIP3    H263053   0.773   6.358   0.959  1.1971  0.6986  0.1271
13880TIP3   OH263054   1.200   0.484   3.498 -0.7206 -0.2015 -0.2019
13880TIP3    H163055   1.196   0.530   3.414 -0.0641  0.7253  0.2644
13880TIP3    H263056   1.289   0.449   3.502 -0.3643  0.7602  0.6142
13881TIP3   OH263057   3.938   4.171   4.969  0.0291 -0.0226  0.0320
13881TIP3    H163058   4.011   4.230   4.951 -1.3112  1.7308  0.1809
13881TIP3    H263059   3.950   4.147   5.061  2.6606 -3.0029 -1.0098
13882TIP3   OH263060   3.829   1.304  14.082 -1.3936 -0.6015  0.1056
13882TIP3    H163061   3.866   1.310  14.170  1.4886 -0.9978 -1.0161
13882TIP3    H263062   3.836   1.211  14.059 -1.7507 -0.4464 -0.6661
13883TIP3   OH263063   0.090   4.269  16.326 -0.7495  0.2432 -0.5111
13883TIP3    H163064   0.098   4.360  16.299 -1.4248  0.4439 -0.0465
13883TIP3    H263065   0.088   4.272  16.422  0.4631 -0.3672 -0.4548
13884TIP3   OH263066   3.588   4.946  15.964  0.4315 -0.4578  0.5205
13884TIP3    H163067   3.679   4.934  15.991  1.5014  1.2266 -2.0833
13884TIP3    H263068   3.594   4.977  15.873 -2.7473 -0.4550  0.2514
13885TIP3   OH263069   4.914   1.600  15.696  0.2351 -0.1611 -0.1670
13885TIP3    H163070   4.835   1.546  15.704  0.2718 -0.1997 -0.0713
13885TIP3    H263071   4.917   1.624  15.603  0.2934 -0.4328 -0.2342
13886TIP3   OH263072   4.237   1.440  13.692  0.1034 -1.2456  0.2124
13886TIP3    H163073   4.209   1.450  13.783 -0.2523 -1.1553  0.0912
13886TIP3    H263074   4.277   1.524  13.670  0.6035 -1.4238  0.4288
13887TIP3   OH263075   2.943   1.994  10.864 -0.2141  0.2917  0.1255
13887TIP3    H163076   3.000   1.973  10.790  0.0008 -1.3738  0.7240
13887TIP3    H263077   2.905   2.079  10.842 -1.3021 -0.8323 -2.6023
13888TIP3   OH263078   5.234   5.831   0.594 -0.3581 -0.2004 -0.0933
13888TIP3    H163079   5.151   5.847   0.549 -0.1803  0.2008 -0.2885
13888TIP3    H263080   5.297   5.886   0.547 -0.2067  0.3615  0.7528
13889TIP3   OH263081   5.808   0.101  11.113  0.4734  0.4046 -0.1991
13889TIP3    H163082   5.802   0.030  11.048 -1.3267 -0.6747  1.0983
13889TIP3    H263083   5.892   0.086  11.156  1.5661  0.9599 -2.0421
13890TIP3   OH263084   3.379   1.379  12.935 -1.4021  0.2577 -0.7052
13890TIP3    H163085   3.314   1.420  12.992 -1.7347 -0.6893 -0.3953
13890TIP3    H263086   3.328   1.325  12.875 -0.8399 -1.9180  0.6848
13891TIP3   OH263087   0.884   1.665   4.736 -0.0402 -0.4932 -0.1487
13891TIP3    H163088   0.835   1.737   4.776 -0.4883  0.3093 -2.0886
13891TIP3    H263089   0.820   1.623   4.678  0.8230 -1.1113 -0.6570
13892TIP3   OH263090   1.248   4.562  12.930 -0.2722  0.7941  0.4692
13892TIP3    H163091   1.290   4.620  12.866  1.7704  0.3144  1.3743
13892TIP3    H263092   1.231   4.618  13.005  1.4519  0.2949  1.2394
13893TIP3   OH263093   0.836   5.018  11.345  0.0227  0.3819 -0.0676
13893TIP3    H163094   0.753   5.011  11.393 -0.1434  0.7823 -0.2997
13893TIP3    H263095   0.870   4.929  11.344 -1.3614 -0.1448 -1.6833
13894TIP3   OH263096   3.057   4.415  16.485  0.0878  0.2345  0.0688
13894TIP3    H163097   2.973   4.374  16.505  0.0905 -0.0783 -0.5431
13894TIP3    H263098   3.077   4.468  16.561 -0.7816  0.4949  0.1138
13895TIP3   OH263099   1.584   3.047   4.289  0.0395  0.4989 -0.0749
13895TIP3    H163100   1.661   3.001   4.256  1.1597  1.3747  1.2540
13895TIP3    H263101   1.596   3.138   4.261 -0.0562  0.8215  0.9181
13896TIP3   OH263102   4.196   3.484   3.817 -0.1459  0.0019  0.0244
13896TIP3    H163103   4.147   3.541   3.877  0.8516  1.2350 -0.2990
13896TIP3    H263104   4.238   3.419   3.874  0.3083  0.7999  0.6092
13897TIP3   OH263105   5.544   6.578   5.717 -0.9847 -0.1057 -0.4090
13897TIP3    H163106   5.615   6.575   5.780 -0.5616 -0.8805 -0.9227
13897TIP3    H263107   5.465   6.563   5.769 -0.5206 -2.0964 -0.2683
13898TIP3   OH263108   2.176   6.485  14.151 -0.5556  0.3083 -0.2246
13898TIP3    H163109   2.263   6.521  14.166 -0.2408 -0.6324  0.2407
13898TIP3    H263110   2.183   6.393  14.178 -1.5133  0.0577 -0.8033
13899TIP3   OH263111   3.137   5.185  11.853 -0.0477  0.6108  0.0083
13899TIP3    H163112   3.229   5.198  11.874 -0.3801  3.2926 -0.1059
13899TIP3    H263113   3.100   5.141  11.930  1.0576  0.6193  0.5447
13900TIP3   OH263114   2.829   2.413   4.196 -0.0582 -0.1466  0.1251
13900TIP3    H163115   2.747   2.420   4.147 -0.0982 -0.9593  0.0757
13900TIP3    H263116   2.809   2.452   4.281 -0.3145  0.2397 -0.1097
13901TIP3   OH263117   0.180   1.370   4.103  0.8215  0.6820 -0.9148
13901TIP3    H163118   0.200   1.320   4.024  1.3989  1.0538 -1.0046
13901TIP3    H263119   0.143   1.452   4.070  1.8238  1.1765 -0.8260
13902TIP3   OH263120   5.632   1.525   1.132 -0.0550 -0.7033 -0.0595
13902TIP3    H163121   5.575   1.538   1.057  0.7803  1.3646 -0.3571
13902TIP3    H263122   5.719   1.510   1.094  0.2603 -0.2417  0.4618
13903TIP3   OH263123   5.973   5.863   4.426  0.9895  0.4563 -0.2377
13903TIP3    H163124   5.923   5.929   4.377 -1.5554 -1.5510 -0.4785
13903TIP3    H263125   5.961   5.782   4.375  1.4628 -0.8582  1.7064
13904TIP3   OH263126   6.050   0.882  14.081 -0.0692  0.1882 -0.7038
13904TIP3    H163127   5.965   0.843  14.066  0.2077 -0.5068 -0.4888
13904TIP3    H263128   6.077   0.916  13.996  0.9438 -2.6109 -1.5746
13905TIP3   OH263129   0.187   1.390   6.467 -0.0075 -0.4726 -0.3280
13905TIP3    H163130   0.106   1.387   6.417 -0.3912  1.3378  0.1816
13905TIP3    H263131   0.251   1.344   6.411 -0.7917  0.1679 -1.7737
13906TIP3   OH263132   6.385   1.773   2.605 -0.1400 -0.2649  0.0555
13906TIP3    H163133   6.370   1.680   2.623  0.8678 -0.1797  1.3689
13906TIP3    H263134   6.377   1.816   2.690 -0.4685  0.8451 -0.5251
13907TIP3   OH263135   5.773   5.091  11.916  0.4693  0.4540 -0.5652
13907TIP3    H163136   5.867   5.075  11.915  0.7145  1.7788 -2.0697
13907TIP3    H263137   5.750   5.097  12.009  2.0954  1.3325 -0.1973
13908TIP3   OH263138   3.596   5.848  12.837 -0.2521  0.4704 -0.1336
13908TIP3    H163139   3.540   5.794  12.893  0.2557  0.2164  0.1393
13908TIP3    H263140   3.583   5.812  12.749 -2.0367  1.6995 -0.3871
13909TIP3   OH263141   0.403   6.215   3.579 -0.4267 -0.1928  0.0899
13909TIP3    H163142   0.334   6.155   3.609 -0.5483 -0.2980 -0.3911
13909TIP3    H263143   0.361   6.301   3.580 -0.5635 -0.2549 -0.1911
13910TIP3   OH263144   0.391   2.195   3.806 -0.2260  0.9580  0.2855
13910TIP3    H163145   0.371   2.174   3.715  1.0096 -0.0713  0.2411
13910TIP3    H263146   0.422   2.286   3.804  2.4266  0.0795 -0.7354
13911TIP3   OH263147   0.306   3.072  16.427  0.1308  0.5682  0.3483
13911TIP3    H163148   0.310   3.112  16.514 -0.9420  0.0735  0.6360
13911TIP3    H263149   0.215   3.085  16.399  0.4196  0.5506 -0.6226
13912TIP3   OH263150   1.909   2.340  13.290  0.1907 -0.0055 -0.3968
13912TIP3    H163151   1.904   2.304  13.379  1.4490  1.8382  0.4516
13912TIP3    H263152   1.913   2.263  13.233 -1.8764 -1.2250  1.0453
13913TIP3   OH263153   0.705   2.751   2.482  0.0161 -0.2154 -0.3766
13913TIP3    H163154   0.628   2.744   2.538  0.4336 -2.5144 -0.0504
13913TIP3    H263155   0.680   2.709   2.400  0.2730  0.8306 -1.0083
13914TIP3   OH263156   0.322   2.008  16.721  0.0165  0.6010  0.4696
13914TIP3    H163157   0.290   1.921  16.743 -2.4361  1.4159  0.2371
13914TIP3    H263158   0.341   2.004  16.627 -0.6073  0.4885  0.3513
13915TIP3   OH263159   4.854   4.129   3.124  0.6598  0.0296  0.3572
13915TIP3    H163160   4.879   4.141   3.032  0.1093 -1.3376  0.0284
13915TIP3    H263161   4.918   4.181   3.173  1.8644 -0.4353 -0.7034
13916TIP3   OH263162   5.545   4.131  11.666  0.0819  0.8271 -0.0374
13916TIP3    H163163   5.572   4.170  11.749 -0.9281  3.2758 -0.8015
13916TIP3    H263164   5.449   4.134  11.669  0.0005 -1.1908 -0.3382
13917TIP3   OH263165   3.899   5.551  11.543 -0.1267  0.5791  0.2660
13917TIP3    H163166   3.960   5.535  11.616  0.8612  1.2299 -0.4064
13917TIP3    H263167   3.945   5.612  11.486 -0.6968 -0.2833 -1.1568
13918TIP3   OH263168   3.545   1.470   1.092  0.3711  0.1589 -0.1171
13918TIP3    H163169   3.460   1.444   1.129  0.6360 -0.5645 -0.0135
13918TIP3    H263170   3.607   1.407   1.128  0.9582  0.7187 -0.1647
13919TIP3   OH263171   0.928   2.248   1.761 -0.3843  0.0285  0.2865
13919TIP3    H163172   0.844   2.289   1.783 -1.9518 -1.6295 -2.2543
13919TIP3    H263173   0.916   2.156   1.783  1.1030 -0.0849  0.6808
13920TIP3   OH263174   4.838   1.896  12.396 -0.0165 -0.1910 -0.3181
13920TIP3    H163175   4.872   1.926  12.481 -1.5326  0.6458  0.0050
13920TIP3    H263176   4.910   1.844  12.359  1.4640  1.1849  0.5390
13921TIP3   OH263177   1.070   3.543  17.136 -0.1387  0.1449 -0.7868
13921TIP3    H163178   1.020   3.521  17.214  1.5209 -2.3548 -0.3736
13921TIP3    H263179   1.005   3.575  17.074 -1.6314  1.0646  1.2112
13922TIP3   OH263180   3.930   6.776  13.013  0.0955 -0.7386 -0.1567
13922TIP3    H163181   3.905   6.835  13.084  1.2187  0.0561 -0.4198
13922TIP3    H263182   3.995   6.824  12.962 -0.1732 -1.5773 -1.3213
13923TIP3   OH263183   2.479   2.101  15.357  0.9841 -0.6549  0.2307
13923TIP3    H163184   2.413   2.081  15.290  0.6651  0.0215  0.3412
13923TIP3    H263185   2.536   2.166  15.316  0.9408 -0.4306  0.5232
13924TIP3   OH263186   4.587   4.953  14.399 -0.1631 -0.1373  0.0248
13924TIP3    H163187   4.647   4.974  14.470 -1.2104 -0.4440  1.0278
13924TIP3    H263188   4.613   4.865  14.370  1.5612  0.8194 -1.3539
13925TIP3   OH263189   4.372   2.999  16.645 -0.3511  0.2739  0.4965
13925TIP3    H163190   4.410   2.935  16.584  0.1312  1.1751 -0.1498
13925TIP3    H263191   4.406   2.973  16.730  1.5553  0.9098 -0.0310
13926TIP3   OH263192   4.113   2.727   4.107 -0.6245  0.3222  0.1450
13926TIP3    H163193   4.125   2.805   4.162 -3.1818  2.4958 -2.2350
13926TIP3    H263194   4.018   2.716   4.102 -0.3371 -1.7651 -1.2340
13927TIP3   OH263195   3.895   6.034  15.702  0.2916  0.3503 -0.7296
13927TIP3    H163196   3.931   6.059  15.788  0.9255 -1.4678 -0.4376
13927TIP3    H263197   3.927   6.101  15.642 -0.0477  1.5693  0.4326
13928TIP3   OH263198   3.526   3.247   3.170 -0.2270 -0.5604  0.0778
13928TIP3    H163199   3.612   3.285   3.189 -0.7495  0.2998  0.7201
13928TIP3    H263200   3.475   3.319   3.134 -0.9400 -0.8665  0.4743
13929TIP3   OH263201   2.550   4.297  17.061 -0.2752  0.2512 -0.0314
13929TIP3    H163202   2.552   4.331  17.151  1.0629 -1.2866  0.5284
13929TIP3    H263203   2.539   4.375  17.007  0.9569  1.4083  1.3423
13930TIP3   OH263204   2.521   3.347  14.701  0.7537 -0.2551  0.0711
13930TIP3    H163205   2.573   3.269  14.683  1.9904 -0.0678  2.6596
13930TIP3    H263206   2.473   3.326  14.782 -1.5729  0.3885 -1.0837
13931TIP3   OH263207   0.155   0.713  17.028 -0.4473 -0.1424 -0.2440
13931TIP3    H163208   0.068   0.743  17.057 -0.4494 -1.1116  0.8308
13931TIP3    H263209   0.139   0.672  16.943 -0.7136  1.3641 -0.9430
13932TIP3   OH263210   0.087   6.217  16.036  0.5219  0.2727  0.1593
13932TIP3    H163211   0.122   6.192  15.951 -0.4345 -4.0932  0.8920
13932TIP3    H263212   0.158   6.199  16.098  0.0306  0.0032  0.6496
13933TIP3   OH263213   1.178   4.942   1.925  0.2719  0.4073  0.3639
13933TIP3    H163214   1.109   4.902   1.871 -2.1240  0.3966  3.3046
13933TIP3    H263215   1.201   5.022   1.878  2.9486 -2.6901 -4.0195
13934TIP3   OH263216   5.388   1.563   3.164  0.4889 -0.1613 -0.3438
13934TIP3    H163217   5.423   1.603   3.084  0.7633  2.0035  0.8289
13934TIP3    H263218   5.312   1.618   3.186  0.6313 -0.5318  1.0699
13935TIP3   OH263219   2.620   0.599  10.779 -0.3307 -0.1587 -0.1410
13935TIP3    H163220   2.562   0.644  10.717 -2.3406 -2.0360  0.3439
13935TIP3    H263221   2.666   0.533  10.726  3.1301  2.7245 -1.0007
13936TIP3   OH263222   2.532   4.561   6.615 -0.4093  1.0645  0.5759
13936TIP3    H163223   2.499   4.471   6.614 -0.6735  1.1636  0.2410
13936TIP3    H263224   2.627   4.552   6.605 -0.4617  0.8361  0.2940
13937TIP3   OH263225   0.909   6.551   2.965  0.0209  0.3502 -0.0494
13937TIP3    H163226   0.965   6.473   2.964  1.1150  1.1215 -0.2673
13937TIP3    H263227   0.935   6.600   2.887 -2.4661 -0.3105 -1.3439
13938TIP3   OH263228   0.229   2.194  16.868 -0.2429 -0.4753 -0.0878
13938TIP3    H163229   0.258   2.119  16.815  0.3029 -1.7857  1.9970
13938TIP3    H263230   0.305   2.215  16.922 -1.4233 -0.4511  1.5843
13939TIP3   OH263231   0.142   5.204   2.355  0.1383 -0.6343  0.4916
13939TIP3    H163232   0.178   5.117   2.373 -0.2399 -0.6408  1.2711
13939TIP3    H263233   0.094   5.227   2.435  0.3462  0.3446  0.3444
13940TIP3   OH263234   1.220   2.662   2.365 -0.0411 -0.0028 -0.1060
13940TIP3    H163235   1.290   2.727   2.364  1.8719 -1.8748  2.3359
13940TIP3    H263236   1.259   2.585   2.324 -1.7091 -0.1537 -1.4544
13941TIP3   OH263237   3.549   2.769  15.945  0.5607  0.2603 -0.8630
13941TIP3    H163238   3.636   2.755  15.984  0.4766  1.1406 -0.3401
13941TIP3    H263239   3.521   2.853  15.981 -0.8363 -0.3832 -0.4293
13942TIP3   OH263240   5.757   6.286   2.330 -0.0002  0.2803 -0.0996
13942TIP3    H163241   5.718   6.261   2.245  1.4020 -0.7466 -0.4567
13942TIP3    H263242   5.846   6.312   2.308  0.2700  0.3112  1.0429
13943TIP3   OH263243   4.261   5.194  14.079 -0.1987  0.0295 -0.1214
13943TIP3    H163244   4.201   5.120  14.065 -0.5447  0.4070 -0.6715
13943TIP3    H263245   4.210   5.270  14.051 -0.0091  0.5251  0.8995
13944TIP3   OH263246   3.675   1.363   5.642  0.2880 -0.3604 -0.0325
13944TIP3    H163247   3.650   1.376   5.734  0.5231  2.9002 -0.3799
13944TIP3    H263248   3.592   1.361   5.595  0.2392 -0.1721  0.0441
13945TIP3   OH263249   2.791   1.120   0.523 -0.3177  0.6108 -0.0026
13945TIP3    H163250   2.808   1.055   0.455 -0.1755  1.8537 -1.2008
13945TIP3    H263251   2.698   1.141   0.514 -0.9682 -1.2823  2.0855
13946TIP3   OH263252   6.435   3.916  14.807 -0.0481  0.2135 -0.0903
13946TIP3    H163253   6.461   3.945  14.894 -2.7891  2.4621  0.0182
13946TIP3    H263254   6.411   3.996  14.760 -0.7322 -1.1772 -2.2057
13947TIP3   OH263255   0.195   6.451  16.566 -0.2411  0.0502 -1.2471
13947TIP3    H163256   0.283   6.455  16.603 -0.3185 -1.7307 -0.8233
13947TIP3    H263257   0.162   6.541  16.571  1.0360  0.4631 -0.1491
13948TIP3   OH263258   4.166   5.354   0.266 -0.1057 -0.0584  0.0916
13948TIP3    H163259   4.241   5.413   0.263 -1.6858  1.9683 -1.4505
13948TIP3    H263260   4.197   5.273   0.226  0.9583  1.1716 -1.6503
13949TIP3   OH263261   2.553   6.132  12.040  0.1730 -0.1232  0.3877
13949TIP3    H163262   2.581   6.042  12.027 -1.1950 -0.4744 -0.2992
13949TIP3    H263263   2.575   6.152  12.131  0.0544 -1.3094  0.6835
13950TIP3   OH263264   3.834   2.600   4.844 -0.0425 -0.3804  0.6301
13950TIP3    H163265   3.895   2.532   4.814  1.1010  0.5024  0.9075
13950TIP3    H263266   3.827   2.660   4.769 -1.4003 -1.0403  0.2247
13951TIP3   OH263267   4.934   6.650   5.448 -0.6721  0.1851  0.4954
13951TIP3    H163268   4.984   6.723   5.414  0.3477 -0.8449 -0.2720
13951TIP3    H263269   4.842   6.677   5.440 -0.2965  1.4038  0.3259
13952TIP3   OH263270   0.552   3.401   4.770  0.0689 -0.4731 -0.6013
13952TIP3    H163271   0.492   3.385   4.843 -0.9486 -0.9580 -1.5339
13952TIP3    H263272   0.590   3.488   4.788 -1.4111  0.1292 -0.3464
13953TIP3   OH263273   1.828   6.697  13.926  0.1234 -0.1039  0.1210
13953TIP3    H163274   1.845   6.619  13.978  1.0389 -0.0854 -0.1414
13953TIP3    H263275   1.906   6.752  13.939 -0.2321  0.4877 -0.1970
13954TIP3   OH263276   5.587   5.325   6.303 -0.1212 -0.4015 -0.5747
13954TIP3    H163277   5.525   5.398   6.301  0.8084  0.3905 -1.8326
13954TIP3    H263278   5.591   5.294   6.212  2.3712  0.5275 -0.8488
13955TIP3   OH263279   1.992   3.673   5.843 -0.1065 -0.6995  0.4605
13955TIP3    H163280   1.983   3.726   5.764  1.6766 -0.4289  0.4174
13955TIP3    H263281   1.908   3.628   5.852 -0.4406 -0.4774 -1.4030
13956TIP3   OH263282   0.812   6.415  10.671  0.0224 -0.3988  0.0557
13956TIP3    H163283   0.757   6.389  10.745  0.7034  1.0565  1.1058
13956TIP3    H263284   0.887   6.458  10.711  1.2446 -1.0992 -1.4269
13957TIP3   OH263285   2.542   5.721  10.776 -0.1645  0.1676 -0.4458
13957TIP3    H163286   2.577   5.808  10.792  0.9323  0.1480 -2.5114
13957TIP3    H263287   2.583   5.693  10.694 -3.4432 -0.7006 -1.9002
13958TIP3   OH263288   6.198   0.175  14.900 -0.0114 -0.3749  0.0645
13958TIP3    H163289   6.262   0.165  14.829 -0.9012  0.3928 -0.8671
13958TIP3    H263290   6.221   0.108  14.964 -0.2462 -2.1928 -1.7398
13959TIP3   OH263291   0.273   4.194   0.372  0.0712  0.6527 -0.3612
13959TIP3    H163292   0.333   4.188   0.298  0.6660 -1.9170  0.2857
13959TIP3    H263293   0.235   4.281   0.365  2.2364  1.5002 -2.0528
13960TIP3   OH263294   1.623   2.127   1.201 -0.4329  0.0631 -0.0624
13960TIP3    H163295   1.606   2.168   1.116  1.0012  1.6388  0.3699
13960TIP3    H263296   1.537   2.114   1.240 -1.1230 -1.0025 -1.9003
13961TIP3   OH263297   4.571   2.266  14.851  0.6581 -0.0127 -0.3522
13961TIP3    H163298   4.528   2.308  14.777 -2.1366 -2.4328 -0.1886
13961TIP3    H263299   4.504   2.209  14.888  3.3771 -2.2628  1.2786
13962TIP3   OH263300   3.431   5.370  13.880  0.0286  0.1273 -0.1264
13962TIP3    H163301   3.433   5.445  13.820  1.5656  1.4744  1.5265
13962TIP3    H263302   3.486   5.304  13.838  1.8851  1.4190  0.2016
13963TIP3   OH263303   1.166   0.777  12.813 -0.1193  0.0196  0.3746
13963TIP3    H163304   1.247   0.821  12.788 -0.6690  0.2999 -0.9684
13963TIP3    H263305   1.125   0.836  12.877 -0.3400  0.9723 -0.6234
13964TIP3   OH263306   5.412   0.918  17.196 -0.7707  0.1412  0.6261
13964TIP3    H163307   5.455   0.963  17.123 -0.7340 -0.6441  0.1562
13964TIP3    H263308   5.356   0.852  17.154  1.1530 -2.0238  1.3493
13965TIP3   OH263309   4.955   3.266  14.693  0.6977 -0.4431  0.2304
13965TIP3    H163310   4.912   3.352  14.698  2.3502  0.3396  1.4510
13965TIP3    H263311   4.890   3.209  14.652  0.0276  1.6754 -1.7205
13966TIP3   OH263312   0.062   3.037   4.839  0.0964  0.3699  0.0880
13966TIP3    H163313  -0.017   3.052   4.788  0.3468  0.2337 -0.3426
13966TIP3    H263314   0.125   3.102   4.806  0.0672  0.6936  0.6501
13967TIP3   OH263315   3.195   5.746   1.319 -0.3206  0.4649 -0.0974
13967TIP3    H163316   3.173   5.739   1.226  1.7756 -2.0807 -0.4834
13967TIP3    H263317   3.193   5.840   1.337 -2.7529  0.8786 -2.1742
13968TIP3   OH263318   0.830   2.992  16.768  0.4281  0.1080  0.8434
13968TIP3    H163319   0.834   2.899  16.745  3.8103  0.8303 -2.0076
13968TIP3    H263320   0.920   3.023  16.754 -0.7899  3.9422  1.0740
13969TIP3   OH263321   0.783   4.217  13.286  0.5513 -0.2290 -0.3523
13969TIP3    H163322   0.790   4.135  13.335  0.0336 -0.4719 -0.6727
13969TIP3    H263323   0.867   4.227  13.243  0.7080 -0.4591 -0.0997
13970TIP3   OH263324   2.408   2.890  10.853 -0.6315 -0.1588  0.3107
13970TIP3    H163325   2.435   2.980  10.836  1.0723 -0.7600 -0.2768
13970TIP3    H263326   2.389   2.854  10.767  0.1138 -0.7970  0.4109
13971TIP3   OH263327   2.585   4.526  16.625  0.0932 -0.1423  0.0194
13971TIP3    H163328   2.610   4.597  16.684  0.5335 -1.3823  1.3393
13971TIP3    H263329   2.520   4.566  16.566  2.1053  2.0171 -0.8418
13972TIP3   OH263330   6.657   2.954   3.834  0.2845  0.4641 -0.0216
13972TIP3    H163331   6.631   3.014   3.904 -0.9465  2.1506 -1.8616
13972TIP3    H263332   6.589   2.887   3.833  1.0684 -0.3702  1.3076
13973TIP3   OH263333   4.685   2.357   2.586 -0.3455 -0.3593 -0.4374
13973TIP3    H163334   4.690   2.434   2.642 -1.5706 -1.8391  1.8084
13973TIP3    H263335   4.596   2.360   2.549 -0.5837 -0.9313  0.0673
13974TIP3   OH263336   1.470   6.111  15.821  0.4744 -0.3913  0.0315
13974TIP3    H163337   1.481   6.113  15.916 -0.8925 -0.0721  0.1835
13974TIP3    H263338   1.482   6.019  15.797 -1.6037 -0.8929  0.8141
13975TIP3   OH263339   0.888   6.171  15.948 -0.2213  0.3431  0.2565
13975TIP3    H163340   0.916   6.257  15.917 -1.3644  0.4102 -0.6292
13975TIP3    H263341   0.918   6.110  15.880 -0.3294  0.1615  0.3715
13976TIP3   OH263342   3.529   5.463  12.031 -0.0790 -0.5037  0.1755
13976TIP3    H163343   3.481   5.388  11.996 -0.6743 -0.1019  0.1403
13976TIP3    H263344   3.577   5.428  12.106  1.0415 -1.3310 -0.9071
13977TIP3   OH263345   5.012   6.459  11.253  0.7039  0.3679  0.0593
13977TIP3    H163346   5.038   6.550  11.266  0.3388  0.4921 -0.0776
13977TIP3    H263347   4.955   6.460  11.177 -1.1368  0.3649  1.4102
13978TIP3   OH263348   0.106   1.728   5.453  0.4658 -0.0506  0.2404
13978TIP3    H163349   0.050   1.657   5.484  1.0047 -0.9052 -0.7258
13978TIP3    H263350   0.168   1.686   5.394  2.4119  0.8209  1.6236
13979TIP3   OH263351   1.226   2.406  15.079 -0.3013 -0.3977 -0.6211
13979TIP3    H163352   1.195   2.486  15.038  1.8457  1.2629  0.8318
13979TIP3    H263353   1.150   2.349  15.082 -1.6659  1.2590 -2.4575
13980TIP3   OH263354   5.157   2.268   5.220  0.1933  0.0870 -0.0326
13980TIP3    H163355   5.117   2.259   5.134  0.3893  1.3814 -0.2664
13980TIP3    H263356   5.094   2.321   5.270  2.0094  2.9546 -0.6933
13981TIP3   OH263357   1.620   1.214  16.688  0.1753  0.4901  0.0085
13981TIP3    H163358   1.715   1.205  16.678  0.1936  1.1250 -0.3871
13981TIP3    H263359   1.603   1.308  16.684 -0.4822  0.3791  0.0056
13982TIP3   OH263360   0.744   5.777  16.539  0.2173  0.3883  0.0674
13982TIP3    H163361   0.679   5.841  16.509 -0.5882 -0.5633 -0.2103
13982TIP3    H263362   0.757   5.720  16.463  2.3703  1.3613 -0.3428
13983TIP3   OH263363   6.590   3.087   4.066  0.1569  0.4610  0.2819
13983TIP3    H163364   6.496   3.072   4.060  0.0535  1.1959 -0.0011
13983TIP3    H263365   6.600   3.146   4.140  0.4159  0.2016  0.4538
13984TIP3   OH263366   3.124   4.968  13.315  0.9706 -0.3092 -0.0154
13984TIP3    H163367   3.130   4.914  13.236  0.9044 -0.0794 -0.1771
13984TIP3    H263368   3.039   5.011  13.308  1.1549  0.0466 -0.0313
13985TIP3   OH263369   2.709   1.995   4.678 -0.3579 -0.2092  0.2639
13985TIP3    H163370   2.744   2.042   4.602 -0.6379 -4.1794 -2.4336
13985TIP3    H263371   2.754   1.911   4.677 -2.4558 -1.4322  2.8449
13986TIP3   OH263372   6.502   1.003  10.791  0.1998 -0.2840  0.2131
13986TIP3    H163373   6.550   0.942  10.735  1.6548  0.7726  0.2854
13986TIP3    H263374   6.437   0.949  10.836  1.1069 -1.6713 -0.1335
13987TIP3   OH263375   1.823   2.714   2.737  0.0753  0.4931  0.1427
13987TIP3    H163376   1.902   2.719   2.790  0.6844 -1.2932 -0.5875
13987TIP3    H263377   1.760   2.668   2.792  0.1747  0.1296 -0.0502
13988TIP3   OH263378   4.954   4.389   0.353 -0.0663  0.0989 -0.3812
13988TIP3    H163379   4.956   4.416   0.262 -0.2997  1.0487 -0.1050
13988TIP3    H263380   5.045   4.369   0.374  0.3809  2.2882 -0.1118
13989TIP3   OH263381   2.901   2.613  16.746 -0.0944 -0.5827 -0.4194
13989TIP3    H163382   2.876   2.624  16.838  0.8813 -0.2836 -0.1783
13989TIP3    H263383   2.988   2.573  16.750  1.0481  1.7579 -1.1693
13990TIP3   OH263384   0.512   5.189  16.826  0.0852  0.2296 -0.3714
13990TIP3    H163385   0.453   5.201  16.751 -0.3424  0.6993  0.0357
13990TIP3    H263386   0.468   5.233  16.899  1.0773  0.8296 -0.1277
13991TIP3   OH263387   6.725   2.174  11.186  0.4083  0.3554 -0.2424
13991TIP3    H163388   6.808   2.207  11.218 -0.2512  1.4544  0.3715
13991TIP3    H263389   6.664   2.247  11.197 -0.1634  0.2779 -2.6324
13992TIP3   OH263390   2.699   4.364   3.293  0.6561  0.8051 -0.2303
13992TIP3    H163391   2.610   4.334   3.274  0.5710  0.9101  0.0062
13992TIP3    H263392   2.735   4.300   3.354  0.5118  1.1197  0.1897
13993TIP3   OH263393   6.475   2.643   0.406 -0.5520  0.7874  0.2966
13993TIP3    H163394   6.406   2.650   0.340 -1.2482  1.3437  1.0831
13993TIP3    H263395   6.556   2.640   0.355 -1.1311  0.3793 -0.6228
13994TIP3   OH263396   5.216   4.139   1.875 -0.6255 -0.1730 -0.1450
13994TIP3    H163397   5.250   4.112   1.789 -0.5483  0.4828 -0.3189
13994TIP3    H263398   5.294   4.154   1.928 -0.6514  0.6494 -0.3361
13995TIP3   OH263399   5.513   2.540  13.108  0.5488 -0.3736  0.0839
13995TIP3    H163400   5.492   2.634  13.105 -0.7159 -0.6690 -0.2978
13995TIP3    H263401   5.444   2.498  13.057  0.3110 -1.6650  1.4386
13996TIP3   OH263402   2.928   5.665   0.922  0.3380  0.2131 -0.3694
13996TIP3    H163403   2.990   5.593   0.913  0.0503  0.0936 -1.4009
13996TIP3    H263404   2.842   5.622   0.924  0.0195  0.6333 -2.9926
13997TIP3   OH263405   0.333   1.081  17.239 -0.1289  0.0888  0.7328
13997TIP3    H163406   0.392   1.145  17.279  0.1844 -0.3817  1.0465
13997TIP3    H263407   0.388   1.037  17.173 -0.5414  0.6192  0.0409
13998TIP3   OH263408   4.995   4.766  12.698  0.4775 -0.0755  0.3442
13998TIP3    H163409   5.002   4.861  12.702  1.4242 -0.0653 -1.2106
13998TIP3    H263410   4.941   4.749  12.621  0.4255 -0.8023  0.5404
13999TIP3   OH263411   2.334   2.805   2.589  0.0839 -0.4557  0.1862
13999TIP3    H163412   2.348   2.898   2.604  0.4589 -0.5750  0.5797
13999TIP3    H263413   2.243   2.799   2.557 -1.1153 -0.3055  3.3781
14000TIP3   OH263414   2.986   2.008  16.913  0.0385  0.5992 -0.3964
14000TIP3    H163415   3.071   2.032  16.875  0.3203 -1.0153 -0.8148
14000TIP3    H263416   2.985   2.052  16.998  3.0133 -2.5290  1.3563
14001TIP3   OH263417   1.881   2.139   0.736 -0.1677 -0.1333  0.5918
14001TIP3    H163418   1.975   2.124   0.723 -0.3813 -1.4512  0.5549
14001TIP3    H263419   1.855   2.191   0.660  0.4204 -0.2164  0.3297
14002TIP3   OH263420   4.075   2.172  11.603 -0.1842 -0.4276 -0.0989
14002TIP3    H163421   4.098   2.262  11.582 -0.1471 -0.0884  1.2976
14002TIP3    H263422   3.979   2.169  11.595 -0.1925 -0.2329 -0.0706
14003TIP3   OH263423   1.561   1.037   4.120 -0.1104 -0.2512 -0.0453
14003TIP3    H163424   1.523   1.037   4.208 -0.6738 -0.1918 -0.2850
14003TIP3    H263425   1.514   0.966   4.075 -1.3738  1.1459 -0.9609
14004TIP3   OH263426   4.985   2.200  17.127  0.1387  0.0777  0.0468
14004TIP3    H163427   5.070   2.244  17.120  1.0458 -1.6451 -0.0788
14004TIP3    H263428   4.932   2.239  17.058  1.2073  0.3709 -0.6174
14005TIP3   OH263429   2.520   5.866  16.630 -0.2364  0.2935 -0.1337
14005TIP3    H163430   2.504   5.869  16.536 -0.3174 -1.7746 -0.2101
14005TIP3    H263431   2.435   5.840  16.668 -0.3620  1.6855  0.5747
14006TIP3   OH263432   2.638   2.900   0.492  1.0158  0.0657  0.0417
14006TIP3    H163433   2.617   2.825   0.547  0.2362  2.1306  2.6423
14006TIP3    H263434   2.619   2.870   0.403 -1.3761 -2.1217  1.2118
14007TIP3   OH263435   6.748   2.642   4.741 -0.0413  0.6058  0.0093
14007TIP3    H163436   6.702   2.638   4.658  0.4701  0.3115 -0.2625
14007TIP3    H263437   6.706   2.713   4.789 -0.4446  0.6644 -0.4334
14008TIP3   OH263438   6.468   4.405  15.997  0.1344  0.0240 -0.2400
14008TIP3    H163439   6.406   4.351  16.046  1.2673 -2.0015 -0.9445
14008TIP3    H263440   6.519   4.450  16.064  0.1522 -0.9418  0.4119
14009TIP3   OH263441   6.142   4.609  13.459  0.0980  0.5189  0.0966
14009TIP3    H163442   6.176   4.698  13.454  1.9791 -0.0115  2.7253
14009TIP3    H263443   6.068   4.615  13.520 -0.0021  0.3477 -0.0063
14010TIP3   OH263444   6.554   2.704   1.809  0.2708 -0.3127 -0.0383
14010TIP3    H163445   6.577   2.611   1.810  0.1909 -0.3401 -0.4252
14010TIP3    H263446   6.606   2.743   1.879 -0.4708 -0.8349  0.8157
14011TIP3   OH263447   4.622   5.282   1.574  0.4340  0.0042 -0.4794
14011TIP3    H163448   4.599   5.207   1.519 -1.4535 -0.1445  0.4898
14011TIP3    H263449   4.585   5.262   1.660 -0.3913  2.2069 -0.2946
14012TIP3   OH263450   3.141   1.843  11.364  0.0781  0.4136 -0.0101
14012TIP3    H163451   3.159   1.749  11.362 -0.4229  0.3044  0.5855
14012TIP3    H263452   3.053   1.850  11.401  0.6264  1.1809  1.1985
14013TIP3   OH263453   1.587   2.481   2.725  0.5649 -0.4188 -0.3081
14013TIP3    H163454   1.574   2.459   2.632  2.4283 -1.8710 -0.2703
14013TIP3    H263455   1.649   2.415   2.756 -0.5488 -0.3422  2.1576
14014TIP3   OH263456   2.171   5.000  11.583 -0.0940 -0.6271 -0.1130
14014TIP3    H163457   2.138   5.050  11.657 -0.7245 -0.0251 -0.7890
14014TIP3    H263458   2.246   5.049  11.551 -0.2413 -0.5173 -0.2950
14015TIP3   OH263459   6.579   4.861   1.660 -0.3628 -1.0230  0.0303
14015TIP3    H163460   6.657   4.877   1.606 -1.0881 -1.8388 -1.2686
14015TIP3    H263461   6.589   4.771   1.690 -0.4017 -0.8555  0.5539
14016TIP3   OH263462   1.822   2.838  11.760 -0.1565 -0.3544 -0.3194
14016TIP3    H163463   1.861   2.898  11.697  1.3164  0.6461  1.4931
14016TIP3    H263464   1.839   2.751  11.724  0.4432  0.1973 -1.3985
14017TIP3   OH263465   2.996   1.765  11.012 -0.6153  0.4187  0.5031
14017TIP3    H163466   3.073   1.725  10.972 -0.0537  0.4070  1.6005
14017TIP3    H263467   2.998   1.856  10.981  1.0330  0.9895  2.2475
14018TIP3   OH263468   6.677   0.074  13.111 -0.0444 -0.2209  0.4017
14018TIP3    H163469   6.754   0.025  13.084  0.2597 -0.9271  2.4699
14018TIP3    H263470   6.712   0.155  13.149 -0.2348 -1.0446  2.3873
14019TIP3   OH263471   4.331   3.105   2.946  0.2584 -0.0048  0.4238
14019TIP3    H163472   4.422   3.077   2.952  0.3413  0.5168  1.7266
14019TIP3    H263473   4.281   3.039   2.994 -0.1510 -0.6968 -0.9231
14020TIP3   OH263474   5.844   2.033  12.907 -0.8532 -0.2522 -0.6502
14020TIP3    H163475   5.853   2.096  12.836  1.3478 -0.1243 -0.2985
14020TIP3    H263476   5.863   2.083  12.986 -0.5614 -1.0205 -0.2281
14021TIP3   OH263477   5.910   2.736  12.541 -0.5631 -0.1353 -0.1678
14021TIP3    H163478   5.815   2.745  12.543 -0.5710  0.6789 -2.0675
14021TIP3    H263479   5.942   2.826  12.530  0.3925 -0.4436  0.0216
14022TIP3   OH263480   6.525   3.441  15.984 -0.3264  0.6302 -0.0896
14022TIP3    H163481   6.429   3.440  15.994 -0.4564  0.2523 -1.2784
14022TIP3    H263482   6.554   3.514  16.038 -1.2699  0.6182  0.4498
14023TIP3   OH263483   2.086   1.116  12.976 -0.4823  0.3715  0.0139
14023TIP3    H163484   2.012   1.112  12.915 -1.4934 -0.1687  1.2612
14023TIP3    H263485   2.153   1.165  12.929 -1.1747 -0.2222 -1.6170
14024TIP3   OH263486   6.391   3.497  12.580  0.1915  0.3751 -0.0304
14024TIP3    H163487   6.371   3.571  12.523 -1.0729  0.2995  0.3021
14024TIP3    H263488   6.484   3.479  12.564  0.6369  2.3371  0.2489
14025TIP3   OH263489   0.494   0.433  15.197  0.1411  0.2495 -0.3571
14025TIP3    H163490   0.465   0.514  15.157  0.8457 -0.0426 -1.4745
14025TIP3    H263491   0.444   0.364  15.152  0.0293  0.0056  0.1287
14026TIP3   OH263492   1.632   5.731   2.204 -0.4308 -0.1291 -0.0946
14026TIP3    H163493   1.692   5.658   2.223  0.4427  0.4368 -0.6709
14026TIP3    H263494   1.547   5.699   2.234  0.2257 -0.7679  1.1491
14027TIP3   OH263495   6.282   2.153  11.528  0.4300 -0.6330 -0.2194
14027TIP3    H163496   6.281   2.063  11.560 -1.9869 -0.3715  0.5580
14027TIP3    H263497   6.205   2.159  11.471 -1.9393  2.0477  3.0694
14028TIP3   OH263498   5.103   6.593  13.528 -0.3069  0.7426 -0.1874
14028TIP3    H163499   5.194   6.568  13.508 -1.0547 -1.7895 -0.6870
14028TIP3    H263500   5.076   6.646  13.453  1.3679  3.2794  0.9251
14029TIP3   OH263501   5.874   0.880  15.408 -0.3031  0.3297  0.4639
14029TIP3    H163502   5.814   0.893  15.482 -1.3977 -0.1904 -0.3275
14029TIP3    H263503   5.849   0.947  15.345 -0.5903 -0.3976 -0.2058
14030TIP3   OH263504   2.452   6.561  13.667  0.3389  0.1027  0.2053
14030TIP3    H163505   2.452   6.636  13.608  0.7530 -0.5455 -0.6287
14030TIP3    H263506   2.404   6.591  13.744  1.0961  1.4588  0.1733
14031TIP3   OH263507   4.321   6.204  13.791  0.1091 -0.5109  0.0053
14031TIP3    H163508   4.347   6.125  13.839 -2.3510 -0.8476  0.8455
14031TIP3    H263509   4.238   6.229  13.830 -0.2263  1.2398 -1.7702
14032TIP3   OH263510   3.146   6.323   6.378  0.4043 -0.7879 -0.4398
14032TIP3    H163511   3.178   6.250   6.324 -1.3870 -2.9186  1.2563
14032TIP3    H263512   3.053   6.329   6.356  0.6379  1.3809 -0.9271
14033TIP3   OH263513   6.776   3.834   4.323  0.0722 -0.3473  0.1462
14033TIP3    H163514   6.801   3.844   4.415 -0.1440  2.1839 -0.0380
14033TIP3    H263515   6.859   3.836   4.275  0.2400 -2.3984  0.3247
14034TIP3   OH263516   0.036   4.653   2.510  0.6295  0.3939 -0.0929
14034TIP3    H163517  -0.024   4.690   2.576 -0.2179 -1.2002  0.0707
14034TIP3    H263518   0.090   4.591   2.559  0.1474 -0.6359 -0.8198
14035TIP3   OH263519   5.156   5.534  16.642  0.2083 -0.0636  0.1508
14035TIP3    H163520   5.086   5.520  16.579  0.2280 -0.0666  0.1303
14035TIP3    H263521   5.118   5.589  16.709 -0.2966 -1.3832  0.9668
14036TIP3   OH263522   1.545   6.478   0.473 -0.5495 -0.0980 -0.5818
14036TIP3    H163523   1.504   6.549   0.523  0.2510 -0.7339  1.0024
14036TIP3    H263524   1.631   6.511   0.450 -0.9266  0.2039 -1.5865
14037TIP3   OH263525   6.728   5.196   4.975  0.0822  0.1769  0.1535
14037TIP3    H163526   6.772   5.113   4.954  0.3325  0.8540 -2.0772
14037TIP3    H263527   6.653   5.199   4.916 -0.6097  0.9809  1.0662
14038TIP3   OH263528   0.470   5.987  16.456 -0.1825 -0.3123  0.1491
14038TIP3    H163529   0.410   5.928  16.503 -0.8842 -0.5342 -1.0041
14038TIP3    H263530   0.521   5.928  16.400  1.3987 -0.1696  1.3877
14039TIP3   OH263531   1.066   4.573  16.737  0.6095 -0.2235  0.0420
14039TIP3    H163532   1.066   4.544  16.828 -3.0582  2.4021  1.0286
14039TIP3    H263533   1.065   4.492  16.686 -0.4886 -1.7822  2.4288
14040TIP3   OH263534   1.656   0.780   3.653  0.1434 -0.5131 -0.0727
14040TIP3    H163535   1.694   0.868   3.656  1.1623 -0.9460  0.1909
14040TIP3    H263536   1.603   0.779   3.574  0.2477  0.2969 -0.1555
14041TIP3   OH263537   6.203   3.678  13.310  0.1977  0.5077 -0.6252
14041TIP3    H163538   6.263   3.732  13.361  0.5112  0.9135 -1.4021
14041TIP3    H263539   6.256   3.604  13.280 -0.4846 -0.7838  1.2763
14042TIP3   OH263540   5.373   1.686   2.283  0.3873 -0.5386  0.3123
14042TIP3    H163541   5.286   1.685   2.244  0.1841 -1.3794  0.7785
14042TIP3    H263542   5.433   1.672   2.210  0.0745 -0.8647  0.1175
14043TIP3   OH263543   1.806   2.557  11.681  0.3084  0.5440 -0.0328
14043TIP3    H163544   1.797   2.510  11.764  0.2435  1.6697  0.6088
14043TIP3    H263545   1.729   2.533  11.631  0.6854 -0.6760 -0.0439
14044TIP3   OH263546   3.886   3.884  17.120  0.6182  0.3090  0.2423
14044TIP3    H163547   3.935   3.832  17.184  0.2029 -2.7594 -1.8546
14044TIP3    H263548   3.953   3.929  17.069  1.0198  0.8881  1.2585
14045TIP3   OH263549   3.290   3.466  14.828 -0.0151  0.1166 -0.2769
14045TIP3    H163550   3.381   3.446  14.852  0.4833  0.1175 -2.0546
14045TIP3    H263551   3.240   3.451  14.908  1.3560 -1.3100  0.3496
14046TIP3   OH263552   2.608   3.980   4.177  0.3837 -0.4160 -0.1756
14046TIP3    H163553   2.617   4.056   4.119 -1.2013  0.5358  0.7857
14046TIP3    H263554   2.676   3.919   4.148  0.0042  0.2862 -2.6487
14047TIP3   OH263555   0.809   1.442   0.879 -0.2896 -0.0933 -0.0966
14047TIP3    H163556   0.824   1.527   0.919 -2.5792  0.9925 -1.4571
14047TIP3    H263557   0.823   1.456   0.786 -0.2974 -1.3060 -0.2905
14048TIP3   OH263558   1.967   1.390  12.411  0.4490 -0.1169 -0.2250
14048TIP3    H163559   1.984   1.473  12.365 -0.9321  1.1555  1.4819
14048TIP3    H263560   2.041   1.380  12.471 -0.0607  0.5989  0.5344
14049TIP3   OH263561   0.943   3.994   4.556  0.3530 -0.1633  0.0272
14049TIP3    H163562   0.926   4.037   4.472  2.8619  1.8425  0.4614
14049TIP3    H263563   1.009   3.928   4.535  2.9007  2.0475  0.7669
14050TIP3   OH263564   6.111   4.491  11.821 -0.4147  0.0737  0.5090
14050TIP3    H163565   6.181   4.486  11.886  1.1629 -0.3617 -1.1724
14050TIP3    H263566   6.034   4.522  11.870  0.4774 -1.1493  2.7381
14051TIP3   OH263567   2.458   0.862   1.537  0.0944 -0.6835  0.5143
14051TIP3    H163568   2.374   0.903   1.555  1.2912  1.6443  0.8805
14051TIP3    H263569   2.448   0.772   1.570 -2.1456 -0.3688  0.7680
14052TIP3   OH263570   0.222   4.345  14.383  0.3426  0.1424  0.4025
14052TIP3    H163571   0.189   4.285  14.450  1.4216 -0.7313  0.1640
14052TIP3    H263572   0.223   4.430  14.426  0.7601 -0.3612  1.4106
14053TIP3   OH263573   1.469   5.251   3.804  0.3938 -0.0473 -0.3388
14053TIP3    H163574   1.537   5.192   3.834  0.3434  1.1323  2.2193
14053TIP3    H263575   1.446   5.219   3.716  2.5997 -1.8215 -0.3041
14054TIP3   OH263576   0.150   0.088  10.759 -0.7527  0.6191  0.6879
14054TIP3    H163577   0.217   0.033  10.719 -0.4894  0.3081  1.5434
14054TIP3    H263578   0.103   0.126  10.685 -0.5158 -0.2403  0.0878
14055TIP3   OH263579   6.653   2.679  14.769 -0.5516  0.0175 -0.1633
14055TIP3    H163580   6.625   2.600  14.814 -1.1306  0.8115  0.8777
14055TIP3    H263581   6.589   2.746  14.794  0.3579  1.0056 -0.4187
14056TIP3   OH263582   4.860   6.657   2.229 -0.2928  0.0053 -0.1174
14056TIP3    H163583   4.908   6.578   2.208 -0.1982  0.6818 -2.5348
14056TIP3    H263584   4.771   6.641   2.199 -0.1396  1.0090 -1.1567
14057TIP3   OH263585   6.324   2.769  11.146 -0.1098 -0.2671  0.4846
14057TIP3    H163586   6.374   2.827  11.089  0.5535 -2.1153 -0.8567
14057TIP3    H263587   6.234   2.803  11.142  0.5804  1.7381  1.1860
14058TIP3   OH263588   1.167   0.333  15.035  0.3391 -0.3555 -0.2781
14058TIP3    H163589   1.075   0.307  15.040  0.0424  0.7957  0.5503
14058TIP3    H263590   1.165   0.415  14.986  0.7740  0.3418  0.8557
14059TIP3   OH263591   4.458   6.700   6.328 -0.4928 -0.4716 -0.9422
14059TIP3    H163592   4.531   6.761   6.340 -0.9438 -0.2127  0.4898
14059TIP3    H263593   4.390   6.731   6.387 -1.7059 -0.8284 -2.1409
14060TIP3   OH263594   5.296   6.194   0.792 -0.4230 -0.4840  0.0595
14060TIP3    H163595   5.323   6.111   0.754  0.8730  0.1600 -0.4441
14060TIP3    H263596   5.330   6.261   0.732 -0.8454  0.4323  0.8206
14061TIP3   OH263597   5.589   5.593  10.673  0.4326  0.1873  0.7115
14061TIP3    H163598   5.494   5.592  10.683  0.2526  0.1964 -0.8303
14061TIP3    H263599   5.610   5.507  10.635  1.0667  0.0998  1.2445
14062TIP3   OH263600   4.339   6.722  15.547  0.1955 -0.4654 -0.0284
14062TIP3    H163601   4.267   6.698  15.489  1.1185 -0.2645 -1.2729
14062TIP3    H263602   4.391   6.642  15.554  0.1770 -0.4413  0.4011
14063TIP3   OH263603   2.368   5.516  16.003  0.1323 -0.9462 -0.3691
14063TIP3    H163604   2.322   5.432  16.012 -2.7984  0.6072 -0.3848
14063TIP3    H263605   2.447   5.506  16.058 -2.0894 -2.3919  2.7297
14064TIP3   OH263606   0.386   0.245   0.840 -0.1243  0.2687 -0.0710
14064TIP3    H163607   0.397   0.154   0.812  2.0023 -0.1891  2.1644
14064TIP3    H263608   0.474   0.275   0.860 -0.6543  3.2297 -1.8447
14065TIP3   OH263609   3.079   1.428  15.044  0.4543  0.3274  0.2389
14065TIP3    H163610   3.006   1.401  15.099  1.7159 -1.2222  1.1755
14065TIP3    H263611   3.127   1.347  15.025  0.7379  1.0057 -2.1333
14066TIP3   OH263612   5.239   3.979   5.240  0.3149  0.5206  0.6848
14066TIP3    H163613   5.186   4.054   5.214  0.0461  0.7547  1.8476
14066TIP3    H263614   5.285   4.008   5.319  0.2464 -0.5148  1.1205
14067TIP3   OH263615   4.553   4.653  15.396  0.0618  0.7607 -0.3174
14067TIP3    H163616   4.622   4.642  15.462  1.5113 -1.6298 -2.1292
14067TIP3    H263617   4.475   4.674  15.446  1.6579  1.4903  1.9662
14068TIP3   OH263618   4.305   1.688   1.501  0.2317  0.3736  0.2357
14068TIP3    H163619   4.349   1.655   1.423  0.0522 -1.2456  0.8194
14068TIP3    H263620   4.253   1.615   1.533  0.6111  0.8863  2.1080
14069TIP3   OH263621   4.121   5.966   3.199 -0.1269  0.1885 -0.0806
14069TIP3    H163622   4.034   6.003   3.183  0.5526  0.9219 -2.1759
14069TIP3    H263623   4.138   5.911   3.122 -0.0286 -2.4756  1.7618
14070TIP3   OH263624   4.748   4.742  15.752  0.0637  0.1744 -0.1606
14070TIP3    H163625   4.722   4.793  15.675  0.4580  2.1101  0.9811
14070TIP3    H263626   4.837   4.771  15.771  0.5871 -1.5052  0.0581
14071TIP3   OH263627   2.176   3.058  12.239 -0.1892  0.4570  0.3447
14071TIP3    H163628   2.163   3.107  12.158 -1.1540 -0.3746 -0.0195
14071TIP3    H263629   2.271   3.050  12.248  0.0570  3.6029  1.1661
14072TIP3   OH263630   0.860   5.820  13.716 -0.7143  0.2808 -0.1691
14072TIP3    H163631   0.824   5.752  13.774 -0.0174  2.2486  2.6699
14072TIP3    H263632   0.955   5.813  13.728 -0.6002  1.1633 -0.5547
14073TIP3   OH263633   1.335   1.856  15.523 -0.1974  0.3098  0.4694
14073TIP3    H163634   1.302   1.879  15.610  0.1363 -3.1689  1.5692
14073TIP3    H263635   1.427   1.881  15.524 -0.4316  1.1709  0.7628
14074TIP3   OH263636   2.315   5.264  14.848  0.0929 -0.3065 -0.3060
14074TIP3    H163637   2.316   5.358  14.832  1.8157 -0.2177  0.2156
14074TIP3    H263638   2.400   5.245  14.889 -0.4413 -1.9982  0.0870
14075TIP3   OH263639   3.421   4.635  15.343 -0.0347 -0.0230 -0.2976
14075TIP3    H163640   3.502   4.661  15.385 -0.7824  0.1775  1.0476
14075TIP3    H263641   3.437   4.546  15.311  0.4036 -0.3295  0.7737
14076TIP3   OH263642   5.118   1.983   2.050  0.1355 -0.6630  0.3322
14076TIP3    H163643   5.048   2.041   2.020  0.4072 -1.1752 -1.3459
14076TIP3    H263644   5.074   1.919   2.106 -0.4804 -0.0367  0.5660
14077TIP3   OH263645   1.885   1.339  15.913  0.4917  0.2831  0.1840
14077TIP3    H163646   1.955   1.351  15.977  0.9321  0.8064 -0.3868
14077TIP3    H263647   1.894   1.412  15.853  0.4796 -0.5413 -0.8424
14078TIP3   OH263648   0.712   1.825  13.387  0.3096 -0.6297  0.0370
14078TIP3    H163649   0.789   1.775  13.364  0.2847 -1.0825  0.9290
14078TIP3    H263650   0.645   1.759  13.406 -0.0898 -0.2515 -0.0510
14079TIP3   OH263651   1.979   1.568   4.622 -0.0029 -0.2539 -0.2957
14079TIP3    H163652   2.022   1.579   4.707 -1.3565  0.2785  0.3354
14079TIP3    H263653   1.896   1.526   4.642  0.2204 -1.3063 -1.5104
14080TIP3   OH263654   6.184   5.605   0.980  0.5418 -0.5922 -0.4478
14080TIP3    H163655   6.104   5.569   1.019  0.1921 -0.3959 -0.9804
14080TIP3    H263656   6.240   5.626   1.055 -0.7967  1.3710  0.0589
14081TIP3   OH263657   4.110   0.957  16.076  0.1370 -0.5340  0.0105
14081TIP3    H163658   4.016   0.972  16.074 -0.0236 -1.2891  1.2914
14081TIP3    H263659   4.124   0.903  16.153  1.4422 -1.6865 -1.0127
14082TIP3   OH263660   5.636   2.253   1.124 -0.9445  0.3229 -0.1520
14082TIP3    H163661   5.672   2.232   1.210 -0.5015 -0.4752 -0.5267
14082TIP3    H263662   5.650   2.173   1.072 -1.8372  0.5552 -0.7544
14083TIP3   OH263663   2.487   4.410   1.637 -0.3156  0.2098  0.4844
14083TIP3    H163664   2.453   4.331   1.679  1.3085 -0.1984  1.1057
14083TIP3    H263665   2.581   4.407   1.654 -0.1218  1.8815 -0.1700
14084TIP3   OH263666   5.734   5.261  11.291  0.0321 -0.7412 -0.2652
14084TIP3    H163667   5.690   5.276  11.375  0.5520  0.8082 -0.2396
14084TIP3    H263668   5.685   5.189  11.251 -0.6813 -1.0108  1.0421
14085TIP3   OH263669   4.743   2.893   1.110  0.2611 -0.3817 -0.1322
14085TIP3    H163670   4.683   2.833   1.155  1.4586  0.0430  2.1529
14085TIP3    H263671   4.830   2.860   1.133  0.9229  1.5778  0.2589
14086TIP3   OH263672   2.265   0.749   2.148  0.1359 -0.2290  0.0402
14086TIP3    H163673   2.200   0.684   2.177  1.4670 -1.1162  1.1038
14086TIP3    H263674   2.327   0.698   2.095  3.5330 -0.7631  4.2746
14087TIP3   OH263675   4.360   6.562  14.726  0.5553 -0.1589  0.1754
14087TIP3    H163676   4.275   6.579  14.685  1.3393  1.0100 -1.0237
14087TIP3    H263677   4.424   6.579  14.656  1.9655  2.4378  2.0143
14088TIP3   OH263678   0.259   0.093   2.376  0.6305 -0.3997 -0.4908
14088TIP3    H163679   0.296   0.150   2.310  0.9969  0.7587  0.6961
14088TIP3    H263680   0.277   0.004   2.345  1.4470  0.1398 -1.5629
14089TIP3   OH263681   3.806   4.156  13.502  0.2320  0.1661  0.2022
14089TIP3    H163682   3.759   4.074  13.520  0.1660  0.3415  0.8551
14089TIP3    H263683   3.830   4.150  13.410 -0.9787  0.0279 -0.1095
14090TIP3   OH263684   5.761   6.088  16.458  0.0528 -0.4091 -0.1327
14090TIP3    H163685   5.827   6.156  16.466  0.6646 -1.0386  0.1803
14090TIP3    H263686   5.770   6.057  16.367  0.1984 -0.5142 -0.0808
14091TIP3   OH263687   1.501   5.560   1.145  0.2117 -0.5663  0.0020
14091TIP3    H163688   1.571   5.499   1.124 -1.0987 -2.0838 -0.0414
14091TIP3    H263689   1.514   5.582   1.237  0.8676 -0.6821 -0.0631
14092TIP3   OH263690   2.509   2.609  16.554  0.0334 -0.4005 -0.4111
14092TIP3    H163691   2.575   2.616  16.485 -0.1148 -0.4882 -0.5631
14092TIP3    H263692   2.435   2.661  16.522  0.6449  1.0479  0.4907
14093TIP3   OH263693   6.738   2.112   6.203  0.0238  0.8466  0.0330
14093TIP3    H163694   6.722   2.088   6.295 -0.1228  1.7953  0.2607
14093TIP3    H263695   6.802   2.047   6.173 -0.2818  0.2351  0.6613
14094TIP3   OH263696   5.878   3.625   3.153 -0.5684 -0.7689 -0.2293
14094TIP3    H163697   5.920   3.574   3.083  0.0326 -0.2254 -0.2657
14094TIP3    H263698   5.787   3.632   3.125 -0.4911 -1.1843 -0.5957
14095TIP3   OH263699   0.688   2.382   1.766 -0.4967  0.3460  0.1809
14095TIP3    H163700   0.595   2.364   1.750 -0.8281  1.8570  0.2619
14095TIP3    H263701   0.716   2.431   1.688 -0.2647  1.5291  0.9868
14096TIP3   OH263702   0.350   1.542  12.126 -0.2761  0.0065 -0.5632
14096TIP3    H163703   0.259   1.519  12.105  0.0247 -0.2216 -1.6543
14096TIP3    H263704   0.401   1.467  12.096  0.1685 -0.3983  1.1549
14097TIP3   OH263705   5.389   3.742  15.629 -0.0658 -0.6574  0.1605
14097TIP3    H163706   5.338   3.808  15.582  1.8041  1.4391  0.9680
14097TIP3    H263707   5.349   3.739  15.716  0.5099  0.2496  0.4699
14098TIP3   OH263708   4.390   5.143   5.079 -0.1768  0.0859  0.2265
14098TIP3    H163709   4.367   5.097   5.160  0.6558 -0.9132 -0.0984
14098TIP3    H263710   4.485   5.147   5.080 -0.2397  1.9198  0.2977
14099TIP3   OH263711   4.512   3.374  17.085  0.0353  0.3654 -0.9586
14099TIP3    H163712   4.494   3.288  17.123  0.7713  1.7419  2.7361
14099TIP3    H263713   4.606   3.374  17.068  0.0504  0.4742 -0.8779
14100TIP3   OH263714   3.029   2.303  16.559 -0.8633  0.0232 -0.3363
14100TIP3    H163715   2.968   2.320  16.631  0.0664 -0.6921  0.6387
14100TIP3    H263716   3.092   2.376  16.564 -0.3887 -0.4096  0.0262
14101TIP3   OH263717   3.646   4.056   6.185 -1.0985 -0.4494  0.4974
14101TIP3    H163718   3.677   3.980   6.234 -0.2689  0.1593  0.9379
14101TIP3    H263719   3.677   4.131   6.235 -1.5101  0.1830 -0.1787
14102TIP3   OH263720   0.763   4.793   4.101  0.8041 -0.1235  0.3190
14102TIP3    H163721   0.736   4.734   4.030 -1.5525  0.5872  0.6000
14102TIP3    H263722   0.752   4.741   4.180 -0.6027  0.4347  0.5059
14103TIP3   OH263723   4.116   3.663   4.441 -0.1570 -0.3097 -0.0147
14103TIP3    H163724   4.129   3.677   4.535 -0.5329  0.4783 -0.0743
14103TIP3    H263725   4.027   3.627   4.434  0.6337 -2.3083  0.0970
14104TIP3   OH263726   5.075   5.317  12.640  0.0062 -0.0993 -0.0333
14104TIP3    H163727   4.985   5.341  12.618  1.0374  2.9789 -1.1155
14104TIP3    H263728   5.078   5.321  12.736 -1.3081 -1.4993  0.0974
14105TIP3   OH263729   4.753   4.727   1.582  0.1354 -0.1482  0.7090
14105TIP3    H163730   4.829   4.752   1.530 -1.6228  1.7478 -1.0708
14105TIP3    H263731   4.742   4.799   1.644 -0.9657  0.2473  0.0682
14106TIP3   OH263732   4.917   0.714   1.668  0.4962  0.3042  0.6410
14106TIP3    H163733   4.852   0.666   1.720 -0.7876 -0.4640 -1.6443
14106TIP3    H263734   4.891   0.806   1.676  0.9062  0.3023  2.1697
14107TIP3   OH263735   5.634   0.515   3.349 -1.0733 -0.2128  0.0848
14107TIP3    H163736   5.624   0.606   3.377  0.6727 -0.3918  1.3054
14107TIP3    H263737   5.672   0.470   3.424  3.2690 -0.7930 -2.2780
14108TIP3   OH263738   0.408   2.691  12.832  0.5941  0.4994  0.3297
14108TIP3    H163739   0.393   2.764  12.772  0.9962  0.3471  0.0405
14108TIP3    H263740   0.491   2.653  12.804 -0.3579 -1.0259 -0.5283
14109TIP3   OH263741   2.432   6.168   3.604  0.4776  0.6141 -0.1591
14109TIP3    H163742   2.491   6.238   3.631  1.9678 -0.5755 -0.3277
14109TIP3    H263743   2.398   6.131   3.685  2.9582 -1.2475  0.0771
14110TIP3   OH263744   2.828   3.466  15.532  0.6155  0.3006 -0.1137
14110TIP3    H163745   2.764   3.537  15.544  0.1527  0.4230 -3.0630
14110TIP3    H263746   2.792   3.413  15.462  2.4759 -1.1559  0.0100
14111TIP3   OH263747   3.326   1.678  14.287 -0.1100  0.1297  0.0316
14111TIP3    H163748   3.293   1.633  14.209 -0.7700  0.3172  0.2054
14111TIP3    H263749   3.409   1.717  14.258  1.3439 -2.5703  0.3118
14112TIP3   OH263750   4.382   3.307   0.972 -0.6691 -0.9967 -0.5087
14112TIP3    H163751   4.360   3.214   0.966 -0.9535 -0.8098 -2.7413
14112TIP3    H263752   4.355   3.332   1.060  0.3254 -3.2490  0.4860
14113TIP3   OH263753   6.521   1.734  10.828  0.6209 -0.1473 -0.7780
14113TIP3    H163754   6.567   1.704  10.749  1.5212 -0.4995 -0.1235
14113TIP3    H263755   6.452   1.668  10.841  1.1181 -0.6569 -0.6882
14114TIP3   OH263756   3.084   3.377   4.433  1.0173  0.1691  0.0316
14114TIP3    H163757   3.044   3.290   4.430  0.2229  0.4070  2.8626
14114TIP3    H263758   3.172   3.362   4.467  1.5481  0.2908 -1.2337
14115TIP3   OH263759   3.359   2.456  12.647 -0.3537  1.2124 -0.3026
14115TIP3    H163760   3.276   2.410  12.635 -0.0875  0.7775 -0.5003
14115TIP3    H263761   3.354   2.531  12.589 -0.2709  0.7264 -0.9519
14116TIP3   OH263762   6.354   3.069   1.187 -0.3219 -0.1346  0.4249
14116TIP3    H163763   6.277   3.110   1.224 -1.0765 -1.3247  0.2030
14116TIP3    H263764   6.386   3.132   1.122 -1.8507 -0.1772 -0.3999
14117TIP3   OH263765   5.983   1.195  11.422 -0.3535  0.4994 -0.2303
14117TIP3    H163766   5.939   1.269  11.381 -0.3070  0.7749  0.2152
14117TIP3    H263767   5.949   1.192  11.511  0.5621  0.7482  0.1302
14118TIP3   OH263768   0.430   5.984  13.383  0.1651 -0.3991 -0.5491
14118TIP3    H163769   0.464   5.897  13.365 -1.0347 -0.7789 -1.0231
14118TIP3    H263770   0.451   6.035  13.305 -0.8196 -0.7802 -1.0727
14119TIP3   OH263771   4.964   0.544  14.134 -0.5774  0.2299 -0.3219
14119TIP3    H163772   4.954   0.476  14.068  2.2222  0.5198 -1.0769
14119TIP3    H263773   4.906   0.614  14.105 -1.4650 -0.7427 -0.9508
14120TIP3   OH263774   5.571   5.445   4.492  0.4795 -0.3935  0.2929
14120TIP3    H163775   5.623   5.378   4.534  1.1353 -0.9409 -1.3397
14120TIP3    H263776   5.541   5.405   4.410  0.4864  1.1161 -0.4755
14121TIP3   OH263777   0.836   0.401  11.731  0.1783  0.7934 -0.7757
14121TIP3    H163778   0.810   0.478  11.681  0.9436  0.4867 -1.6552
14121TIP3    H263779   0.782   0.330  11.695 -1.1951  1.0796  0.6610
14122TIP3   OH263780   2.417   0.750   1.282 -0.3198 -0.2782  0.0551
14122TIP3    H163781   2.454   0.805   1.350 -1.8110 -1.2938  1.7278
14122TIP3    H263782   2.486   0.685   1.264  0.1934  0.1707  0.3708
14123TIP3   OH263783   2.648   6.677  15.821 -0.0411 -0.1008 -0.0430
14123TIP3    H163784   2.737   6.643  15.834 -0.4526 -1.4542 -0.7830
14123TIP3    H263785   2.596   6.601  15.796 -1.8384  0.3253  2.2692
14124TIP3   OH263786   1.524   6.016  11.549 -0.3181  0.4364  0.6007
14124TIP3    H163787   1.557   6.062  11.472 -1.0411  1.8710  1.1122
14124TIP3    H263788   1.599   5.967  11.582  0.9556  2.5205  0.9438
14125TIP3   OH263789   6.202   0.768  16.097  0.2328  0.1897  0.7804
14125TIP3    H163790   6.139   0.808  16.038  0.9217 -0.0627 -0.1510
14125TIP3    H263791   6.149   0.716  16.158 -0.4831  0.3575  0.3073
14126TIP3   OH263792   4.702   2.269   5.570  0.5730 -0.7921  0.1851
14126TIP3    H163793   4.666   2.268   5.659  0.2753 -0.7469  0.0685
14126TIP3    H263794   4.793   2.244   5.580  0.3568 -1.4957  0.4279
14127TIP3   OH263795   3.600   1.199  12.936  0.7966  0.1883  0.6440
14127TIP3    H163796   3.544   1.273  12.958 -0.5194 -0.5448 -0.0810
14127TIP3    H263797   3.547   1.148  12.873  2.4977 -0.2494 -0.4620
14128TIP3   OH263798   3.511   0.726  14.542  0.3129 -0.9086 -0.6391
14128TIP3    H163799   3.595   0.682  14.550  1.0067  0.1473 -1.8978
14128TIP3    H263800   3.532   0.819  14.545 -1.0738 -0.6271  1.4686
14129TIP3   OH263801   6.520   2.398   1.867  0.0889  0.3704  0.5023
14129TIP3    H163802   6.582   2.428   1.934 -0.7262  0.3698  1.2730
14129TIP3    H263803   6.574   2.352   1.803  0.7242 -0.8311  1.8623
14130TIP3   OH263804   3.251   2.783  12.620  0.1239  0.5655 -0.6139
14130TIP3    H163805   3.183   2.717  12.630  0.2066  0.5899  0.1331
14130TIP3    H263806   3.292   2.763  12.536 -1.5923  1.2731 -1.6518
14131TIP3   OH263807   3.279   2.747   0.689  0.2720 -0.0550 -0.2953
14131TIP3    H163808   3.363   2.718   0.653  0.5091 -1.0780  1.0305
14131TIP3    H263809   3.237   2.667   0.719 -1.4146  0.4073 -1.3986
14132TIP3   OH263810   4.190   3.494   0.813  0.2843 -0.0759 -0.4337
14132TIP3    H163811   4.269   3.441   0.812  1.4128  1.5311  0.7455
14132TIP3    H263812   4.145   3.472   0.732  1.5935 -1.5103 -0.7862
14133TIP3   OH263813   2.154   6.621  13.803 -0.4767  0.1720 -0.2834
14133TIP3    H163814   2.125   6.664  13.884 -0.0391 -0.7126  0.3521
14133TIP3    H263815   2.128   6.530  13.813 -0.2319  0.0128 -1.0505
14134TIP3   OH263816   4.365   2.968  14.531 -0.9841  0.3375 -0.2287
14134TIP3    H163817   4.285   2.921  14.507 -1.2270  0.6336  0.0061
14134TIP3    H263818   4.337   3.034  14.594  0.0099 -2.0124  2.8329
14135TIP3   OH263819   1.187   5.624   3.879  0.2557  0.0841  0.2848
14135TIP3    H163820   1.168   5.667   3.962  2.9426  1.0660  0.4508
14135TIP3    H263821   1.232   5.542   3.903 -0.7734 -0.6159 -0.1489
14136TIP3   OH263822   0.849   6.154   1.447 -0.8628  0.1832  0.2878
14136TIP3    H163823   0.915   6.216   1.479 -0.8597  0.5117 -0.3498
14136TIP3    H263824   0.888   6.115   1.369 -0.5063 -1.2785  1.1663
14137TIP3   OH263825   3.034   5.980   1.354 -0.2754 -0.1843 -0.4320
14137TIP3    H163826   2.975   5.941   1.290  0.3041 -1.6910 -0.0516
14137TIP3    H263827   3.002   5.948   1.439  1.1926 -1.1668 -0.2345
14138TIP3   OH263828   0.200   5.327  15.588  0.2454  0.1175  0.2962
14138TIP3    H163829   0.272   5.381  15.556  0.5438  0.2408  1.1722
14138TIP3    H263830   0.170   5.371  15.668  1.4065 -1.7774  1.8047
14139TIP3   OH263831   5.616   1.417  15.469  0.3170 -0.5920 -0.7511
14139TIP3    H163832   5.549   1.378  15.525  0.9211 -1.7621 -0.8464
14139TIP3    H263833   5.675   1.345  15.447  2.0080  0.5499 -0.0968
14140TIP3   OH263834   3.356   5.667   2.917 -0.2347  0.7913 -0.5192
14140TIP3    H163835   3.309   5.586   2.897  0.7082  0.2367 -0.5696
14140TIP3    H263836   3.375   5.706   2.832  1.1237 -0.0125 -0.6043
14141TIP3   OH263837   0.705   4.318   3.459  0.4741  0.4765 -0.0265
14141TIP3    H163838   0.717   4.284   3.547 -2.4731 -0.1047  0.2079
14141TIP3    H263839   0.705   4.240   3.403 -1.3996  0.4853 -0.0690
14142TIP3   OH263840   3.534   1.387  14.309  0.7495 -0.4144 -0.1581
14142TIP3    H163841   3.468   1.440  14.356 -2.1008 -2.2663 -1.9287
14142TIP3    H263842   3.561   1.442  14.236  2.3464  0.9449  1.3972
14143TIP3   OH263843   1.058   1.692   3.736  0.3957  0.3440 -0.5209
14143TIP3    H163844   1.079   1.785   3.735 -1.3494  0.7603 -2.0708
14143TIP3    H263845   0.967   1.688   3.707  0.9901 -1.9797 -2.1756
14144TIP3   OH263846   2.674   5.599   0.221 -0.2166  0.4151  0.8893
14144TIP3    H163847   2.677   5.528   0.285 -0.7030  0.0211  0.4807
14144TIP3    H263848   2.598   5.579   0.167 -1.1262  1.9327  1.5682
14145TIP3   OH263849   5.763   6.370  10.926  0.4977 -0.1895  0.8141
14145TIP3    H163850   5.799   6.303  10.985  0.2162 -1.8118 -0.8100
14145TIP3    H263851   5.776   6.334  10.838  0.1567  1.8216 -0.0742
14146TIP3   OH263852   1.973   2.360   2.243  0.2022 -0.1862 -0.7565
14146TIP3    H163853   1.883   2.369   2.273  0.1847  0.0769 -0.8920
14146TIP3    H263854   2.024   2.343   2.323  0.0388 -0.2987 -0.6766
14147TIP3   OH263855   0.195   6.515  14.524 -0.0620  0.1204 -0.0409
14147TIP3    H163856   0.189   6.424  14.494  0.6620  0.5494 -1.5250
14147TIP3    H263857   0.247   6.559  14.457  0.8913  1.2998  1.4364
14148TIP3   OH263858   1.378   1.740   4.824  0.0039  0.2883  0.1947
14148TIP3    H163859   1.390   1.742   4.919 -0.0357 -0.7881  0.2288
14148TIP3    H263860   1.284   1.731   4.812 -0.1774  2.2088  0.0195
14149TIP3   OH263861   0.399   4.550  16.631  0.7965  0.6123  0.7116
14149TIP3    H163862   0.386   4.644  16.642  0.6742  0.7151 -0.2050
14149TIP3    H263863   0.479   4.530  16.679 -0.0584  0.8777  2.2797
14150TIP3   OH263864   3.003   3.912   0.901 -0.0156 -0.3436 -0.0762
14150TIP3    H163865   2.968   4.001   0.904 -0.7215 -0.5722 -1.0324
14150TIP3    H263866   2.969   3.870   0.979  0.2147  0.1893  0.3116
14151TIP3   OH263867   1.195   6.175  14.218 -0.0544  0.5486  0.2944
14151TIP3    H163868   1.135   6.209  14.151  0.4295  0.7670 -0.0351
14151TIP3    H263869   1.281   6.203  14.188  0.0821  1.4896  1.5095
14152TIP3   OH263870   2.475   5.199  12.395 -0.0974  0.5846 -0.0167
14152TIP3    H163871   2.568   5.199  12.373 -0.4590  0.3476 -1.6167
14152TIP3    H263872   2.452   5.292  12.401  0.0922  0.6504 -0.3032
14153TIP3   OH263873   0.161   2.157  14.697 -0.5927  0.0001 -0.7477
14153TIP3    H163874   0.188   2.187  14.610 -1.2487  0.8383 -0.6683
14153TIP3    H263875   0.134   2.066  14.684  0.5922 -0.2937 -1.1627
14154TIP3   OH263876   1.901   0.162  13.638  0.0053  0.5077  0.3291
14154TIP3    H163877   1.818   0.127  13.606  0.7127  0.2207 -1.1965
14154TIP3    H263878   1.968   0.107  13.598  0.9696  1.2700  0.8791
14155TIP3   OH263879   1.841   0.878  16.705  0.5032  0.1604 -0.1110
14155TIP3    H163880   1.800   0.944  16.649  0.0513 -0.9628 -1.1269
14155TIP3    H263881   1.806   0.895  16.792 -1.4098 -0.1937 -0.7997
14156TIP3   OH263882   6.757   3.252   5.569  0.5386 -0.2430 -0.0607
14156TIP3    H163883   6.827   3.197   5.605  2.4879  2.2285  0.0303
14156TIP3    H263884   6.769   3.247   5.474  1.4701  0.9651 -0.0118
14157TIP3   OH263885   6.163   4.072  10.558  0.0191  0.3886 -0.1534
14157TIP3    H163886   6.189   3.980  10.556 -0.6940  0.1057  1.9170
14157TIP3    H263887   6.235   4.118  10.515  0.9819 -1.0036 -0.0745
14158TIP3   OH263888   3.847   1.272   4.346 -0.2100 -0.0889  0.4032
14158TIP3    H163889   3.796   1.245   4.270  1.6620  1.4128 -1.4743
14158TIP3    H263890   3.908   1.200   4.363 -1.0094 -0.6615  0.8411
14159TIP3   OH263891   2.833   3.352  15.784  0.0797 -0.4023 -0.6472
14159TIP3    H163892   2.849   3.424  15.844  0.0897 -0.2044 -0.8865
14159TIP3    H263893   2.850   3.388  15.697  0.9480 -0.9396 -0.7058
14160TIP3   OH263894   2.093   6.682   2.908  0.1760  0.7554  0.4056
14160TIP3    H163895   2.174   6.720   2.874  1.9247 -2.6709  0.5377
14160TIP3    H263896   2.070   6.615   2.844  0.7172 -2.2970  3.2687
14161TIP3   OH263897   3.369   3.454   5.999 -0.8197  0.4281  0.0087
14161TIP3    H163898   3.293   3.428   6.051  0.6864  0.3078  2.1776
14161TIP3    H263899   3.444   3.440   6.056  0.6974  2.3233 -1.4610
14162TIP3   OH263900   6.183   6.083   3.883  0.7060 -0.3645  0.1100
14162TIP3    H163901   6.249   6.110   3.948 -0.4703 -0.4458  1.3604
14162TIP3    H263902   6.111   6.049   3.936 -0.7730  0.6780 -1.2064
14163TIP3   OH263903   3.392   3.898  13.844  0.0620  0.4897  0.1217
14163TIP3    H163904   3.477   3.931  13.815  1.4613 -1.7732  1.4216
14163TIP3    H263905   3.362   3.842  13.772  0.1834  0.4437  0.1066
14164TIP3   OH263906   3.816   3.618   3.669  0.0872  0.7615  0.0377
14164TIP3    H163907   3.765   3.698   3.660  1.2447  1.3805 -1.1365
14164TIP3    H263908   3.775   3.557   3.607 -2.9173 -0.7356  3.2757
14165TIP3   OH263909   2.056   4.490  15.440  0.0571  0.5234 -0.3952
14165TIP3    H163910   2.117   4.421  15.464  0.9021  0.9919 -1.1251
14165TIP3    H263911   2.033   4.471  15.349 -0.3460  0.7347 -0.3390
14166TIP3   OH263912   0.786   2.554   2.760  0.8130 -0.1798 -0.1764
14166TIP3    H163913   0.790   2.649   2.749 -0.1844  0.0599  1.2749
14166TIP3    H263914   0.877   2.526   2.756  1.1310  0.8644 -0.5078
14167TIP3   OH263915   0.733   2.049  16.711  0.4392 -0.1451  0.5828
14167TIP3    H163916   0.696   1.961  16.714 -0.3095  0.1552  0.4096
14167TIP3    H263917   0.738   2.076  16.802 -0.3866  0.0528  0.5802
14168TIP3   OH263918   2.257   0.085  15.966  0.2029 -0.3046  0.0690
14168TIP3    H163919   2.253  -0.011  15.969  1.1574 -0.3318  1.4578
14168TIP3    H263920   2.250   0.112  16.058 -1.7721  1.0564 -0.4604
14169TIP3   OH263921   0.018   1.803  14.185 -0.0417 -0.1228  0.1763
14169TIP3    H163922   0.093   1.744  14.180  1.3664  1.7274 -0.7451
14169TIP3    H263923   0.037   1.862  14.258 -1.5663 -0.9152  1.2626
14170TIP3   OH263924   4.640   5.033   5.178 -0.1082 -0.3809  0.3586
14170TIP3    H163925   4.556   5.035   5.223  0.5335  0.5538  1.5341
14170TIP3    H263926   4.704   5.022   5.248  0.7419 -1.1710 -0.5388
14171TIP3   OH263927   0.436   1.982   2.370 -0.0621 -0.6517  0.5644
14171TIP3    H163928   0.443   1.897   2.327 -1.2236 -0.5474  0.1730
14171TIP3    H263929   0.525   2.018   2.366  0.2524 -1.4773 -0.0111
14172TIP3   OH263930   0.577   6.349   2.689  0.2926  0.0012 -0.4017
14172TIP3    H163931   0.537   6.300   2.617 -1.9981  0.4827  0.5313
14172TIP3    H263932   0.609   6.429   2.648  0.5052 -0.4762 -1.1855
14173TIP3   OH263933   3.051   5.627   5.135 -0.1975 -0.2020 -0.3712
14173TIP3    H163934   3.011   5.685   5.070  1.4895  1.3088 -0.1050
14173TIP3    H263935   3.070   5.685   5.209  0.7610 -1.2821  0.2383
14174TIP3   OH263936   0.690   0.360  12.381 -0.0498  0.2316  0.3552
14174TIP3    H163937   0.651   0.378  12.467  0.0526  2.2083  0.0164
14174TIP3    H263938   0.615   0.345  12.324 -0.3078  2.5866  0.0189
14175TIP3   OH263939   0.596   0.260   3.255 -0.4930  0.3460  0.3155
14175TIP3    H163940   0.658   0.332   3.246  0.8037 -0.8749 -0.6115
14175TIP3    H263941   0.589   0.245   3.350  0.5629  0.5393  0.4227
14176TIP3   OH263942   0.979   3.650  11.984 -0.0146 -0.0383  0.6218
14176TIP3    H163943   1.042   3.579  11.990 -1.4717 -1.7667 -2.9114
14176TIP3    H263944   1.031   3.728  11.967  1.3821 -0.8078  1.3058
14177TIP3   OH263945   2.739   4.557  16.328  0.0663  0.2169  0.7685
14177TIP3    H163946   2.693   4.560  16.244 -0.1648  3.4316  0.9250
14177TIP3    H263947   2.774   4.468  16.334 -3.4382 -1.3722 -0.8133
14178TIP3   OH263948   0.914   4.105   3.905  0.0851 -0.8704 -0.3931
14178TIP3    H163949   0.968   4.160   3.961 -1.7785  0.3098  0.3052
14178TIP3    H263950   0.909   4.021   3.951 -0.2903 -0.3530  0.5202
14179TIP3   OH263951   0.243   1.109  14.228 -0.6719 -0.5065  0.2158
14179TIP3    H163952   0.212   1.104  14.319 -0.1639  0.4989  0.4524
14179TIP3    H263953   0.332   1.074  14.232 -0.1643  0.7737  0.3572
14180TIP3   OH263954   5.207   2.950  14.264 -0.2450 -0.2335 -0.1029
14180TIP3    H163955   5.293   2.947  14.305  0.0779  1.2444 -0.6221
14180TIP3    H263956   5.203   2.871  14.209  0.0621 -1.2304  1.2860
14181TIP3   OH263957   4.556   4.952  15.256  0.1536  0.0214  0.5911
14181TIP3    H163958   4.641   4.995  15.255  0.3259 -0.3198 -0.9763
14181TIP3    H263959   4.494   5.020  15.228  0.5334 -0.8899 -2.6922
14182TIP3   OH263960   6.510   1.398   0.299 -0.4222  0.8663 -0.4613
14182TIP3    H163961   6.520   1.349   0.218  0.8790  0.9921 -0.3892
14182TIP3    H263962   6.561   1.350   0.364 -2.5567  0.0117  0.6366
14183TIP3   OH263963   5.269   3.434   0.968  0.3104  0.2467  0.0547
14183TIP3    H163964   5.330   3.390   1.027 -0.1142 -0.5955 -0.1287
14183TIP3    H263965   5.319   3.448   0.887  0.1477 -0.8128 -0.2406
14184TIP3   OH263966   1.507   6.047   2.281  0.8337  0.2000 -0.7666
14184TIP3    H163967   1.417   6.036   2.312  1.4508  0.5674  1.2703
14184TIP3    H263968   1.561   6.034   2.359  2.4142  2.3496 -1.4394
14185TIP3   OH263969   4.599   5.006  14.869 -0.3735 -0.3690  0.0714
14185TIP3    H163970   4.649   5.035  14.945  0.0020  0.7462 -0.5962
14185TIP3    H263971   4.605   5.078  14.807 -1.0304 -1.1020 -0.8582
14186TIP3   OH263972   5.232   3.237   2.062  0.3144 -0.0660 -0.3901
14186TIP3    H163973   5.179   3.160   2.039 -1.3122  1.3778 -1.6451
14186TIP3    H263974   5.216   3.299   1.990  0.5521  1.9395  1.2448
14187TIP3   OH263975   3.862   0.699   0.262 -0.3554 -0.1964  0.0499
14187TIP3    H163976   3.899   0.787   0.253 -0.3569  0.0321  2.1792
14187TIP3    H263977   3.776   0.713   0.303 -0.7617 -1.1213 -0.4589
14188TIP3   OH263978   4.161   4.840  13.334  0.0757 -0.7157  0.1046
14188TIP3    H163979   4.183   4.903  13.403  3.2803  0.4812 -1.8894
14188TIP3    H263980   4.083   4.877  13.293  1.8020  2.0133 -0.9247
14189TIP3   OH263981   0.662   5.124  15.567  0.3631  0.4129 -0.3354
14189TIP3    H163982   0.571   5.153  15.570  0.4163  0.6182 -0.7669
14189TIP3    H263983   0.677   5.085  15.653 -0.2275  0.0974 -0.3746
14190TIP3   OH263984   1.789   1.808  17.216 -0.1777 -0.5756  0.0763
14190TIP3    H163985   1.746   1.723  17.222 -0.5249 -0.6247 -2.5166
14190TIP3    H263986   1.880   1.788  17.192  0.2793 -0.2999  1.5468
14191TIP3   OH263987   4.815   6.150  14.507 -0.0968 -0.2651 -0.2400
14191TIP3    H163988   4.910   6.137  14.512 -0.2981 -2.0229 -0.7748
14191TIP3    H263989   4.803   6.244  14.521  1.8925  0.3428 -2.3038
14192TIP3   OH263990   4.470   3.368   1.600  0.3157  0.2336  0.3712
14192TIP3    H163991   4.506   3.321   1.524  1.4505 -0.8351  1.5459
14192TIP3    H263992   4.379   3.341   1.604  0.4811 -0.4198 -0.0952
14193TIP3   OH263993   2.317   1.816  17.130  0.3791  0.2042 -0.5037
14193TIP3    H163994   2.308   1.862  17.213 -2.0998  0.0366 -0.6377
14193TIP3    H263995   2.411   1.800  17.121  0.5753 -0.8845  2.8535
14194TIP3   OH263996   1.761   4.269   0.419 -0.1490  0.2171  0.0377
14194TIP3    H163997   1.738   4.342   0.476 -1.1416  0.0962 -0.2033
14194TIP3    H263998   1.834   4.301   0.367 -0.4029  0.9476  0.1320
14195TIP3   OH263999   2.345   1.626   2.718  0.0646 -0.1768  0.6655
14195TIP3    H164000   2.371   1.669   2.799  1.8344  0.0030  0.0247
14195TIP3    H264001   2.319   1.697   2.660 -1.0080 -0.2898  1.0072
14196TIP3   OH264002   5.801   4.998   5.508  0.5655 -0.0376 -0.4379
14196TIP3    H164003   5.725   5.050   5.482  0.6394 -0.8542 -2.3659
14196TIP3    H264004   5.776   4.907   5.490  1.3258 -0.4676  0.6197
14197TIP3   OH264005   5.715   2.677   1.937 -0.1502 -0.3761  0.0642
14197TIP3    H164006   5.734   2.591   1.975 -1.7207 -0.7204  0.1117
14197TIP3    H264007   5.718   2.737   2.011 -2.5446 -0.9480  0.6887
14198TIP3   OH264008   2.396   1.598  11.583 -0.0100 -0.0617 -0.1158
14198TIP3    H164009   2.478   1.642  11.561 -0.8318  0.9349 -1.2225
14198TIP3    H264010   2.339   1.667  11.616 -0.9932 -0.4545 -0.9640
14199TIP3   OH264011   3.532   1.445   2.604 -0.2765  0.1761 -1.1071
14199TIP3    H164012   3.512   1.353   2.618 -1.4840  0.5893  0.1247
14199TIP3    H264013   3.619   1.457   2.641 -0.2970 -0.3875 -0.8717
14200TIP3   OH264014   6.174   1.002  13.873  0.0666  0.0019 -0.5596
14200TIP3    H164015   6.219   0.995  13.789  0.4369 -0.9481 -0.2852
14200TIP3    H264016   6.240   1.038  13.933 -0.1482  0.5235 -0.6323
14201TIP3   OH264017   5.333   2.486   0.824  0.6274  0.5062  0.3371
14201TIP3    H164018   5.380   2.550   0.877  0.5862  0.5062  0.3738
14201TIP3    H264019   5.328   2.408   0.879  0.5310  0.5260  0.3559
14202TIP3   OH264020   3.458   4.971  14.929  0.5738 -0.1061 -0.1259
14202TIP3    H164021   3.465   5.041  14.864  1.1227 -0.9970 -1.0344
14202TIP3    H264022   3.508   5.003  15.005 -0.0489  0.9212 -0.1445
14203TIP3   OH264023   3.787   5.617  10.796 -0.3636 -0.4009  0.5600
14203TIP3    H164024   3.819   5.634  10.884 -1.2935 -0.1844  0.8582
14203TIP3    H264025   3.717   5.680  10.783  1.3765  1.2230 -1.2457
14204TIP3   OH264026   4.395   6.393   3.127 -0.5293  0.0808  0.0636
14204TIP3    H164027   4.362   6.359   3.211 -0.1210 -2.1167 -0.6400
14204TIP3    H264028   4.393   6.318   3.068  0.8351  1.1873 -1.4382
14205TIP3   OH264029   2.129   3.045  11.806  1.2156  0.1486  0.0336
14205TIP3    H164030   2.085   3.013  11.728  2.5052 -0.0527 -0.6313
14205TIP3    H264031   2.194   2.978  11.827  1.5262  0.6483  0.7149
14206TIP3   OH264032   2.263   3.691  15.303 -0.9199  0.2129  0.8366
14206TIP3    H164033   2.269   3.756  15.373 -0.4985  0.0964  0.9094
14206TIP3    H264034   2.350   3.653  15.297 -0.6429  1.0136 -0.5110
14207TIP3   OH264035   6.275   3.582  11.699 -0.5811  0.3466 -0.1485
14207TIP3    H164036   6.336   3.532  11.754  0.4518  0.6381 -1.0314
14207TIP3    H264037   6.235   3.516  11.642  1.5674  0.6320 -2.0572
14208TIP3   OH264038   3.146   6.349  11.985  0.3901 -0.0890 -0.1043
14208TIP3    H164039   3.056   6.355  12.015  0.5010 -1.3861  0.5227
14208TIP3    H264040   3.140   6.313  11.896  0.2681  0.2916 -0.2530
14209TIP3   OH264041   5.971   5.052  14.572 -0.2699 -0.0141 -0.1159
14209TIP3    H164042   6.024   5.131  14.581  2.4322 -1.6957 -0.8028
14209TIP3    H264043   6.009   4.991  14.635 -1.4991 -1.2371 -0.5341
14210TIP3   OH264044   5.260   1.537   4.185  0.1628 -0.3367 -0.0380
14210TIP3    H164045   5.201   1.467   4.213 -0.9745  0.7734  0.3907
14210TIP3    H264046   5.298   1.569   4.266  0.3698 -0.1785 -0.1985
14211TIP3   OH264047   5.305   6.308   4.598  0.7498 -0.6692 -0.3157
14211TIP3    H164048   5.244   6.364   4.647 -0.3185 -0.7880 -1.4598
14211TIP3    H264049   5.371   6.368   4.564  1.4310 -0.5721  1.1552
14212TIP3   OH264050   2.060   1.018  14.502  0.2317 -0.4259  0.4573
14212TIP3    H164051   2.100   1.095  14.463  0.2741 -0.4919  0.3695
14212TIP3    H264052   2.047   1.041  14.594  0.4745 -0.4061  0.4864
14213TIP3   OH264053   0.027   5.725  15.316 -0.3712  0.7555 -0.2474
14213TIP3    H164054   0.052   5.789  15.383 -0.1835 -1.5761  1.9875
14213TIP3    H264055   0.110   5.704  15.272 -0.2170  1.0603 -0.1087
14214TIP3   OH264056   3.848   1.693  16.757 -0.5324  0.0985 -0.1041
14214TIP3    H164057   3.928   1.676  16.807 -1.1068 -0.6705  0.5739
14214TIP3    H264058   3.877   1.693  16.665  0.2903  0.1256  0.1464
14215TIP3   OH264059   5.552   5.200  11.495 -0.1738 -0.0449  0.4123
14215TIP3    H164060   5.578   5.167  11.580  0.4847  0.7430  0.5279
14215TIP3    H264061   5.551   5.295  11.505 -2.2514 -0.0088  0.1593
14216TIP3   OH264062   2.112   0.065   4.982 -0.1862  0.1234 -0.8806
14216TIP3    H164063   2.205   0.073   5.003 -0.5007  1.4516  0.0878
14216TIP3    H264064   2.081  -0.008   5.035  0.0493  0.4553 -0.2888
14217TIP3   OH264065   5.474   4.876   5.990 -0.0613 -0.1376 -0.2979
14217TIP3    H164066   5.483   4.928   6.070 -1.3542 -0.3384 -0.0221
14217TIP3    H264067   5.388   4.898   5.956 -0.1000 -1.1545 -0.8638
14218TIP3   OH264068   3.728   6.155  15.091  0.3027 -0.1532  0.0426
14218TIP3    H164069   3.748   6.203  15.171 -1.2995 -0.5436  0.7071
14218TIP3    H264070   3.683   6.076  15.121  0.6500 -0.8375 -1.1825
14219TIP3   OH264071   0.514   3.047  10.906 -0.4731  0.0386  0.7812
14219TIP3    H164072   0.435   3.092  10.874  0.3819  0.6181 -0.5527
14219TIP3    H264073   0.495   2.954  10.894 -0.3293  0.2346 -1.0433
14220TIP3   OH264074   3.705   1.606   1.831  0.4073  0.4846 -0.1099
14220TIP3    H164075   3.635   1.581   1.892  1.5226  0.7393  1.3266
14220TIP3    H264076   3.777   1.546   1.852  1.5907  2.0376  0.3887
14221TIP3   OH264077   2.921   2.104  13.044  0.1736 -0.1718  0.9649
14221TIP3    H164078   2.862   2.129  12.972  2.4337 -2.1702 -1.7226
14221TIP3    H264079   2.916   2.177  13.105 -3.3220  0.7353 -0.2767
14222TIP3   OH264080   2.498   6.533   1.719  0.5602  0.6693 -0.0227
14222TIP3    H164081   2.477   6.568   1.806  0.1183 -1.9390  0.9401
14222TIP3    H264082   2.424   6.561   1.664  0.3389  1.4691  0.6688
14223TIP3   OH264083   0.482   4.249  16.506  0.1186  0.3407  0.0289
14223TIP3    H164084   0.479   4.153  16.496  0.8823  0.3425 -0.2738
14223TIP3    H264085   0.458   4.282  16.420 -2.8341  0.4560  0.8608
14224TIP3   OH264086   1.596   5.061   0.642  0.1370  0.0920  0.7453
14224TIP3    H164087   1.663   5.087   0.578 -1.8713  0.6746 -1.1518
14224TIP3    H264088   1.603   5.127   0.711  3.5529 -1.5595  2.1075
14225TIP3   OH264089   2.568   5.104   6.119  0.1703 -0.6146 -0.8348
14225TIP3    H164090   2.598   5.073   6.205 -4.9327 -0.0263  1.3760
14225TIP3    H264091   2.551   5.024   6.070  0.1101 -1.0351 -0.1363
14226TIP3   OH264092   6.263   5.879   3.037  0.0983 -0.3103  0.2260
14226TIP3    H164093   6.242   5.799   2.988  0.8492  1.1699 -2.5974
14226TIP3    H264094   6.181   5.926   3.043  0.0069 -0.4899  0.4085
14227TIP3   OH264095   2.824   0.668  12.109 -0.0863 -0.2252  0.2672
14227TIP3    H164096   2.916   0.655  12.132  0.0203 -1.3956 -0.7893
14227TIP3    H264097   2.793   0.732  12.173  1.9426  1.5914 -0.4908
14228TIP3   OH264098   0.152   4.361   0.087 -0.1023 -0.1903 -0.1225
14228TIP3    H164099   0.076   4.343   0.142  0.2474 -2.3704 -0.3103
14228TIP3    H264100   0.219   4.392   0.147  0.1180 -2.0809  0.6301
14229TIP3   OH264101   3.441   5.518  10.889 -0.5779  0.0231 -0.5035
14229TIP3    H164102   3.498   5.483  10.958 -0.0098  0.9501 -0.4954
14229TIP3    H264103   3.485   5.494  10.808 -0.5340  0.1294 -0.5110
14230TIP3   OH264104   5.346   2.243  15.874 -0.4127  0.5248  0.2463
14230TIP3    H164105   5.374   2.265  15.963  0.0800  1.1535 -0.0577
14230TIP3    H264106   5.394   2.305  15.818  1.5851 -1.7940 -0.7129
14231TIP3   OH264107   6.254   5.775  13.561 -0.1644 -0.1743 -0.2863
14231TIP3    H164108   6.315   5.706  13.533  1.5555  0.3934  1.8941
14231TIP3    H264109   6.295   5.856  13.531 -1.0614  0.0532 -0.8979
14232TIP3   OH264110   1.153   4.509  15.670  0.0583  0.2364  0.1669
14232TIP3    H164111   1.090   4.485  15.603  0.5140  1.6512 -0.7922
14232TIP3    H264112   1.102   4.559  15.734 -0.4750 -1.5391  1.1333
14233TIP3   OH264113   6.395   3.920   1.388  0.4443  0.3583 -0.2184
14233TIP3    H164114   6.489   3.925   1.372  0.2475  0.1886 -1.4743
14233TIP3    H264115   6.355   3.929   1.302 -0.7664  2.2626  0.4966
14234TIP3   OH264116   5.961   3.986  10.994  0.1272  0.0834  0.4231
14234TIP3    H164117   5.978   4.031  11.077  0.8722  0.9060 -0.1564
14234TIP3    H264118   6.037   4.007  10.940  0.4729 -1.8691  0.1230
14235TIP3   OH264119   6.004   0.739   0.591  0.0652 -0.2615 -0.2510
14235TIP3    H164120   5.959   0.812   0.633  0.3710  0.0450 -0.4504
14235TIP3    H264121   6.088   0.733   0.637  1.1453  1.1867 -1.9166
14236TIP3   OH264122   6.146   1.353   0.308  0.5480  0.5079  0.4265
14236TIP3    H164123   6.211   1.423   0.312  1.5548 -0.1866 -2.4384
14236TIP3    H264124   6.196   1.274   0.289 -0.8822 -0.4747  0.6643
14237TIP3   OH264125   1.831   1.858  13.134  0.0495  0.1242 -0.0349
14237TIP3    H164126   1.787   1.940  13.110  1.9340  0.8087 -1.2363
14237TIP3    H264127   1.876   1.879  13.216  1.1504  0.5132 -0.7397
14238TIP3   OH264128   0.069   0.615   3.079 -0.8588 -0.1341  0.0154
14238TIP3    H164129   0.028   0.660   3.005  1.2065 -0.2182 -1.2205
14238TIP3    H264130   0.138   0.562   3.040  0.5471  0.1349  2.0608
14239TIP3   OH264131   2.168   5.431   3.610  0.7665  0.1437 -0.5365
14239TIP3    H164132   2.257   5.435   3.644 -0.6559  0.1099  3.3635
14239TIP3    H264133   2.148   5.338   3.607 -0.0020  0.2608  0.9451
14240TIP3   OH264134   1.853   3.338   1.012  0.5779  0.2565  0.1947
14240TIP3    H164135   1.946   3.360   1.017  0.7616 -0.2415 -0.9207
14240TIP3    H264136   1.811   3.397   1.074  1.4457  1.6382 -0.5102
14241TIP3   OH264137   0.623   6.041  15.950 -0.6809  0.1086 -0.2982
14241TIP3    H164138   0.715   6.066  15.960 -0.6339  0.8664 -2.3066
14241TIP3    H264139   0.576   6.102  16.007 -0.1568  1.6884 -1.5019
14242TIP3   OH264140   1.569   4.484   0.157 -0.2334  0.1038 -0.3174
14242TIP3    H164141   1.478   4.453   0.157  0.4186 -1.9126 -0.1313
14242TIP3    H264142   1.567   4.562   0.212 -2.1137  0.9498 -1.5233
14243TIP3   OH264143   1.314   2.527  13.134 -0.2834  0.2275 -0.1968
14243TIP3    H164144   1.223   2.550  13.156 -0.0129  0.6025  0.5407
14243TIP3    H264145   1.308   2.437  13.101 -0.7833 -0.1440  0.8652
14244TIP3   OH264146   2.823   3.854   2.834 -0.4006  0.4385  0.1822
14244TIP3    H164147   2.822   3.909   2.756  1.1139  1.3288  0.7760
14244TIP3    H264148   2.751   3.886   2.887 -1.4783 -0.2099 -0.8642
14245TIP3   OH264149   5.970   4.733  14.491  1.1159  0.2602 -0.7563
14245TIP3    H164150   6.005   4.817  14.461  1.5112 -0.5067 -2.5258
14245TIP3    H264151   5.891   4.720  14.439 -0.4912  0.8186  1.4818
14246TIP3   OH264152   2.388   5.449   3.759 -0.2570 -0.0830  1.0021
14246TIP3    H164153   2.466   5.394   3.770 -0.9764 -1.0867  1.0995
14246TIP3    H264154   2.423   5.535   3.735  0.8574 -0.6743  0.4806
14247TIP3   OH264155   2.482   2.244  13.837 -0.3141 -0.2775 -0.1868
14247TIP3    H164156   2.432   2.185  13.781 -0.6892 -0.1363  0.0021
14247TIP3    H264157   2.568   2.249  13.796 -0.8718  0.5737 -1.2648
14248TIP3   OH264158   6.745   0.337  15.961 -0.1555 -0.8946 -0.7272
14248TIP3    H164159   6.811   0.387  15.912  1.1843  0.3533  2.2056
14248TIP3    H264160   6.681   0.403  15.988 -0.8938 -1.5620 -0.8392
14249TIP3   OH264161   5.242   2.337  17.131 -0.4109 -0.0724  0.2430
14249TIP3    H164162   5.210   2.365  17.216 -1.9952 -2.5692  0.5130
14249TIP3    H264163   5.282   2.416  17.093 -4.7083  2.5753  0.9071
14250TIP3   OH264164   2.779   0.887  11.519  0.1508 -0.6597 -0.3477
14250TIP3    H164165   2.867   0.915  11.541 -0.0179  0.1149 -0.6430
14250TIP3    H264166   2.755   0.825  11.588  1.3939 -1.8325 -0.9531
14251TIP3   OH264167   0.519   0.419  16.378 -0.2839  0.0586 -0.1261
14251TIP3    H164168   0.427   0.444  16.368 -0.2900  0.1868  0.2305
14251TIP3    H264169   0.517   0.325  16.393 -0.5137  0.3961  2.0290
14252TIP3   OH264170   1.884   4.475   5.712  0.1457 -0.5708 -0.0927
14252TIP3    H164171   1.807   4.471   5.655  0.8548  1.8066 -1.2853
14252TIP3    H264172   1.958   4.462   5.653  0.8639  1.4453  0.3291
14253TIP3   OH264173   0.480   5.856   1.638 -0.3341 -0.0480  0.1668
14253TIP3    H164174   0.481   5.764   1.665 -1.2201  0.0309  0.5043
14253TIP3    H264175   0.477   5.852   1.542  2.2668 -0.3374  0.0744
14254TIP3   OH264176   3.975   2.568  15.745  0.3170  0.4309  0.1117
14254TIP3    H164177   3.997   2.570  15.652 -0.9799 -0.6538 -0.2389
14254TIP3    H264178   3.882   2.544  15.747  0.2154  0.9015  1.6680
14255TIP3   OH264179   4.229   1.646  11.380 -0.6030  0.4655  0.0360
14255TIP3    H164180   4.220   1.727  11.429 -1.3812  0.0108  0.6546
14255TIP3    H264181   4.219   1.577  11.445  0.5610 -0.1257 -0.4052
14256TIP3   OH264182   4.577   2.437  15.079 -0.7167 -0.4365  0.1819
14256TIP3    H164183   4.609   2.426  15.169  0.5198 -0.9916 -0.3109
14256TIP3    H264184   4.565   2.348  15.047  3.7741 -0.4669 -1.8848
14257TIP3   OH264185   5.789   0.952  12.364 -0.1991 -0.4504  0.0138
14257TIP3    H164186   5.829   0.941  12.451  0.4455 -0.6510 -0.3054
14257TIP3    H264187   5.858   0.991  12.311 -0.7433  0.0927 -0.2919
14258TIP3   OH264188   0.502   0.804   5.614 -0.4395 -0.2196 -0.7454
14258TIP3    H164189   0.532   0.714   5.627  0.3577  0.1444 -0.0378
14258TIP3    H264190   0.406   0.799   5.617 -0.3523 -0.7414  1.2023
14259TIP3   OH264191   5.309   5.889  14.267 -0.2131 -0.2282  0.3828
14259TIP3    H164192   5.247   5.961  14.253 -0.2505 -0.3840 -0.2706
14259TIP3    H264193   5.265   5.831  14.330 -0.6208 -0.2098  0.1135
14260TIP3   OH264194   0.860   5.753  13.191  0.6156 -0.2739  0.4914
14260TIP3    H164195   0.859   5.820  13.260  0.6190 -0.6364  0.8437
14260TIP3    H264196   0.839   5.671  13.236 -1.2010 -0.2293 -0.2405
14261TIP3   OH264197   4.043   0.521   0.367  0.4948 -0.1027  0.2502
14261TIP3    H164198   4.017   0.505   0.457  0.3441 -1.3723  0.0006
14261TIP3    H264199   3.978   0.582   0.333 -0.0253 -0.3883  0.7154
14262TIP3   OH264200   1.789   5.792  14.900 -0.1390  0.3446 -0.6782
14262TIP3    H164201   1.766   5.786  14.993 -0.9656 -0.3344 -0.9169
14262TIP3    H264202   1.725   5.853  14.864 -1.1662 -1.0087 -1.2071
14263TIP3   OH264203   5.694   1.103  12.941  0.3107  0.0914 -0.1087
14263TIP3    H164204   5.730   1.173  12.995 -1.5103  0.2455  0.9582
14263TIP3    H264205   5.612   1.079  12.985 -0.5521 -0.6773 -2.0840
14264TIP3   OH264206   1.118   2.943  16.736  0.4387  0.0153 -0.4857
14264TIP3    H164207   1.161   3.012  16.787 -0.5589 -0.2163  0.6806
14264TIP3    H264208   1.122   2.975  16.646  0.2219  1.4822  0.0102
14265TIP3   OH264209   4.937   3.154   5.001  0.4895 -0.1585  0.6380
14265TIP3    H164210   4.950   3.062   5.025 -0.3389 -0.1242  1.2629
14265TIP3    H264211   4.878   3.188   5.069 -0.1825  0.5148 -0.2659
14266TIP3   OH264212   1.684   2.226   4.566 -0.2538  0.1582 -0.2932
14266TIP3    H164213   1.747   2.172   4.519 -1.6624 -2.3077  0.5151
14266TIP3    H264214   1.720   2.234   4.654  0.5343  1.5711 -0.7332
14267TIP3   OH264215   1.472   3.504  15.681  0.3703 -0.8212  0.5495
14267TIP3    H164216   1.486   3.584  15.731  1.6259 -1.0006  0.4899
14267TIP3    H264217   1.553   3.492  15.631 -0.6356 -0.9485 -1.0922
14268TIP3   OH264218   1.679   2.194   2.901 -0.1487  0.1502 -0.1119
14268TIP3    H164219   1.695   2.266   2.963 -0.8305  0.2354 -0.0278
14268TIP3    H264220   1.656   2.119   2.956  2.1431 -0.5780 -0.1170
14269TIP3   OH264221   4.402   0.036   6.075 -0.0260  0.2073  0.3191
14269TIP3    H164222   4.324  -0.020   6.079  0.4925 -0.6555 -1.3345
14269TIP3    H264223   4.432   0.041   6.165 -0.7954 -1.1779  0.6728
14270TIP3   OH264224   1.684   4.010  11.391 -0.0901  0.3350 -0.4323
14270TIP3    H164225   1.626   4.076  11.353 -1.0482  0.0398  0.4824
14270TIP3    H264226   1.767   4.055  11.404 -0.2567  0.9037 -1.3056
14271TIP3   OH264227   1.073   4.346  11.615  0.3474  0.1056 -0.1754
14271TIP3    H164228   1.036   4.266  11.653 -1.6023  0.9776 -0.1701
14271TIP3    H264229   1.129   4.382  11.684  0.5060 -0.7602  0.1575
14272TIP3   OH264230   1.263   1.943  14.845  0.5734  0.1523 -0.3580
14272TIP3    H164231   1.280   1.848  14.848  0.1688  0.1128  0.8399
14272TIP3    H264232   1.196   1.957  14.912  0.7169  1.3068 -0.4608
14273TIP3   OH264233   1.641   1.695   6.093 -0.6583  0.5138 -0.3057
14273TIP3    H164234   1.556   1.664   6.062 -0.5376  0.6559 -0.7750
14273TIP3    H264235   1.623   1.729   6.181 -0.5674 -1.9680  0.6939
14274TIP3   OH264236   2.966   2.818   0.498  0.1555  0.0089 -0.1256
14274TIP3    H164237   2.947   2.734   0.540 -1.0451  1.0616  1.4865
14274TIP3    H264238   2.995   2.795   0.410  0.0091 -2.1044  0.3617
14275TIP3   OH264239   4.741   6.720  13.487 -0.3235  0.7119  0.2454
14275TIP3    H164240   4.763   6.812  13.476 -1.3366  0.7803 -1.3819
14275TIP3    H264241   4.709   6.713  13.577 -0.6858  2.0379  0.2255
14276TIP3   OH264242   1.417   1.338  16.902  0.7014 -0.5221 -0.0126
14276TIP3    H164243   1.355   1.347  16.830  1.5619 -1.2252 -0.8577
14276TIP3    H264244   1.423   1.244  16.918  2.2161 -0.5240 -0.5365
14277TIP3   OH264245   6.082   6.138  14.671 -0.1616  0.5400 -0.4791
14277TIP3    H164246   6.113   6.225  14.698  1.8611 -0.4041  0.3811
14277TIP3    H264247   6.003   6.124  14.723  0.2350  1.3313  0.3661
14278TIP3   OH264248   2.477   4.319  14.767 -0.1179  0.4309  0.0001
14278TIP3    H164249   2.469   4.402  14.814  0.1404  0.7511 -0.5204
14278TIP3    H264250   2.569   4.296  14.774 -0.5157 -0.7794  1.7738
14279TIP3   OH264251   5.106   2.921   1.240  0.3350  0.4914 -0.3085
14279TIP3    H164252   5.095   2.950   1.331  0.8380  1.6068 -0.5927
14279TIP3    H264253   5.180   2.972   1.208  0.3526 -0.1247 -1.2562
14280TIP3   OH264254   0.210   2.238   4.877  0.3532 -0.1026  0.0246
14280TIP3    H164255   0.189   2.285   4.797  1.5961 -0.5992 -0.6125
14280TIP3    H264256   0.198   2.146   4.854 -1.3940 -0.1642  1.0598
14281TIP3   OH264257   2.247   2.837  15.722 -0.2451 -0.1049  0.4939
14281TIP3    H164258   2.262   2.912  15.663 -1.3037 -0.2434  0.0233
14281TIP3    H264259   2.267   2.760  15.668  0.0490 -0.1854  0.7211
14282TIP3   OH264260   4.599   4.549   4.714  0.2791  0.3345  0.2185
14282TIP3    H164261   4.590   4.526   4.807 -1.4468  0.3393  0.0763
14282TIP3    H264262   4.600   4.465   4.668  2.0848  0.2984  0.3026
14283TIP3   OH264263   0.093   0.105  14.564 -0.4549  0.4044 -0.0234
14283TIP3    H164264   0.006   0.145  14.556 -1.4871 -1.7507  0.0837
14283TIP3    H264265   0.127   0.102  14.475 -0.7455  0.6620 -0.1443
14284TIP3   OH264266   1.548   3.375  12.435  0.2504 -0.5697 -0.2460
14284TIP3    H164267   1.634   3.409  12.411 -0.6297 -0.2167 -3.1837
14284TIP3    H264268   1.514   3.437  12.499  2.6431 -1.3842  1.8940
14285TIP3   OH264269   3.232   6.629  13.389 -0.5338  0.0612 -0.2243
14285TIP3    H164270   3.147   6.596  13.418 -1.1159  1.3854 -0.4057
14285TIP3    H264271   3.232   6.721  13.414  0.5754  0.2278 -0.8250
14286TIP3   OH264272   4.944   6.299  14.840  0.1703 -0.1875 -0.0796
14286TIP3    H164273   4.869   6.351  14.868 -0.4214 -0.5450 -0.9831
14286TIP3    H264274   5.020   6.347  14.874 -0.3776  1.0640 -0.5691
14287TIP3   OH264275   1.825   0.859  15.661 -0.1859 -0.5969  0.1592
14287TIP3    H164276   1.855   0.939  15.704  0.5898 -0.6267 -0.3321
14287TIP3    H264277   1.859   0.864  15.572 -2.5760 -0.0898 -0.7587
14288TIP3   OH264278   0.920   4.413   4.460  0.0643  0.6074 -0.3362
14288TIP3    H164279   0.979   4.362   4.405 -0.5746 -1.2282  0.6368
14288TIP3    H264280   0.955   4.502   4.456  0.3995  0.4054 -3.1655
14289TIP3   OH264281   0.798   2.427  14.689  0.7397 -0.2908  0.3271
14289TIP3    H164282   0.870   2.485  14.663 -0.2051  0.6361 -0.2796
14289TIP3    H264283   0.837   2.366  14.750  1.7750  0.9958  0.9730
14290TIP3   OH264284   1.287   1.026   5.734  0.1514  0.1777 -0.1523
14290TIP3    H164285   1.308   1.025   5.641 -0.0721  1.3471 -0.2257
14290TIP3    H264286   1.364   1.063   5.776 -0.0588  0.3955  0.0446
14291TIP3   OH264287   0.549   0.340  10.882  0.2163 -0.3147  0.0714
14291TIP3    H164288   0.481   0.407  10.887  1.1142  0.5414  1.2096
14291TIP3    H264289   0.615   0.377  10.823 -0.1313 -0.9747 -0.7298
14292TIP3   OH264290   1.371   3.491   4.653  0.2065 -0.2552  0.6681
14292TIP3    H164291   1.290   3.515   4.608  2.0966  0.7838 -2.3597
14292TIP3    H264292   1.349   3.411   4.701 -2.0450 -1.2057 -1.8223
14293TIP3   OH264293   4.156   5.800   3.528  0.1008 -0.0147 -0.0711
14293TIP3    H164294   4.171   5.895   3.525  0.2702 -0.0657 -1.0763
14293TIP3    H264295   4.232   5.765   3.573 -0.0945  0.3564  0.5491
14294TIP3   OH264296   0.122   2.753   0.841  0.0075  0.1466  0.2302
14294TIP3    H164297   0.129   2.660   0.820  0.8290 -0.1193  1.6336
14294TIP3    H264298   0.195   2.794   0.794 -0.1919  0.0394 -0.1702
14295TIP3   OH264299   5.957   4.180   3.838 -0.1266 -0.1258  0.0753
14295TIP3    H164300   5.934   4.273   3.829  0.2106 -0.0117  0.3682
14295TIP3    H264301   5.893   4.146   3.901 -1.9299 -0.7198 -2.0448
14296TIP3   OH264302   3.133   5.398  16.189  0.1701 -0.0529  0.5038
14296TIP3    H164303   3.107   5.329  16.128 -2.5108  2.3989 -1.2590
14296TIP3    H264304   3.071   5.390  16.262  0.5323 -0.1481  0.8056
14297TIP3   OH264305   0.093   1.649  16.508 -0.2512  0.2895  0.0793
14297TIP3    H164306   0.018   1.697  16.540 -0.1105  0.9247 -0.5330
14297TIP3    H264307   0.147   1.634  16.585 -0.4153  0.9012  0.3148
14298TIP3   OH264308   3.971   2.239  17.197 -0.4796 -0.1448 -0.3711
14298TIP3    H164309   3.907   2.302  17.165 -0.6331 -0.5037 -0.7709
14298TIP3    H264310   4.033   2.291  17.248 -0.3066  0.4023 -1.1430
14299TIP3   OH264311   6.544   0.019   4.123 -0.0064  0.2068  0.9035
14299TIP3    H164312   6.566   0.070   4.046  0.0845 -0.1177  0.7148
14299TIP3    H264313   6.488   0.077   4.175 -0.7335  0.1462  0.2120
14300TIP3   OH264314   2.402   3.358  14.382 -0.4126 -0.0100  0.5464
14300TIP3    H164315   2.424   3.336  14.292  0.0241 -0.7903  0.8416
14300TIP3    H264316   2.323   3.307  14.401 -0.3070 -0.1146  0.7139
14301TIP3   OH264317   6.345   5.279   0.686  0.7746 -0.3401 -0.5561
14301TIP3    H164318   6.436   5.260   0.665  1.4928 -0.3193  2.3264
14301TIP3    H264319   6.348   5.360   0.738 -0.7237 -1.0378  0.6788
14302TIP3   OH264320   6.398   5.003  14.870 -0.5342 -0.3896 -0.3909
14302TIP3    H164321   6.431   5.092  14.859 -0.9836 -0.1559  0.1982
14302TIP3    H264322   6.426   4.978  14.958  1.4472 -1.6094 -1.3104
14303TIP3   OH264323   4.489   4.416   3.685 -0.5866 -0.7793  0.4402
14303TIP3    H164324   4.487   4.512   3.683 -2.7999 -0.8076 -0.4676
14303TIP3    H264325   4.564   4.395   3.740  0.6116  1.4608 -0.2697
14304TIP3   OH264326   5.321   6.504   2.813  0.1951  0.0155  0.2742
14304TIP3    H164327   5.297   6.412   2.812  0.8819 -0.1922 -1.9577
14304TIP3    H264328   5.385   6.513   2.741  0.8142  2.0372  1.0269
14305TIP3   OH264329   6.415   2.106   5.865  0.1918 -0.1488 -0.1636
14305TIP3    H164330   6.388   2.197   5.877 -0.3685 -0.3372 -0.0097
14305TIP3    H264331   6.347   2.067   5.810 -0.1260 -0.7633  0.6584
14306TIP3   OH264332   0.943   6.179  12.389 -0.3100  0.6261 -0.0849
14306TIP3    H164333   0.886   6.136  12.452 -0.3548  1.1894  0.2624
14306TIP3    H264334   0.901   6.263  12.371  1.6438  2.1481  2.0751
14307TIP3   OH264335   4.742   6.125  13.648 -0.4009  0.3376  0.2029
14307TIP3    H164336   4.737   6.210  13.691  0.6037  0.8573 -0.7082
14307TIP3    H264337   4.664   6.079  13.678 -1.3285  1.8378  0.1451
14308TIP3   OH264338   5.665   2.453  16.646  0.8798  0.0330  0.7273
14308TIP3    H164339   5.705   2.366  16.645  0.2692 -0.2655 -1.3063
14308TIP3    H264340   5.719   2.504  16.705  2.8519 -1.0188 -0.1102
14309TIP3   OH264341   1.345   6.647   2.012  0.4459 -0.5080 -0.8052
14309TIP3    H164342   1.404   6.721   2.023  0.1513 -0.3131 -0.5395
14309TIP3    H264343   1.402   6.570   2.008  0.6889 -0.3573 -0.1810
14310TIP3   OH264344   4.619   3.724   5.621  0.4000  0.1529  0.3097
14310TIP3    H164345   4.693   3.731   5.561 -0.7311  0.1566 -1.1094
14310TIP3    H264346   4.616   3.631   5.645  0.0916 -0.1007 -0.6614
14311TIP3   OH264347   2.913   0.326  10.346  0.3371  0.1855 -0.4669
14311TIP3    H164348   2.991   0.288  10.306  0.8916  1.1373 -0.2983
14311TIP3    H264349   2.919   0.420  10.328 -1.3965  0.1216 -1.5256
14312TIP3   OH264350   5.130   3.191   2.550 -0.2590 -0.1042 -0.5182
14312TIP3    H164351   5.209   3.244   2.559 -0.5199  0.3143 -0.7043
14312TIP3    H264352   5.145   3.140   2.470  0.0635 -0.4429 -0.2472
14313TIP3   OH264353   4.547   2.625  13.217 -0.2273 -0.8688 -0.0903
14313TIP3    H164354   4.546   2.587  13.305  0.0535 -2.2100 -0.6593
14313TIP3    H264355   4.494   2.705  13.225 -1.8833 -2.0159  0.8480
14314TIP3   OH264356   4.220   0.586  15.156  0.4215  0.5880  0.0716
14314TIP3    H164357   4.206   0.661  15.214  1.2587 -0.2826  1.4250
14314TIP3    H264358   4.142   0.531  15.169  0.4281  0.5778  0.0676
14315TIP3   OH264359   3.242   4.650   0.840 -0.4757  0.4332  0.1661
14315TIP3    H164360   3.181   4.664   0.767 -0.8352 -2.0073 -0.0260
14315TIP3    H264361   3.327   4.678   0.805 -0.5420 -1.2303 -1.4192
14316TIP3   OH264362   3.203   3.720  12.312  0.6765 -0.6127 -0.2226
14316TIP3    H164363   3.130   3.728  12.250 -1.5680  0.0638  2.4234
14316TIP3    H264364   3.215   3.809  12.347 -1.2979 -1.8244  3.7931
14317TIP3   OH264365   0.521   2.897  16.448  0.1458  0.6792 -0.4597
14317TIP3    H164366   0.503   2.819  16.394 -0.7004  1.5009 -1.3978
14317TIP3    H264367   0.451   2.958  16.424  0.6012  1.5913  0.5350
14318TIP3   OH264368   3.480   6.634   2.252 -0.1815 -0.3281 -0.3132
14318TIP3    H164369   3.390   6.616   2.279 -0.4283 -0.1342 -0.9934
14318TIP3    H264370   3.487   6.597   2.164  0.5019 -0.6287 -0.1395
14319TIP3   OH264371   0.384   3.815  13.381  0.4060 -0.5396 -0.0169
14319TIP3    H164372   0.348   3.748  13.440 -1.9542 -0.1942 -0.9979
14319TIP3    H264373   0.361   3.784  13.293  2.2516 -0.1104 -0.6702
14320TIP3   OH264374   1.869   1.963  11.231 -0.1077  0.3551  0.6969
14320TIP3    H164375   1.798   1.983  11.292 -1.4114  0.8461 -0.9490
14320TIP3    H264376   1.864   1.868  11.218  0.3428  0.2083  1.5247
14321TIP3   OH264377   4.549   0.617   1.704  0.5618  0.2771 -0.1533
14321TIP3    H164378   4.628   0.586   1.749  1.2544  2.5925  0.2761
14321TIP3    H264379   4.484   0.549   1.721  2.2881 -1.3761 -0.0169
14322TIP3   OH264380   2.937   1.385   1.753  0.2453  0.0577 -0.3057
14322TIP3    H164381   2.952   1.423   1.666 -0.4771  1.5047  0.1803
14322TIP3    H264382   2.980   1.299   1.749  0.7226  0.3401 -1.8951
14323TIP3   OH264383   3.208   2.627   1.619  0.0155  0.2479  0.1807
14323TIP3    H164384   3.115   2.614   1.639 -0.3210 -0.4941 -1.7821
14323TIP3    H264385   3.219   2.722   1.615 -0.2568  0.3902  2.1316
14324TIP3   OH264386   2.962   3.901   3.223 -0.5855 -0.1541  0.2571
14324TIP3    H164387   2.989   3.947   3.144 -1.2841  0.4839  0.3797
14324TIP3    H264388   2.890   3.844   3.195 -0.6869 -0.0920  0.3906
14325TIP3   OH264389   3.969   6.295  16.799 -0.6750  0.0682  0.1739
14325TIP3    H164390   4.057   6.308  16.763  0.0878 -0.8724  1.6366
14325TIP3    H264391   3.936   6.384  16.813  0.2544  0.4394  0.0750
14326TIP3   OH264392   3.471   2.789   5.118 -0.0146  0.2504  0.1513
14326TIP3    H164393   3.414   2.817   5.189 -1.1684  1.5698 -1.2601
14326TIP3    H264394   3.412   2.762   5.048  1.1062 -0.1425 -0.6710
14327TIP3   OH264395   3.424   4.290   3.220  0.3821 -0.5634 -0.2052
14327TIP3    H164396   3.511   4.309   3.255  0.2625 -1.5710  0.6492
14327TIP3    H264397   3.421   4.195   3.214  0.1260 -0.4516 -2.2783
14328TIP3   OH264398   4.200   5.966   4.152  0.2378 -0.3021  0.3979
14328TIP3    H164399   4.285   5.973   4.108  0.9622 -0.8779  1.6703
14328TIP3    H264400   4.140   5.934   4.084  0.8612  0.8254 -0.7039
14329TIP3   OH264401   1.140   4.984  15.085  0.6249 -0.2263 -0.0621
14329TIP3    H164402   1.164   4.978  15.177  2.0165 -1.1123 -0.4683
14329TIP3    H264403   1.044   4.986  15.085  0.6122 -0.5350  1.3732
14330TIP3   OH264404   1.147   4.894   6.669  0.3760 -0.0531 -0.1920
14330TIP3    H164405   1.151   4.981   6.709  1.1808  1.0070 -2.4725
14330TIP3    H264406   1.197   4.903   6.588 -1.1476 -2.1174 -1.4204
14331TIP3   OH264407   6.363   5.558   0.326 -0.0878 -0.4577 -0.3195
14331TIP3    H164408   6.318   5.478   0.352  1.2027 -0.9073  0.5831
14331TIP3    H264409   6.406   5.536   0.243 -1.7383  0.0581 -1.3238
14332TIP3   OH264410   2.923   1.491  14.481 -0.3047  0.3345  0.2350
14332TIP3    H164411   2.990   1.481  14.548  0.6072  1.4489 -0.4862
14332TIP3    H264412   2.958   1.442  14.406  0.1514  1.6682 -0.4432
14333TIP3   OH264413   2.027   6.010   0.839  0.7050 -0.5180 -0.4041
14333TIP3    H164414   2.048   5.931   0.789  1.2083 -1.5845  1.4303
14333TIP3    H264415   1.992   6.071   0.774  1.3343 -1.8533 -2.0378
14334TIP3   OH264416   6.360   1.916  16.203 -0.1849  0.2493 -0.0717
14334TIP3    H164417   6.397   1.946  16.286  0.8133  0.5400 -0.6241
14334TIP3    H264418   6.269   1.945  16.205 -0.3330 -0.2726  1.1882
14335TIP3   OH264419   1.770   0.554   0.029  0.3667 -0.1419  0.3276
14335TIP3    H164420   1.811   0.618  -0.030  1.4158 -0.0352  1.1594
14335TIP3    H264421   1.775   0.594   0.115 -4.7376  1.5133  0.0601
14336TIP3   OH264422   0.996   6.282  11.077  0.7640  0.1747 -0.2977
14336TIP3    H164423   1.053   6.233  11.018  2.3069  1.3146  0.2075
14336TIP3    H264424   1.055   6.344  11.121 -0.9494  1.7256 -0.1297
14337TIP3   OH264425   0.988   0.806   1.350  0.0767  0.3304  0.4814
14337TIP3    H164426   0.999   0.730   1.293 -1.4744  0.6810 -0.3182
14337TIP3    H264427   1.074   0.819   1.389  1.3858  0.4792 -2.3163
14338TIP3   OH264428   2.829   5.774  14.626 -0.0343  0.6120 -0.3237
14338TIP3    H164429   2.768   5.786  14.699  0.3432 -0.0406  0.0999
14338TIP3    H264430   2.788   5.708  14.571 -1.1777  2.3701 -1.6481
14339TIP3   OH264431   3.979   0.686  13.600  0.0332  0.6373  0.3702
14339TIP3    H164432   3.948   0.731  13.678  2.8011  0.3689  1.6816
14339TIP3    H264433   4.068   0.719  13.587  0.1979 -0.5316 -1.7430
14340TIP3   OH264434   3.465   3.438   5.415 -0.0148  0.3847 -0.6268
14340TIP3    H164435   3.466   3.357   5.468 -0.4342 -0.4910 -1.9386
14340TIP3    H264436   3.541   3.487   5.445  0.9720 -1.0798 -0.6969
14341TIP3   OH264437   3.469   5.558   2.452 -0.6337  0.2597  0.3667
14341TIP3    H164438   3.421   5.530   2.530  0.0695 -0.5513  0.5143
14341TIP3    H264439   3.469   5.482   2.394 -0.6734  0.6813 -0.1967
14342TIP3   OH264440   0.105   2.231   2.908 -0.0919  0.4555  0.4201
14342TIP3    H164441   0.112   2.149   2.859  1.8815  0.9935 -0.2241
14342TIP3    H264442   0.138   2.209   2.995 -1.8199 -0.0213  0.9715
14343TIP3   OH264443   3.249   3.488   3.459 -0.5978 -0.2662 -0.0417
14343TIP3    H164444   3.292   3.451   3.382  0.1529 -0.7920  0.6225
14343TIP3    H264445   3.208   3.568   3.428  0.0277 -0.2800 -0.9079
14344TIP3   OH264446   5.810   2.646  16.877 -0.2558 -0.4996 -0.5280
14344TIP3    H164447   5.789   2.559  16.910  0.2503 -0.1375  0.7867
14344TIP3    H264448   5.890   2.671  16.924  0.3389  0.1310 -1.8607
14345TIP3   OH264449   6.387   4.505  17.114 -0.4752  0.0204  0.1807
14345TIP3    H164450   6.292   4.518  17.115 -0.3741  1.0058 -1.4600
14345TIP3    H264451   6.408   4.487  17.023  0.6158 -2.6638  0.9153
14346TIP3   OH264452   6.034   3.430   2.673  0.1995 -0.0816 -0.3229
14346TIP3    H164453   6.105   3.365   2.664 -2.0206 -2.3092 -2.4023
14346TIP3    H264454   6.056   3.498   2.610  0.4453 -0.7922 -1.0075
14347TIP3   OH264455   6.513   3.584   3.972 -0.6669 -0.0562 -0.0068
14347TIP3    H164456   6.539   3.655   4.031 -2.3551  0.9962 -0.4910
14347TIP3    H264457   6.428   3.555   4.006 -0.9481 -0.4342 -1.0232
14348TIP3   OH264458   2.245   2.948  14.437 -0.0576 -0.0386 -0.3327
14348TIP3    H164459   2.299   2.984  14.507 -0.7306  0.6899 -0.1890
14348TIP3    H264460   2.155   2.959  14.467 -0.3039 -1.2031 -0.5975
14349TIP3   OH264461   3.367   3.631   5.778  0.3893  0.0056  0.2827
14349TIP3    H164462   3.375   3.721   5.812  1.4179 -0.2142  0.6596
14349TIP3    H264463   3.360   3.577   5.857  1.8246 -0.4224  0.1391
14350TIP3   OH264464   4.850   4.518  14.247 -0.2409  0.5972 -0.4893
14350TIP3    H164465   4.800   4.436  14.247  0.1812  0.3342 -1.4168
14350TIP3    H264466   4.925   4.500  14.303  0.0001  0.2494 -0.9146
14351TIP3   OH264467   2.974   3.793  16.714 -0.3277 -0.5151  0.3099
14351TIP3    H164468   3.033   3.720  16.732 -0.6431 -0.6279  0.9077
14351TIP3    H264469   2.984   3.851  16.790 -0.3275 -0.1004 -0.0055
14352TIP3   OH264470   2.182   4.839   5.906  0.3548 -0.2234  0.0347
14352TIP3    H164471   2.211   4.754   5.938  0.9936 -0.6238 -1.5363
14352TIP3    H264472   2.087   4.839   5.917  0.3828 -1.0441  0.2469
14353TIP3   OH264473   2.328   3.135   4.401  0.4242  0.4365 -1.4985
14353TIP3    H164474   2.333   3.041   4.382 -0.3537  0.2394 -0.7819
14353TIP3    H264475   2.253   3.143   4.460 -0.1786  1.6499 -2.4040
14354TIP3   OH264476   4.792   3.765   1.351 -0.8972  0.1019  0.0200
14354TIP3    H164477   4.717   3.761   1.292 -0.7113 -0.1206 -0.2039
14354TIP3    H264478   4.765   3.713   1.427 -0.6709 -0.6670 -0.4099
14355TIP3   OH264479   6.358   6.554  14.682  0.5621  0.4863 -0.4129
14355TIP3    H164480   6.310   6.634  14.702  0.4579  0.6451 -1.2603
14355TIP3    H264481   6.444   6.567  14.722 -0.0552  0.2384  1.0255
14356TIP3   OH264482   0.209   1.763  13.750 -0.4389 -0.7030 -0.3478
14356TIP3    H164483   0.132   1.724  13.791  0.7871 -0.7970  1.9382
14356TIP3    H264484   0.227   1.706  13.675 -3.1839 -0.0697 -1.5602
14357TIP3   OH264485   1.869   3.796  12.183  0.2373 -0.1660  0.1066
14357TIP3    H164486   1.906   3.782  12.271 -1.5050 -1.3758  0.6824
14357TIP3    H264487   1.878   3.711  12.140 -2.1382 -0.6109  0.4030
14358TIP3   OH264488   3.304   4.511  15.627  0.0726 -0.3553  0.5848
14358TIP3    H164489   3.267   4.516  15.715 -0.0314 -0.4195  0.5444
14358TIP3    H264490   3.228   4.500  15.570 -0.0738  2.2563  0.2394
14359TIP3   OH264491   5.420   4.857  13.948  0.5821  0.5352  0.5320
14359TIP3    H164492   5.349   4.801  13.917  1.4676  0.2373 -1.0188
14359TIP3    H264493   5.427   4.837  14.042 -0.5780 -0.3090  0.4461
14360TIP3   OH264494   1.082   4.790   0.159 -0.5059 -0.0581  0.4080
14360TIP3    H164495   1.170   4.809   0.127  0.0650 -0.0328  1.9499
14360TIP3    H264496   1.024   4.827   0.093  0.6249 -1.8082 -1.6309
14361TIP3   OH264497   4.006   0.987   0.949 -0.4816 -0.7263  0.4015
14361TIP3    H164498   4.011   1.058   0.885  1.2285 -0.5579  0.7190
14361TIP3    H264499   4.094   0.980   0.986 -1.2539 -1.3224  2.2055
14362TIP3   OH264500   0.859   4.772   2.645  0.3918 -0.1104 -0.2382
14362TIP3    H164501   0.840   4.855   2.602 -0.8467 -0.2781 -0.0343
14362TIP3    H264502   0.940   4.742   2.604 -0.2936  0.1490 -1.8355
14363TIP3   OH264503   4.165   4.802   6.185  0.0339  0.2899  0.4060
14363TIP3    H164504   4.251   4.836   6.211 -0.6075  0.8896  1.8363
14363TIP3    H264505   4.103   4.847   6.243 -1.1843 -0.6268 -0.1540
14364TIP3   OH264506   1.861   1.767  15.911 -0.2564 -0.0034 -0.0908
14364TIP3    H164507   1.892   1.852  15.943  0.7337 -0.4133  0.0722
14364TIP3    H264508   1.930   1.706  15.936  0.1521 -0.4823 -2.2529
14365TIP3   OH264509   3.589   3.420   3.786 -0.5362 -0.5477  0.3923
14365TIP3    H164510   3.541   3.355   3.837  0.5221 -0.3306  1.6844
14365TIP3    H264511   3.521   3.477   3.749 -1.4601 -2.3282 -0.6917
14366TIP3   OH264512   3.340   6.457   4.261  0.2657  0.5779 -0.2328
14366TIP3    H164513   3.357   6.407   4.341  1.7800  0.5817 -0.5401
14366TIP3    H264514   3.423   6.455   4.214 -0.2332  1.7357 -1.1684
14367TIP3   OH264515   5.011   2.498  16.963 -0.0823  0.9361  0.0154
14367TIP3    H164516   5.093   2.477  16.919 -0.2132  0.4780 -0.0087
14367TIP3    H264517   5.016   2.592  16.979 -0.0733  1.1207 -1.0563
14368TIP3   OH264518   4.616   2.451   4.701  0.0443 -1.1083 -0.6634
14368TIP3    H164519   4.670   2.528   4.686 -1.8919  0.0456 -1.8289
14368TIP3    H264520   4.565   2.473   4.779 -0.0793 -1.4491 -0.6475
14369TIP3   OH264521   0.122   0.278  13.676 -0.8120  0.0501  0.1456
14369TIP3    H164522   0.172   0.333  13.736  1.8307  0.2105 -2.1040
14369TIP3    H264523   0.094   0.338  13.606  0.1137 -0.9522 -1.1263
14370TIP3   OH264524   6.538   3.932   5.535  0.2557 -0.2830 -0.7030
14370TIP3    H164525   6.607   3.916   5.599 -0.2646  0.2324  0.0155
14370TIP3    H264526   6.476   3.860   5.547 -0.0969  0.0835 -0.2491
14371TIP3   OH264527   6.723   0.305   4.382  0.0887  0.5305  0.2044
14371TIP3    H164528   6.792   0.333   4.442 -1.0973  0.9147  1.4125
14371TIP3    H264529   6.703   0.215   4.408  0.2336  0.3617 -0.2529
14372TIP3   OH264530   3.801   5.963   2.531  0.0293 -0.3022  0.5614
14372TIP3    H164531   3.868   5.896   2.541  0.4140 -0.1977 -1.0616
14372TIP3    H264532   3.724   5.915   2.498  0.6944  0.1916 -1.8302
14373TIP3   OH264533   3.736   5.657  12.445 -0.5125 -0.7678  0.5590
14373TIP3    H164534   3.690   5.602  12.382 -0.8562 -0.3802  0.4752
14373TIP3    H264535   3.828   5.633  12.434 -0.4202  0.2609 -1.0347
14374TIP3   OH264536   3.044   3.963   1.664 -0.1239  0.1820 -0.0370
14374TIP3    H164537   3.117   4.024   1.660  0.1515 -0.1522 -0.0586
14374TIP3    H264538   3.054   3.909   1.586 -0.6333  0.4095 -0.2644
14375TIP3   OH264539   3.783   0.072   0.399 -0.0116 -0.2242  0.5357
14375TIP3    H164540   3.776   0.166   0.381 -0.0379 -0.5914 -1.5061
14375TIP3    H264541   3.876   0.052   0.385 -0.1688 -0.6580  0.0874
14376TIP3   OH264542   1.441   0.977  12.087 -0.5207 -0.4107 -0.0342
14376TIP3    H164543   1.506   0.954  12.154 -0.7616 -0.7697  0.0758
14376TIP3    H264544   1.394   1.052  12.124  0.5075  0.5178 -0.5494
14377TIP3   OH264545   0.311   6.340  12.950  0.2238  0.8343  0.2814
14377TIP3    H164546   0.340   6.427  12.923 -2.1121  1.2124 -1.0964
14377TIP3    H264547   0.231   6.324  12.900 -0.6442 -1.1523  2.2129
14378TIP3   OH264548   6.534   6.167   3.492  0.1460 -0.1100  0.3894
14378TIP3    H164549   6.463   6.111   3.459  0.0997  0.3430 -0.2937
14378TIP3    H264550   6.586   6.187   3.414  1.1089 -0.5479  0.9042
14379TIP3   OH264551   6.775   4.358   3.075  0.4262  0.4338 -0.0120
14379TIP3    H164552   6.793   4.284   3.016 -0.6258  0.1739 -0.0344
14379TIP3    H264553   6.738   4.425   3.017 -1.2406 -0.0680  0.4354
14380TIP3   OH264554   3.713   6.711   1.481  0.0162  0.2739 -0.3781
14380TIP3    H164555   3.637   6.755   1.444  0.6999  0.8591 -1.0827
14380TIP3    H264556   3.736   6.644   1.417 -1.6426 -1.8589  1.1414
14381TIP3   OH264557   0.856   5.449  16.808  0.0983  0.0337  0.0804
14381TIP3    H164558   0.903   5.444  16.725 -0.4077  2.2650 -0.3743
14381TIP3    H264559   0.782   5.389  16.797 -0.7284  1.2989 -1.6246
14382TIP3   OH264560   0.946   2.199  17.142  0.2946  0.3534 -1.1573
14382TIP3    H164561   0.945   2.142  17.065 -2.3820 -0.6016 -0.4667
14382TIP3    H264562   0.916   2.284  17.108  0.0053  0.1851 -1.3195
14383TIP3   OH264563   0.849   3.529   1.395  0.1767  0.3464 -0.8184
14383TIP3    H164564   0.849   3.520   1.491 -3.0127  1.8792 -0.6062
14383TIP3    H264565   0.906   3.603   1.378  0.4221  0.3346 -0.0650
14384TIP3   OH264566   2.038   1.125   3.541  0.8903  0.0768  0.3726
14384TIP3    H164567   2.090   1.188   3.592  1.9932  1.6361 -2.5589
14384TIP3    H264568   2.096   1.099   3.469 -0.7832 -1.7052 -0.3705
14385TIP3   OH264569   5.578   1.368  11.565 -0.0200 -0.3353 -0.7261
14385TIP3    H164570   5.630   1.439  11.528  1.7872 -1.5908 -0.6784
14385TIP3    H264571   5.599   1.292  11.510  0.1142 -1.4279  0.7996
14386TIP3   OH264572   0.747   4.479   4.972  0.0381  0.0658  0.3909
14386TIP3    H164573   0.720   4.429   5.050  1.7746 -1.2301  0.1922
14386TIP3    H264574   0.780   4.413   4.912 -1.2474  1.0734 -1.4665
14387TIP3   OH264575   1.152   0.405   0.722  0.3445  0.2123  0.6697
14387TIP3    H164576   1.101   0.477   0.759  0.0867  0.4964 -0.2250
14387TIP3    H264577   1.093   0.363   0.659  0.7863 -0.2428  0.5550
14388TIP3   OH264578   1.042   2.157   0.525 -0.0417  0.3250 -0.4943
14388TIP3    H164579   0.980   2.230   0.529  1.5104  1.5370  2.5478
14388TIP3    H264580   1.024   2.107   0.604  0.5521 -1.2896 -1.3610
14389TIP3   OH264581   1.810   0.036  11.356 -0.1063 -0.7887 -0.1106
14389TIP3    H164582   1.773  -0.047  11.326 -0.9190 -0.4222 -0.1493
14389TIP3    H264583   1.834   0.082  11.275 -0.5791 -0.5746 -0.1317
14390TIP3   OH264584   5.936   6.019   0.143 -0.5635 -0.0223  0.2619
14390TIP3    H164585   6.021   6.034   0.101 -0.3057  0.4853  0.9557
14390TIP3    H264586   5.957   5.991   0.232 -1.1167  2.0896  1.1008
14391TIP3   OH264587   1.781   0.215  15.474 -0.1720 -0.0209  0.6432
14391TIP3    H164588   1.776   0.225  15.379 -0.7350  1.7192  0.8359
14391TIP3    H264589   1.690   0.201  15.500 -0.1972  0.9568  1.0740
14392TIP3   OH264590   5.550   6.042  10.815  0.3912  0.0373  0.2173
14392TIP3    H164591   5.625   6.099  10.798 -0.4688  0.9502 -0.5365
14392TIP3    H264592   5.572   5.959  10.771  0.8608  0.3686 -0.1738
14393TIP3   OH264593   3.932   6.493  15.598 -0.1038  0.0706  0.1560
14393TIP3    H164594   3.857   6.552  15.596  1.2796  1.8704  0.3263
14393TIP3    H264595   3.960   6.492  15.690 -0.2415 -1.0316  0.1971
14394TIP3   OH264596   4.525   4.257   0.340 -0.2260  0.0729  0.6965
14394TIP3    H164597   4.534   4.180   0.396  0.0899 -0.4278 -0.0278
14394TIP3    H264598   4.498   4.221   0.255 -1.9422  0.9215  0.8596
14395TIP3   OH264599   5.557   1.445  17.043  0.6560 -0.4093 -0.1868
14395TIP3    H164600   5.489   1.383  17.070  1.0573 -0.8859 -0.2556
14395TIP3    H264601   5.517   1.531  17.055  0.6136 -0.6247  1.3459
14396TIP3   OH264602   4.269   3.321   3.141 -0.2831  0.2833 -0.0759
14396TIP3    H164603   4.195   3.297   3.086 -0.6290  0.5567  0.2658
14396TIP3    H264604   4.342   3.267   3.110 -0.8980 -0.7646  0.2893
14397TIP3   OH264605   4.715   4.882   0.217  0.1412  0.0925  0.0534
14397TIP3    H164606   4.672   4.965   0.195  1.4341  0.6696 -0.3656
14397TIP3    H264607   4.685   4.862   0.305  0.9166  1.7628  0.7259
14398TIP3   OH264608   2.119   6.011  12.745 -0.4117 -0.2478  0.6966
14398TIP3    H164609   2.073   5.994  12.827 -1.7045  2.4501  0.5911
14398TIP3    H264610   2.144   6.103  12.750 -0.9347  0.0970 -2.1172
14399TIP3   OH264611   6.040   2.364  13.774 -0.0617  0.4957 -0.0150
14399TIP3    H164612   6.066   2.337  13.863  0.0932  2.6262  0.6294
14399TIP3    H264613   5.966   2.308  13.752 -0.4418  0.3019  1.6950
14400TIP3   OH264614   5.420   6.472   2.130 -0.0998  0.3181 -0.2142
14400TIP3    H164615   5.465   6.491   2.212  1.9471  1.9776 -1.6628
14400TIP3    H264616   5.459   6.532   2.067 -2.7224  0.1408 -2.0748
14401TIP3   OH264617   6.298   3.438   0.355 -0.0882 -0.1860  0.2319
14401TIP3    H164618   6.236   3.441   0.281 -0.7053 -2.1328  0.6496
14401TIP3    H264619   6.296   3.347   0.384  0.9519  0.3395  1.9904
14402TIP3   OH264620   2.790   3.844  16.526  0.1212 -0.2643  0.0096
14402TIP3    H164621   2.747   3.917  16.570  0.2364 -0.8629  1.1151
14402TIP3    H264622   2.869   3.827  16.577  1.7771  0.9182 -2.1078
14403TIP3   OH264623   0.950   6.687   4.505 -0.1757  0.5723 -0.1618
14403TIP3    H164624   0.897   6.743   4.448 -1.0865 -0.2480 -0.1214
14403TIP3    H264625   0.901   6.682   4.586  1.1708  1.8243  0.7653
14404TIP3   OH264626   3.423   1.960  12.319 -0.3411  0.3351  0.5664
14404TIP3    H164627   3.336   1.949  12.279  0.0476 -0.2496 -0.1447
14404TIP3    H264628   3.406   2.001  12.404 -1.0200  3.6292 -1.0930
14405TIP3   OH264629   4.661   4.231   4.183  0.2367 -0.0708 -0.1347
14405TIP3    H164630   4.660   4.152   4.238  1.4939  0.7064  1.0362
14405TIP3    H264631   4.720   4.209   4.111 -0.8798 -0.8513 -0.8299
14406TIP3   OH264632   1.600   1.175   1.350 -0.4595  0.1880 -0.4456
14406TIP3    H164633   1.645   1.106   1.301 -2.0090 -1.1667 -0.0009
14406TIP3    H264634   1.659   1.195   1.422 -0.3115 -1.1772 -0.1687
14407TIP3   OH264635   2.539   5.206   3.908  0.0839  0.5088  0.0934
14407TIP3    H164636   2.489   5.248   3.979  0.6011  0.2684  0.6006
14407TIP3    H264637   2.479   5.140   3.873  0.1185  0.0719  0.8446
14408TIP3   OH264638   2.247   0.574  14.367  0.6524 -0.0841  0.0094
14408TIP3    H164639   2.223   0.582  14.275 -0.9855  0.6700  0.4956
14408TIP3    H264640   2.262   0.664  14.396  0.2107 -0.2399  0.7294
14409TIP3   OH264641   0.242   3.478   6.195 -0.8660  0.1785 -0.8442
14409TIP3    H164642   0.277   3.469   6.283  2.0991 -1.4060 -2.1136
14409TIP3    H264643   0.147   3.476   6.206 -0.5223 -0.5060  2.2473
14410TIP3   OH264644   0.862   1.304  14.575  0.3064  0.1387 -0.0087
14410TIP3    H164645   0.914   1.330  14.500  0.6599 -0.9729 -0.1523
14410TIP3    H264646   0.917   1.243  14.624  0.0397  0.7595  1.0908
14411TIP3   OH264647   3.600   2.127  14.604 -0.0533 -0.1281  0.0645
14411TIP3    H164648   3.537   2.131  14.676  0.8663  0.1038  0.8648
14411TIP3    H264649   3.602   2.035  14.580 -0.5463 -0.1696  0.1665
14412TIP3   OH264650   6.186   3.938  16.085 -0.2920 -0.3394 -0.3019
14412TIP3    H164651   6.120   3.932  16.154  1.3838 -0.5541  1.3200
14412TIP3    H264652   6.208   3.847  16.065  1.4068 -0.2628  1.0627
14413TIP3   OH264653   5.715   4.472   3.462 -0.4889 -0.0766 -0.3591
14413TIP3    H164654   5.660   4.470   3.540 -0.9334  1.1849 -0.6309
14413TIP3    H264655   5.755   4.385   3.459  4.6190  1.7498  4.8418
14414TIP3   OH264656   0.701   6.317   3.560 -0.6509 -0.0859 -0.5641
14414TIP3    H164657   0.744   6.239   3.595  0.9917  0.8703 -0.4060
14414TIP3    H264658   0.620   6.284   3.520 -0.9631 -1.6037  1.2381
14415TIP3   OH264659   3.678   4.944  17.095  0.2166 -0.0836  0.1405
14415TIP3    H164660   3.686   4.897  17.178  3.4056 -0.9194 -0.5718
14415TIP3    H264661   3.629   4.884  17.038 -1.8583  0.4383  1.3166
14416TIP3   OH264662   1.975   4.182   4.410  0.6341 -0.3471 -0.1903
14416TIP3    H164663   1.901   4.201   4.468  1.6178  2.5673  0.2008
14416TIP3    H264664   1.936   4.169   4.324 -0.3384  1.3825 -0.0249
14417TIP3   OH264665   1.488   0.153   4.228  0.2393  0.0500  0.0273
14417TIP3    H164666   1.511   0.195   4.145  0.6760  1.5448  0.8803
14417TIP3    H264667   1.558   0.091   4.244  0.6179  0.3976 -0.2747
14418TIP3   OH264668   6.015   0.123   2.582  0.2472 -0.0977 -0.0861
14418TIP3    H164669   6.025   0.096   2.673 -0.8120 -1.7494 -0.4446
14418TIP3    H264670   5.959   0.056   2.543  0.0974  0.9866 -1.7752
14419TIP3   OH264671   4.040   2.939   3.633 -0.7466  0.2690  0.7406
14419TIP3    H164672   3.976   2.912   3.699 -1.7178 -0.5876 -0.5198
14419TIP3    H264673   3.998   3.012   3.588  0.1480  1.2136  1.4154
14420TIP3   OH264674   1.601   4.335   1.959  0.1080 -0.0429 -0.7825
14420TIP3    H164675   1.530   4.338   2.023 -1.3969 -0.2942 -2.4435
14420TIP3    H264676   1.562   4.301   1.879  1.6865  1.4457 -2.2432
14421TIP3   OH264677   2.075   5.020   4.513  0.4958  0.2122 -0.6313
14421TIP3    H164678   2.165   4.987   4.515  0.0534 -0.9930 -0.1561
14421TIP3    H264679   2.021   4.941   4.510 -0.5569  0.9232 -0.4524
14422TIP3   OH264680   4.941   5.024   3.983  0.3228 -0.8652 -0.1652
14422TIP3    H164681   4.850   5.022   4.012  0.7811 -0.8367  1.2858
14422TIP3    H264682   4.969   5.114   4.001  0.6176 -0.8463 -0.7043
14423TIP3   OH264683   5.943   0.076  11.961 -0.1513  0.0671 -0.5173
14423TIP3    H164684   6.019   0.099  12.014 -0.2942  1.5538 -0.9308
14423TIP3    H264685   5.956  -0.016  11.938  0.8049 -0.0881  0.5975
14424TIP3   OH264686   1.211   1.249   1.006  0.5577  0.3825 -0.0692
14424TIP3    H164687   1.277   1.318   1.015 -0.2313  1.1823 -0.4325
14424TIP3    H264688   1.181   1.233   1.095 -0.1303  1.3662 -0.1178
14425TIP3   OH264689   2.251   6.642  14.589 -0.2215  0.5214 -0.0646
14425TIP3    H164690   2.294   6.616  14.670  0.5914  1.5016 -0.1741
14425TIP3    H264691   2.170   6.685  14.616 -1.4704 -1.8346  0.1330
14426TIP3   OH264692   6.641   5.593   5.122 -0.7369 -0.5027 -0.5175
14426TIP3    H164693   6.678   5.510   5.151 -0.6488 -0.2692  0.0462
14426TIP3    H264694   6.612   5.577   5.032 -0.0112 -0.9224 -0.6806
14427TIP3   OH264695   5.989   2.635   6.645 -0.2585  0.5610 -0.7252
14427TIP3    H164696   5.960   2.709   6.592 -0.1161  1.3788  0.3121
14427TIP3    H264697   6.068   2.667   6.690 -0.9370  0.2457  0.7411
14428TIP3   OH264698   5.355   5.628  13.722  0.3772 -0.4236 -0.2110
14428TIP3    H164699   5.280   5.668  13.767 -0.4765 -0.2839 -1.7266
14428TIP3    H264700   5.430   5.681  13.748 -0.3171  0.4805 -0.0416
14429TIP3   OH264701   5.803   1.921  10.999  1.4026  0.2658 -0.0701
14429TIP3    H164702   5.862   1.863  10.952 -0.0735 -1.5924  0.3195
14429TIP3    H264703   5.724   1.923  10.944  0.2092 -0.7667  1.5834
14430TIP3   OH264704   1.999   3.448   4.970  0.3464  0.5899 -0.2069
14430TIP3    H164705   2.057   3.424   5.042  0.9277 -0.6258 -1.0587
14430TIP3    H264706   1.911   3.443   5.007  0.5686 -1.2479  0.1069
14431TIP3   OH264707   6.003   4.771   3.825  0.5098 -0.3741 -0.3091
14431TIP3    H164708   5.980   4.725   3.907  0.0002 -2.2467 -1.4629
14431TIP3    H264709   5.921   4.809   3.795  0.6341  0.0507 -0.1119
14432TIP3   OH264710   2.624   3.899   3.011 -0.0810  0.2666 -0.1520
14432TIP3    H164711   2.573   3.878   3.089 -2.5219  0.8868 -1.5391
14432TIP3    H264712   2.607   3.992   2.996 -0.8828 -0.2043 -2.2901
14433TIP3   OH264713   1.632   1.884   2.174  0.2571 -0.5359 -0.0071
14433TIP3    H164714   1.658   1.976   2.180  2.5543 -1.1171 -0.5597
14433TIP3    H264715   1.537   1.885   2.189  0.5335  1.7028  2.0351
14434TIP3   OH264716   1.938   3.076   3.772 -0.4196  0.5383  0.0146
14434TIP3    H164717   1.876   3.094   3.843 -0.4065  1.9769 -0.3137
14434TIP3    H264718   1.886   3.091   3.692  0.3468  1.7920 -0.2627
14435TIP3   OH264719   3.078   6.571   5.707 -0.6099  0.2963  0.3873
14435TIP3    H164720   2.999   6.557   5.760  0.0767  1.4986  1.7582
14435TIP3    H264721   3.102   6.662   5.723  0.2261  0.3621 -1.1861
14436TIP3   OH264722   4.214   6.583   1.902 -0.4823 -0.1536 -0.3149
14436TIP3    H164723   4.228   6.489   1.916 -3.1276 -0.3808  1.2067
14436TIP3    H264724   4.300   6.622   1.914  0.3369 -2.1984  0.7598
14437TIP3   OH264725   3.003   1.220  13.112  0.4053  0.2471 -0.2014
14437TIP3    H164726   2.927   1.162  13.121 -0.3118  0.7608 -2.4871
14437TIP3    H264727   3.029   1.240  13.202 -0.9920 -1.4613  0.6142
14438TIP3   OH264728   1.314   3.242  12.094 -0.0602 -0.4469 -0.4197
14438TIP3    H164729   1.383   3.196  12.142  0.4780  0.2670 -0.4998
14438TIP3    H264730   1.238   3.184  12.099  0.8455 -1.7452 -1.2228
14439TIP3   OH264731   4.285   3.136  16.055  0.5784  0.4298 -0.3016
14439TIP3    H164732   4.265   3.200  16.122 -0.3932 -0.0404 -0.1383
14439TIP3    H264733   4.200   3.110  16.020  0.9736 -0.5868 -0.5318
14440TIP3   OH264734   4.212   6.427   5.516 -0.5891 -1.0487  0.0826
14440TIP3    H164735   4.180   6.367   5.448 -0.6247 -0.5525 -0.3397
14440TIP3    H264736   4.136   6.482   5.537 -0.5038 -1.0267  0.3328
14441TIP3   OH264737   2.207   4.731  12.392  0.1704  0.0206  0.1664
14441TIP3    H164738   2.153   4.810  12.398  0.0286 -0.1620  1.4252
14441TIP3    H264739   2.168   4.681  12.320  0.0686  0.9417 -0.4283
14442TIP3   OH264740   2.289   2.693  16.427 -0.0363  0.3381 -0.2139
14442TIP3    H164741   2.330   2.668  16.344  0.7304 -0.3525  0.3563
14442TIP3    H264742   2.199   2.714  16.404 -0.0253 -0.5446 -1.1218
14443TIP3   OH264743   0.466   2.353   5.121 -0.2039  0.6602  0.2362
14443TIP3    H164744   0.525   2.328   5.192  0.2838  0.6226 -0.1794
14443TIP3    H264745   0.438   2.269   5.083  1.0560  0.7155 -0.8525
14444TIP3   OH264746   6.061   3.970   4.105  0.0421  0.4597  0.3676
14444TIP3    H164747   6.109   3.952   4.185 -1.4459 -0.1676  1.1335
14444TIP3    H264748   6.097   4.053   4.074  1.3463  0.1858  1.1194
14445TIP3   OH264749   4.454   6.056   4.672  0.2107 -0.2803  0.2452
14445TIP3    H164750   4.425   6.012   4.751  1.3026 -0.8749  0.3302
14445TIP3    H264751   4.550   6.058   4.679  0.2135  1.7979  0.0897
14446TIP3   OH264752   4.907   2.317  14.070  0.1596  0.4871 -0.3032
14446TIP3    H164753   4.884   2.408  14.092 -2.7256 -0.4666  0.8311
14446TIP3    H264754   4.922   2.275  14.155 -0.5834 -0.5914 -0.6989
14447TIP3   OH264755   5.973   3.155  17.226  0.1169 -0.3027 -0.4811
14447TIP3    H164756   5.986   3.099  17.303  1.0739 -1.6556 -1.6063
14447TIP3    H264757   5.878   3.166  17.220  0.1153  2.2934  2.6196
14448TIP3   OH264758   5.563   6.047  12.338  0.3226 -0.1823  0.2664
14448TIP3    H164759   5.639   6.056  12.396  0.0962 -2.2975  0.9098
14448TIP3    H264760   5.579   6.112  12.269  1.8606  0.5818  1.3024
14449TIP3   OH264761   5.526   4.584   3.641 -0.4697 -0.4339  0.8122
14449TIP3    H164762   5.530   4.614   3.550 -1.6841 -1.9876  0.2304
14449TIP3    H264763   5.511   4.664   3.691 -0.5873  0.3407 -0.4164
14450TIP3   OH264764   0.409   5.148  11.894 -0.2325 -0.0014  0.1745
14450TIP3    H164765   0.327   5.106  11.866  2.6083 -4.0513 -2.5412
14450TIP3    H264766   0.441   5.193  11.816  2.0385 -1.7611  0.0458
14451TIP3   OH264767   0.165   6.590   5.558  0.0082  0.1759 -0.0249
14451TIP3    H164768   0.144   6.648   5.631  1.9318  0.3568  0.4079
14451TIP3    H264769   0.135   6.504   5.587 -4.3159  1.1206 -1.3092
14452TIP3   OH264770   1.677   2.140  14.715  0.2520 -0.1105 -0.2265
14452TIP3    H164771   1.646   2.113  14.801  0.6051  0.2497  0.0152
14452TIP3    H264772   1.771   2.152  14.726 -0.2229  3.4991  0.2648
14453TIP3   OH264773   6.088   2.260  11.069 -0.4293  0.1791 -0.7082
14453TIP3    H164774   6.101   2.224  10.982  2.0958 -0.1259 -0.2456
14453TIP3    H264775   6.176   2.282  11.099 -1.3414  1.0122  1.4524
14454TIP3   OH264776   1.390   2.741   1.518  0.0949 -0.1706  0.2066
14454TIP3    H164777   1.428   2.710   1.600 -0.8625 -0.8831  0.3812
14454TIP3    H264778   1.426   2.829   1.507 -1.2726  0.6947  2.3667
14455TIP3   OH264779   2.896   5.452  16.655 -0.9751  0.3772  0.4902
14455TIP3    H164780   2.836   5.412  16.718 -2.1135  0.6155 -0.4206
14455TIP3    H264781   2.839   5.490  16.588  0.1906  0.7363 -0.3262
14456TIP3   OH264782   5.982   4.975  12.602  0.2729  0.3255  0.6321
14456TIP3    H164783   5.904   4.976  12.657  0.1883 -0.8710  0.5386
14456TIP3    H264784   6.054   4.959  12.664  0.2118 -0.7071  0.4429
14457TIP3   OH264785   4.934   3.454   4.310 -0.9265  0.5303  0.1237
14457TIP3    H164786   4.917   3.547   4.326 -0.3748  0.3376  1.9701
14457TIP3    H264787   4.900   3.410   4.388 -0.6607 -0.7629 -0.4796
14458TIP3   OH264788   4.419   1.576   1.741  0.5003 -0.3181 -0.2374
14458TIP3    H164789   4.416   1.489   1.703  1.1187  0.1265 -1.3361
14458TIP3    H264790   4.376   1.632   1.676 -0.5229  0.0890  0.7748
14459TIP3   OH264791   1.464   0.895  11.803 -0.3976 -0.3550  0.0276
14459TIP3    H164792   1.466   0.912  11.898 -2.4340 -1.0587  0.2093
14459TIP3    H264793   1.373   0.906  11.778  0.2631  0.7121 -2.0464
14460TIP3   OH264794   6.633   5.761  13.492 -0.2212  0.3236 -0.0932
14460TIP3    H164795   6.599   5.710  13.565  0.7047  0.1477  0.2140
14460TIP3    H264796   6.726   5.740  13.489 -0.5755 -1.0809 -2.4560
14461TIP3   OH264797   6.236   1.934   5.000 -0.7285 -0.0126 -0.3339
14461TIP3    H164798   6.185   1.902   5.075 -1.6575  0.6671 -0.6757
14461TIP3    H264799   6.321   1.891   5.010 -1.2027 -0.7890  0.5028
14462TIP3   OH264800   0.417   5.994  15.029  0.0668 -0.0961  0.4797
14462TIP3    H164801   0.427   5.924  15.094 -0.8349 -1.8884 -1.2398
14462TIP3    H264802   0.487   5.978  14.966 -0.0532  0.6551  0.1497
14463TIP3   OH264803   1.389   5.226  16.383  0.4232 -0.7635  0.2505
14463TIP3    H164804   1.482   5.220  16.402  0.8447  0.4738 -1.3895
14463TIP3    H264805   1.364   5.137  16.358  0.9786 -1.2578  1.3904
14464TIP3   OH264806   6.174   1.165   2.407  0.3147  0.6320 -0.0892
14464TIP3    H164807   6.100   1.115   2.373  0.7679 -1.2073  1.5673
14464TIP3    H264808   6.242   1.155   2.340  0.5919 -1.4968  0.4517
14465TIP3   OH264809   0.885   4.953   2.899  0.0668  0.0082 -0.3837
14465TIP3    H164810   0.847   4.895   2.834 -1.2598 -0.3990  0.7178
14465TIP3    H264811   0.927   4.895   2.962  0.9630  0.3721 -0.6431
14466TIP3   OH264812   6.745   3.926   2.929 -0.2501 -0.1451 -0.1957
14466TIP3    H164813   6.802   4.001   2.946 -0.0061 -0.2227 -0.6823
14466TIP3    H264814   6.719   3.896   3.016 -0.7920  0.8448 -0.0093
14467TIP3   OH264815   0.050   0.690  11.956 -0.0317  0.6542  0.4421
14467TIP3    H164816   0.018   0.744  12.028  0.8457  0.8547  0.6814
14467TIP3    H264817   0.139   0.721  11.940 -0.2402  0.6685 -0.7760
14468TIP3   OH264818   1.030   0.078  15.267 -0.0405 -0.1072 -0.3256
14468TIP3    H164819   1.032   0.172  15.281  2.5297 -0.3512  1.3734
14468TIP3    H264820   1.081   0.064  15.187  0.7231 -0.1600  0.1694
14469TIP3   OH264821   3.931   1.916   4.875  0.2884 -0.2973 -0.2830
14469TIP3    H164822   4.000   1.903   4.940  0.5011 -0.8287 -0.6134
14469TIP3    H264823   3.853   1.878   4.916 -0.3037  2.0837  0.9420
14470TIP3   OH264824   1.688   5.814  13.171 -1.0101  0.1061  0.2966
14470TIP3    H164825   1.673   5.783  13.260  0.3120 -1.7273 -0.0937
14470TIP3    H264826   1.615   5.780  13.120  1.0660 -3.5576 -0.3797
14471TIP3   OH264827   4.137   4.531  12.231 -0.7496 -0.1722  0.3291
14471TIP3    H164828   4.124   4.596  12.300 -0.5421 -0.0009  0.2050
14471TIP3    H264829   4.228   4.543  12.203 -0.1641 -1.6540  1.5100
14472TIP3   OH264830   0.460   6.351  15.274 -0.1533  0.5000 -0.0879
14472TIP3    H164831   0.555   6.349  15.262 -0.3969  1.4549 -2.5062
14472TIP3    H264832   0.424   6.320  15.191 -1.9824  1.9019  0.1282
14473TIP3   OH264833   1.637   0.782  14.112  0.2667  0.3128 -0.6662
14473TIP3    H164834   1.707   0.789  14.177 -0.3129  1.1902 -0.1386
14473TIP3    H264835   1.684   0.777  14.028  1.0219 -1.0239 -0.1840
14474TIP3   OH264836   6.224   1.152  12.296  0.7414 -0.5779 -0.5213
14474TIP3    H164837   6.191   1.230  12.341  0.7144  0.6037 -2.4739
14474TIP3    H264838   6.164   1.082  12.320 -1.3316  0.8099 -1.4426
14475TIP3   OH264839   3.544   1.618  13.821 -0.0790  0.5677 -0.2122
14475TIP3    H164840   3.504   1.701  13.799  1.1669  1.4826  0.8547
14475TIP3    H264841   3.596   1.595  13.744 -0.4403  0.7744 -0.5149
14476TIP3   OH264842   3.638   2.909  16.309 -0.6323  0.3282 -0.1027
14476TIP3    H164843   3.703   2.915  16.239  2.7005  0.0086  2.8450
14476TIP3    H264844   3.594   2.994  16.308 -0.2719  0.5175 -2.2029
14477TIP3   OH264845   3.863   3.928   0.655 -0.3794 -0.1822  0.1326
14477TIP3    H164846   3.898   4.012   0.683  0.2145  0.0943 -1.4600
14477TIP3    H264847   3.938   3.869   0.655 -0.6570 -0.5437  0.5155
14478TIP3   OH264848   0.438   0.269  11.822  0.4516 -0.1457 -1.0378
14478TIP3    H164849   0.370   0.332  11.798  0.3267 -0.1278 -0.6454
14478TIP3    H264850   0.518   0.321  11.825 -0.2010  0.7865  2.8123
14479TIP3   OH264851   0.815   2.533   1.575 -0.2695  0.2688  0.2118
14479TIP3    H164852   0.896   2.494   1.608 -1.5237  0.0698  3.1560
14479TIP3    H264853   0.827   2.627   1.587  0.0720  0.3400 -0.6568
14480TIP3   OH264854   3.867   0.743   5.346 -0.5254 -0.0245 -0.1181
14480TIP3    H164855   3.916   0.690   5.283 -1.3675  1.9093 -2.4791
14480TIP3    H264856   3.934   0.795   5.391  0.0337 -1.0392  0.2450
14481TIP3   OH264857   2.332   5.984   1.061  0.2099  0.4604  0.2801
14481TIP3    H164858   2.282   6.066   1.050 -0.4618  0.3522  2.3665
14481TIP3    H264859   2.311   5.955   1.150 -0.3114 -2.5051 -0.7588
14482TIP3   OH264860   3.744   4.704  11.532 -0.5271 -0.1235  0.4087
14482TIP3    H164861   3.750   4.622  11.582  0.4135 -0.6547 -0.5449
14482TIP3    H264862   3.732   4.676  11.442 -1.8553  0.8283  0.2692
14483TIP3   OH264863   5.707   4.690  12.858 -0.1088 -0.2761 -0.0925
14483TIP3    H164864   5.619   4.702  12.892 -0.4703  0.9594 -1.4097
14483TIP3    H264865   5.751   4.636  12.923 -2.0722 -1.5626  0.2075
14484TIP3   OH264866   2.663   1.117   5.418  0.1498  0.1207 -0.0310
14484TIP3    H164867   2.666   1.100   5.512 -0.0564 -0.7756 -0.1865
14484TIP3    H264868   2.728   1.057   5.380 -0.4139 -0.1579 -0.5602
14485TIP3   OH264869   1.489   4.304  13.354 -0.5792  0.4706  0.4119
14485TIP3    H164870   1.498   4.369  13.284 -0.0271 -0.2777 -0.2297
14485TIP3    H264871   1.402   4.319  13.390 -1.6429 -0.3680 -1.7155
14486TIP3   OH264872   5.867   3.074  14.261 -0.2166 -0.0286  0.3637
14486TIP3    H164873   5.825   3.141  14.207 -0.8642  0.0176  0.9261
14486TIP3    H264874   5.900   3.121  14.337  0.6184 -0.1106  0.0579
14487TIP3   OH264875   1.078   4.389  12.671  0.4251 -0.0581 -0.4226
14487TIP3    H164876   1.047   4.477  12.649  1.4927  0.3740 -0.2463
14487TIP3    H264877   1.107   4.352  12.587 -2.8043 -1.4077 -1.0195
14488TIP3   OH264878   4.056   0.503  11.530 -0.0354 -0.2615 -0.1227
14488TIP3    H164879   4.084   0.510  11.621 -0.0418 -0.6253 -0.0929
14488TIP3    H264880   4.134   0.473  11.483  0.7225  2.4304 -0.6647
14489TIP3   OH264881   0.151   4.171   2.577 -0.0208  0.0557 -0.7605
14489TIP3    H164882   0.214   4.236   2.609 -1.0031  0.2764  0.8113
14489TIP3    H264883   0.195   4.087   2.592  1.0401  0.3074 -2.3158
14490TIP3   OH264884   5.530   3.177   0.949  0.3596 -0.3131  0.0868
14490TIP3    H164885   5.473   3.114   0.992  0.7770 -0.9494 -0.2978
14490TIP3    H264886   5.492   3.189   0.862 -0.3498  0.8012  0.5338
14491TIP3   OH264887   5.534   0.593   2.374  0.2548 -0.1930  0.6009
14491TIP3    H164888   5.514   0.553   2.290  0.6998  0.8124  0.0159
14491TIP3    H264889   5.581   0.525   2.422 -0.9845 -1.1626  0.4766
14492TIP3   OH264890   2.714   0.621   2.864 -0.2976 -0.1413  0.0061
14492TIP3    H164891   2.661   0.580   2.931 -1.1317 -0.2117 -0.6887
14492TIP3    H264892   2.685   0.581   2.782 -0.0794  0.7516 -0.5204
14493TIP3   OH264893   6.756   4.650  12.113  0.0277  0.6674  0.2960
14493TIP3    H164894   6.726   4.580  12.056 -2.4460  1.6215  0.3460
14493TIP3    H264895   6.807   4.708  12.056  0.8344 -0.3904 -0.0648
14494TIP3   OH264896   6.748   2.155   4.120 -0.6217 -0.4390  0.4101
14494TIP3    H164897   6.827   2.209   4.120 -0.5676 -0.5229 -0.5453
14494TIP3    H264898   6.682   2.208   4.076 -1.1662 -0.2876  1.3797
14495TIP3   OH264899   2.636   3.569  17.229 -0.2529  0.2639 -0.6679
14495TIP3    H164900   2.621   3.659  17.256 -0.2934 -0.2048  0.8848
14495TIP3    H264901   2.619   3.570  17.134  0.9816  2.1344 -0.8984
14496TIP3   OH264902   2.765   0.651  17.088  0.4337  0.0772 -0.1553
14496TIP3    H164903   2.818   0.731  17.081  0.7569 -0.1131  0.1452
14496TIP3    H264904   2.781   0.605  17.006  1.4129 -0.4038  0.3016
14497TIP3   OH264905   4.570   0.609  17.119  0.0897  0.3969  0.2125
14497TIP3    H164906   4.557   0.628  17.212  0.4643  1.8697 -0.0201
14497TIP3    H264907   4.505   0.543  17.098 -0.5855  0.7075  1.3148
14498TIP3   OH264908   3.720   1.945  15.953 -0.4077 -0.3133  0.0805
14498TIP3    H164909   3.718   2.006  16.027 -0.0940 -1.1395  0.7798
14498TIP3    H264910   3.657   1.981  15.891 -2.2473 -0.7334  1.6435
14499TIP3   OH264911   5.453   5.143   1.234  0.7313 -0.3873  0.5891
14499TIP3    H164912   5.440   5.230   1.194 -2.0896  0.4904  3.1865
14499TIP3    H264913   5.505   5.160   1.312 -0.8120 -0.8338  1.7325
14500TIP3   OH264914   2.737   4.213  15.555 -0.3329 -0.5391 -0.3348
14500TIP3    H164915   2.648   4.178  15.553 -0.3308 -0.5325 -0.5758
14500TIP3    H264916   2.734   4.281  15.622 -0.2633 -1.1855  0.3321
14501TIP3   OH264917   6.370   2.824  12.673  0.4850  0.0919 -0.2149
14501TIP3    H164918   6.400   2.882  12.603  0.2553 -1.3298 -1.5311
14501TIP3    H264919   6.302   2.874  12.718  1.6446  1.5782 -0.0865
14502TIP3   OH264920   2.689   3.025  13.605  0.2192 -0.7518  0.0861
14502TIP3    H164921   2.664   3.031  13.513 -0.9076 -1.1331  0.3572
14502TIP3    H264922   2.725   2.937  13.614  2.6544  0.1366 -0.5275
14503TIP3   OH264923   5.338   6.142  11.568  0.2400 -0.3408  0.2975
14503TIP3    H164924   5.309   6.051  11.568  0.2042 -0.3344 -0.4220
14503TIP3    H264925   5.420   6.142  11.618 -0.3231 -0.5810  1.2278
14504TIP3   OH264926   0.322   2.331  12.123 -0.3123 -0.0540 -0.1612
14504TIP3    H164927   0.237   2.299  12.092  0.3330 -0.2148 -1.8001
14504TIP3    H264928   0.380   2.256  12.114  0.5247  0.6998 -1.2388
14505TIP3   OH264929   5.139   6.596  16.878  0.2114 -0.6139 -0.3699
14505TIP3    H164930   5.221   6.557  16.907  0.2920 -0.8196 -0.8801
14505TIP3    H264931   5.164   6.680  16.840 -0.0445  0.3508  1.4967
14506TIP3   OH264932   1.698   5.622  16.820  0.5866 -0.9959  0.2441
14506TIP3    H164933   1.636   5.550  16.819 -0.3176 -0.2150 -0.4715
14506TIP3    H264934   1.698   5.653  16.911  0.1035 -1.1404  0.2913
14507TIP3   OH264935   3.622   3.134  13.150 -0.3029  0.3583 -0.3409
14507TIP3    H164936   3.705   3.115  13.107 -0.2116 -0.4821  0.1935
14507TIP3    H264937   3.637   3.219  13.193  1.3155 -1.1601  2.2652
14508TIP3   OH264938   3.236   1.958   0.854 -0.3311 -0.4062  0.5408
14508TIP3    H164939   3.232   2.021   0.926  2.1308  1.3262 -0.7861
14508TIP3    H264940   3.323   1.919   0.860 -0.5339 -1.1083 -0.7846
14509TIP3   OH264941   2.674   3.476   4.793  0.3352  0.6718 -0.0692
14509TIP3    H164942   2.714   3.396   4.758  0.8716  1.4773 -1.3157
14509TIP3    H264943   2.648   3.452   4.883 -2.5261 -1.9631 -1.4627
14510TIP3   OH264944   2.990   1.195   0.876  0.1117 -0.5932 -0.0094
14510TIP3    H164945   2.974   1.126   0.812  0.2649  0.4355 -1.1728
14510TIP3    H264946   3.079   1.178   0.907  0.5683 -0.2679 -1.1199
14511TIP3   OH264947   6.004   1.115  15.011  0.0236  0.2859 -0.6045
14511TIP3    H164948   6.095   1.085  15.008 -0.9701 -2.9490 -0.6495
14511TIP3    H264949   5.959   1.063  14.944 -2.1215  0.8620  0.3275
14512TIP3   OH264950   2.036   5.498   3.369 -0.3552  0.3494  0.8471
14512TIP3    H164951   2.120   5.531   3.338  0.1133  0.7810  2.5493
14512TIP3    H264952   2.056   5.453   3.451 -1.4231 -1.6733  0.0514
14513TIP3   OH264953   5.402   1.377   1.912  0.5559 -0.0973  0.6451
14513TIP3    H164954   5.308   1.389   1.923  0.7399  1.1238  0.9501
14513TIP3    H264955   5.419   1.288   1.943 -0.3619 -0.0159  1.4002
14514TIP3   OH264956   4.595   6.780   5.900  0.8544  0.4311 -0.0990
14514TIP3    H164957   4.539   6.817   5.968  0.0329 -2.3094  0.7951
14514TIP3    H264958   4.557   6.812   5.818  0.9632  2.5633  0.6582
14515TIP3   OH264959   1.798   0.405   0.680 -0.0928  0.2206 -0.0849
14515TIP3    H164960   1.765   0.370   0.598 -1.2319 -0.1663  0.5262
14515TIP3    H264961   1.808   0.328   0.737  1.6765  0.3523 -0.1835
14516TIP3   OH264962   5.980   4.348   0.510 -0.1355  0.0175 -0.0277
14516TIP3    H164963   5.897   4.328   0.466  0.5152 -0.8150 -0.9070
14516TIP3    H264964   6.045   4.346   0.440  0.8086 -0.5626  0.8478
14517TIP3   OH264965   0.960   0.554  16.379 -0.1713 -0.2318  0.0974
14517TIP3    H164966   1.054   0.565  16.363 -0.3557  0.4965 -0.5194
14517TIP3    H264967   0.946   0.460  16.378  0.0990 -0.2886 -2.5188
14518TIP3   OH264968   6.630   0.856  16.901 -0.0264  0.2935 -0.1053
14518TIP3    H164969   6.650   0.814  16.818 -1.8790  0.8599 -0.8512
14518TIP3    H264970   6.611   0.784  16.961  0.5854 -0.0730 -0.3431
14519TIP3   OH264971   2.416   3.348   1.499 -0.1153  0.6076 -0.1800
14519TIP3    H164972   2.406   3.255   1.520  1.5096 -0.0589 -2.1076
14519TIP3    H264973   2.508   3.367   1.521 -0.6658  1.9823  0.9815
14520TIP3   OH264974   3.596   0.354   3.471  0.3243  0.1075 -0.4751
14520TIP3    H164975   3.513   0.356   3.423  0.2204  0.5462 -0.2819
14520TIP3    H264976   3.641   0.275   3.439 -0.1543 -0.1157 -0.6001
14521TIP3   OH264977   1.032   2.601   6.557 -0.1754 -0.5466  0.2168
14521TIP3    H164978   1.078   2.523   6.525 -0.0505  0.5822 -2.5436
14521TIP3    H264979   0.984   2.571   6.634  0.4313 -3.1759 -0.3746
14522TIP3   OH264980   3.352   0.370   5.176 -0.3746 -0.1059  0.5748
14522TIP3    H164981   3.258   0.375   5.193 -0.6722 -0.5732 -0.9037
14522TIP3    H264982   3.373   0.453   5.134  0.1579  0.6010  2.2181
14523TIP3   OH264983   2.094   4.945  14.701 -0.4289  0.4016 -0.2341
14523TIP3    H164984   2.027   4.888  14.662  1.1902 -1.4030 -0.4446
14523TIP3    H264985   2.083   4.934  14.796 -1.1485  0.9837 -0.2435
14524TIP3   OH264986   2.388   6.250   5.733  0.2428 -0.3238  1.0179
14524TIP3    H164987   2.322   6.203   5.682  0.8274  0.5541 -0.5818
14524TIP3    H264988   2.357   6.340   5.736  1.7419  0.2813 -0.4631
14525TIP3   OH264989   3.951   2.148  13.833 -0.2487  0.2118 -0.1253
14525TIP3    H164990   3.944   2.201  13.912 -0.2906 -0.0496  0.0468
14525TIP3    H264991   4.025   2.090  13.850  0.5934  1.0665 -0.8164
14526TIP3   OH264992   0.777   5.208   4.204 -0.5182  0.4583  0.2858
14526TIP3    H164993   0.699   5.156   4.221  0.3490 -0.1231  2.5599
14526TIP3    H264994   0.781   5.213   4.108 -2.8500 -0.2164  0.1092
14527TIP3   OH264995   3.492   3.271  17.194 -0.7440 -0.0748  0.0277
14527TIP3    H164996   3.462   3.362  17.194 -1.1551 -0.2093  0.0929
14527TIP3    H264997   3.492   3.246  17.102 -1.1673 -0.1833  0.0572
14528TIP3   OH264998   6.371   5.159  15.500  0.5473 -0.5906  0.0137
14528TIP3    H164999   6.311   5.156  15.574 -1.3633  3.6308 -1.2253
14528TIP3    H265000   6.321   5.122  15.427  1.1197 -1.3851  0.0241
14529TIP3   OH265001   0.272   4.395  11.651 -0.1993  0.2460  0.0730
14529TIP3    H165002   0.212   4.464  11.682 -1.2633  0.0415 -1.5034
14529TIP3    H265003   0.344   4.396  11.715  0.0249  3.1178 -0.1516
14530TIP3   OH265004   4.435   0.626  12.390  0.4528  0.9142 -0.7375
14530TIP3    H165005   4.489   0.598  12.464  1.1600 -0.1386 -1.6344
14530TIP3    H265006   4.349   0.644  12.428  1.2749  2.0703  0.6230
14531TIP3   OH265007   0.150   1.183   2.759 -0.7133 -0.5014 -0.2522
14531TIP3    H165008   0.055   1.176   2.749 -0.6112 -2.0475 -0.2552
14531TIP3    H265009   0.184   1.106   2.713  0.4758 -0.5526  0.7039
14532TIP3   OH265010   6.131   4.134  16.521 -0.0666  0.4421  0.3405
14532TIP3    H165011   6.071   4.207  16.533 -1.4223 -0.5417 -0.3898
14532TIP3    H265012   6.076   4.057  16.521  1.1671 -0.4684 -0.5155
14533TIP3   OH265013   5.978   1.520   2.080 -0.0330  1.0094 -0.2249
14533TIP3    H165014   5.955   1.611   2.064 -2.9943  0.1894 -0.9500
14533TIP3    H265015   5.896   1.479   2.108  0.9193 -1.7056 -1.2287
14534TIP3   OH265016   5.564   6.530  13.717 -0.8654 -0.1828  0.4725
14534TIP3    H165017   5.658   6.546  13.708 -0.9436  0.6866  1.1873
14534TIP3    H265018   5.556   6.476  13.795 -0.9461 -0.4243  0.2981
14535TIP3   OH265019   4.240   1.305  17.078 -0.4089 -0.6173  0.1033
14535TIP3    H165020   4.335   1.299  17.087 -0.5802 -0.3701  2.2329
14535TIP3    H265021   4.215   1.223  17.036  0.5643 -1.4090  1.0377
14536TIP3   OH265022   1.503   2.375  10.107  0.3074 -0.3029 -0.3055
14536TIP3    H165023   1.416   2.362  10.145  0.4831 -0.2836  0.1025
14536TIP3    H265024   1.563   2.372  10.182  0.5169  1.1489 -0.4127
14537TIP3   OH265025   5.368   6.295  13.050  0.5589  0.3003  0.0653
14537TIP3    H165026   5.285   6.290  13.096  0.1110 -0.2592 -0.7864
14537TIP3    H265027   5.428   6.242  13.103 -0.2150 -1.2206 -0.5406
14538TIP3   OH265028   4.512   3.441  12.749 -0.0460 -0.2420 -0.3097
14538TIP3    H165029   4.512   3.348  12.773  0.3404 -0.1634  0.0050
14538TIP3    H265030   4.453   3.447  12.674  0.0494 -0.7654 -0.4251
14539TIP3   OH265031   0.599   1.819   3.009 -0.1217  0.4102 -0.1914
14539TIP3    H165032   0.524   1.763   3.028  0.1216  1.1038  3.1290
14539TIP3    H265033   0.670   1.758   2.990 -1.1403 -0.2654 -1.9625
14540TIP3   OH265034   2.161   0.533  12.600 -0.3052 -0.4032  0.0294
14540TIP3    H165035   2.200   0.477  12.533  0.5730  0.8739 -0.5611
14540TIP3    H265036   2.107   0.595  12.551 -0.7870 -0.3473  0.6224
14541TIP3   OH265037   0.415   5.024   6.842 -0.0822  0.5463 -0.8404
14541TIP3    H165038   0.322   5.045   6.835  0.2115  1.4445 -2.1679
14541TIP3    H265039   0.441   5.001   6.753  0.8618 -0.1780 -0.3876
14542TIP3   OH265040   6.505   0.082   1.099  0.3311 -0.0162  0.2023
14542TIP3    H165041   6.550   0.140   1.161  1.0492  0.1482 -0.4614
14542TIP3    H265042   6.563   0.079   1.023 -0.0415 -1.0507 -0.0486
14543TIP3   OH265043   3.416   4.063   3.741 -0.2590  0.2904  0.9587
14543TIP3    H165044   3.433   3.982   3.693  0.9456  1.2925 -0.3525
14543TIP3    H265045   3.378   4.122   3.676  0.8038  1.4544  1.3682
14544TIP3   OH265046   6.157   5.516  12.377 -0.2891 -0.0431  0.6945
14544TIP3    H165047   6.231   5.485  12.325 -0.1557 -0.1566  0.9466
14544TIP3    H265048   6.152   5.454  12.450 -0.3871  0.1914  0.8876
14545TIP3   OH265049   0.854   3.540   3.142 -0.4085 -0.1844 -0.2873
14545TIP3    H165050   0.915   3.499   3.204 -1.1444  2.2380  2.1377
14545TIP3    H265051   0.768   3.522   3.180 -0.9871 -0.1314 -1.5620
14546TIP3   OH265052   5.554   5.185  15.115 -0.4784  0.1381 -0.4263
14546TIP3    H165053   5.603   5.235  15.050 -0.3263  1.0803  0.3889
14546TIP3    H265054   5.463   5.212  15.103 -0.0380  3.0702  2.0692
14547TIP3   OH265055   4.365   3.250  16.493  0.1590  0.2105 -0.1632
14547TIP3    H165056   4.386   3.160  16.519 -3.2743 -0.3971  0.7349
14547TIP3    H265057   4.440   3.302  16.522  1.8670 -2.2593 -0.0748
14548TIP3   OH265058   4.046   2.558   3.273 -0.3061 -0.1320 -0.2866
14548TIP3    H165059   4.023   2.648   3.296  0.6582  0.5946 -2.0615
14548TIP3    H265060   3.969   2.524   3.227  0.2050  0.5722 -1.6755
14549TIP3   OH265061   0.585   5.200   6.528 -0.2591  0.0209 -0.5744
14549TIP3    H165062   0.493   5.222   6.544  0.0299  0.6170  0.2949
14549TIP3    H265063   0.582   5.111   6.494 -1.4225  1.2300 -3.8409
14550TIP3   OH265064   4.490   3.151  13.325  0.0395  0.1713 -0.1106
14550TIP3    H165065   4.558   3.211  13.293 -1.0739  1.2791 -0.4337
14550TIP3    H265066   4.496   3.156  13.420  2.1851 -1.7847 -0.0912
14551TIP3   OH265067   4.794   4.808   3.523  0.0459 -0.9323  0.2145
14551TIP3    H165068   4.839   4.864   3.586  0.9726 -0.4356 -0.8706
14551TIP3    H265069   4.784   4.724   3.568  1.0097 -0.6881  0.8934
14552TIP3   OH265070   2.067   2.572   5.931 -0.3742  0.1778  0.2846
14552TIP3    H165071   1.993   2.537   5.980 -0.0117  0.0629  0.7615
14552TIP3    H265072   2.061   2.667   5.944  0.0520  0.1067  1.0433
14553TIP3   OH265073   2.588   4.046   3.394 -0.3543  0.2727 -0.0377
14553TIP3    H165074   2.679   4.071   3.378 -0.3929  0.2274 -0.3416
14553TIP3    H265075   2.576   4.057   3.488  0.7113 -2.1924  0.4300
14554TIP3   OH265076   4.347   4.749   0.439  0.2213  0.2079  0.7166
14554TIP3    H165077   4.405   4.725   0.367  0.1290 -0.7786  0.9543
14554TIP3    H265078   4.367   4.841   0.457 -0.3226  0.6999 -1.0927
14555TIP3   OH265079   4.871   6.732   1.109 -0.2883  0.0747  0.3607
14555TIP3    H165080   4.854   6.660   1.170  0.7007  0.3268  0.9307
14555TIP3    H265081   4.921   6.692   1.038  0.2307  0.1963  0.6600
14556TIP3   OH265082   0.965   2.057  14.644 -0.1585  0.2075 -0.1327
14556TIP3    H165083   1.018   2.004  14.584  0.6502  0.7143  0.1321
14556TIP3    H265084   0.987   2.023  14.731 -0.2963  0.3971 -0.0251
14557TIP3   OH265085   1.857   6.376  17.002  0.3003 -0.1393 -0.5156
14557TIP3    H165086   1.837   6.364  17.095 -1.1951  2.8294 -0.3822
14557TIP3    H265087   1.771   6.392  16.962  0.9549 -1.2956 -2.3966
14558TIP3   OH265088   6.554   4.768   4.915 -0.2694 -0.1565  0.2232
14558TIP3    H165089   6.575   4.833   4.982  0.8772  1.0985 -1.3192
14558TIP3    H265090   6.639   4.742   4.879 -0.8114 -1.4897 -0.1267
14559TIP3   OH265091   6.757   6.654  13.396  0.0813  0.2130 -0.2181
14559TIP3    H165092   6.697   6.636  13.468 -0.7443 -0.4419 -1.0607
14559TIP3    H265093   6.763   6.571  13.349  1.6110  0.2850 -0.1786
14560TIP3   OH265094   5.994   3.897  13.279 -0.1216  0.0369  0.2136
14560TIP3    H165095   6.037   3.981  13.265  0.7840 -0.3416  0.6693
14560TIP3    H265096   6.066   3.836  13.299 -0.9623 -0.3812  2.0517
14561TIP3   OH265097   0.335   5.140   3.979 -0.4156 -0.2888  0.1928
14561TIP3    H165098   0.304   5.097   3.899 -0.8770 -1.8620  1.2011
14561TIP3    H265099   0.260   5.138   4.038 -0.4594  1.9706  0.2576
14562TIP3   OH265100   5.439   5.858  15.412  0.9399 -0.5282  0.4537
14562TIP3    H165101   5.354   5.840  15.374  0.5713  0.8083  0.6153
14562TIP3    H265102   5.502   5.821  15.350  0.2477 -1.5910  0.3817
14563TIP3   OH265103   3.597   5.585  16.505  0.3758 -0.3342 -0.1271
14563TIP3    H165104   3.616   5.603  16.413 -3.2677  1.9138 -0.5273
14563TIP3    H265105   3.632   5.660  16.552 -1.3084  0.4760 -0.1429
14564TIP3   OH265106   4.257   2.465  16.262 -0.2545  0.1005 -0.4415
14564TIP3    H165107   4.197   2.535  16.284 -2.3210 -1.5793 -0.5563
14564TIP3    H265108   4.271   2.474  16.168 -1.0166 -0.0135 -0.5702
14565TIP3   OH265109   1.564   1.690   0.198  0.0183  0.0342  0.1228
14565TIP3    H165110   1.558   1.642   0.116 -0.0458 -0.6863  0.5520
14565TIP3    H265111   1.648   1.664   0.235 -0.1184  0.0821  0.4650
14566TIP3   OH265112   4.211   3.328   1.624 -0.0712  0.4038  0.2562
14566TIP3    H165113   4.215   3.245   1.672 -2.5406  0.5039  0.7021
14566TIP3    H265114   4.210   3.395   1.692  2.5703  0.8978 -0.1112
14567TIP3   OH265115   4.045   4.569  14.176 -0.2876 -0.2717  0.5524
14567TIP3    H165116   4.022   4.600  14.089 -1.3353 -1.2949  0.4543
14567TIP3    H265117   4.065   4.476  14.164  3.5201  0.4178  0.6947
14568TIP3   OH265118   6.660   4.840  12.631  0.0652 -0.2549  0.2744
14568TIP3    H165119   6.690   4.863  12.543  0.0678  0.1738  0.3883
14568TIP3    H265120   6.660   4.744  12.632  0.2449 -0.2585 -0.1309
14569TIP3   OH265121   3.832   0.130  13.286  0.1844  0.3853 -0.1010
14569TIP3    H165122   3.857   0.163  13.372  0.4673 -1.2820  0.4663
14569TIP3    H265123   3.805   0.040  13.302 -0.0518  0.1611 -1.7130
14570TIP3   OH265124   1.526   4.052   3.579  0.2144  0.2157  0.3956
14570TIP3    H165125   1.521   4.136   3.532 -0.3834 -0.6222 -1.0644
14570TIP3    H265126   1.613   4.019   3.559  1.3826  1.6063  2.9617
14571TIP3   OH265127   2.818   4.947   0.197 -0.2770  0.0681  0.1118
14571TIP3    H165128   2.893   4.991   0.156 -1.0497  0.2005 -1.2191
14571TIP3    H265129   2.785   4.889   0.129 -1.9255  0.6788  0.3589
14572TIP3   OH265130   5.501   4.268   3.438  0.1053 -0.2800  0.1716
14572TIP3    H165131   5.504   4.302   3.349  0.9936  0.9550  0.6661
14572TIP3    H265132   5.560   4.192   3.436 -1.5132 -1.5488 -0.8082
14573TIP3   OH265133   0.948   2.842   3.349  0.1386  0.4248 -0.5204
14573TIP3    H165134   0.939   2.800   3.264  0.5904  0.2609 -0.4889
14573TIP3    H265135   0.965   2.769   3.410 -2.6320  0.2460  0.1231
14574TIP3   OH265136   5.647   1.036  16.113  0.0387 -0.0735  0.1349
14574TIP3    H165137   5.617   1.054  16.024 -0.6555 -0.5813  0.2706
14574TIP3    H265138   5.630   1.117  16.160  0.8991  0.3820 -0.3151
14575TIP3   OH265139   1.425   5.193  11.021  0.1257 -0.2043  0.0833
14575TIP3    H165140   1.428   5.287  11.006 -0.8015 -0.3290 -0.9022
14575TIP3    H265141   1.475   5.155  10.948 -0.8069 -0.5637 -0.3713
14576TIP3   OH265142   0.506   0.407   1.793  0.2714 -0.0508 -0.2022
14576TIP3    H165143   0.510   0.337   1.858 -0.8916 -0.0936 -0.1726
14576TIP3    H265144   0.549   0.482   1.836 -0.8047  0.0268  0.7595
14577TIP3   OH265145   0.064   1.266   1.077 -0.1606  0.1774 -0.1254
14577TIP3    H165146   0.066   1.216   0.996 -0.3145 -0.6264  0.3591
14577TIP3    H265147  -0.015   1.320   1.070 -1.1094 -1.1390  0.2129
14578TIP3   OH265148   3.255   5.463  13.572 -0.3210 -0.1825  0.1275
14578TIP3    H165149   3.233   5.386  13.624 -1.3663 -0.3129 -0.4951
14578TIP3    H265150   3.206   5.452  13.490  3.4209 -1.3484 -2.0430
14579TIP3   OH265151   6.078   3.888   2.634 -0.2906 -0.1446  0.1707
14579TIP3    H165152   6.163   3.929   2.620 -1.0245  1.5335  0.4886
14579TIP3    H265153   6.090   3.835   2.713  0.5645 -0.1826  0.0179
14580TIP3   OH265154   6.641   5.186   3.071  0.2163  0.5232  0.2211
14580TIP3    H165155   6.714   5.124   3.075  0.7759  1.2010  0.4488
14580TIP3    H265156   6.682   5.272   3.066 -0.5646  0.8762 -0.1827
14581TIP3   OH265157   3.773   0.712  11.752  0.1467  0.2015 -0.0925
14581TIP3    H165158   3.759   0.618  11.735  1.4803  0.0729 -0.5495
14581TIP3    H265159   3.862   0.717  11.785 -0.0874  1.2672  0.3910
14582TIP3   OH265160   2.453   3.706  12.593  0.4566  0.3135  0.0053
14582TIP3    H165161   2.492   3.793  12.604 -0.1694  0.8000 -1.5568
14582TIP3    H265162   2.390   3.700  12.665  1.6737  0.4609  1.1261
14583TIP3   OH265163   6.254   1.577   6.052  0.5901  0.2107  0.0434
14583TIP3    H165164   6.277   1.670   6.058  0.5561  0.2797 -0.9043
14583TIP3    H265165   6.193   1.572   5.978 -0.0924 -0.4347  0.6437
14584TIP3   OH265166   2.709   4.759  13.730 -0.1841 -0.0853 -0.2809
14584TIP3    H165167   2.624   4.782  13.692 -1.8508 -2.7280  1.6576
14584TIP3    H265168   2.696   4.767  13.824  2.3366  1.3667 -0.0079
14585TIP3   OH265169   3.183   3.042  14.540  0.0932  0.0835  0.4982
14585TIP3    H165170   3.179   2.983  14.615  0.5874  0.0063  0.4677
14585TIP3    H265171   3.255   3.102  14.560  0.3434 -0.0450  0.0189
14586TIP3   OH265172   0.105   2.612  10.656 -0.4612  0.3417 -0.2995
14586TIP3    H165173   0.161   2.667  10.602 -1.8937  0.6866 -1.4623
14586TIP3    H265174   0.019   2.655  10.653 -0.9875 -0.6048  0.8062
14587TIP3   OH265175   5.483   3.817  13.121  0.2424  0.5761  0.5765
14587TIP3    H165176   5.568   3.803  13.161  0.3219  2.2943  1.0712
14587TIP3    H265177   5.420   3.784  13.185  0.4488  1.5733  1.3100
14588TIP3   OH265178   6.206   5.761  16.856 -0.2004  0.6957  0.0495
14588TIP3    H165179   6.263   5.724  16.789  2.7216  1.4900  2.0268
14588TIP3    H265180   6.152   5.825  16.808  1.1058  0.5038 -1.7310
14589TIP3   OH265181   2.821   0.106  13.631 -0.1775  0.0775  0.2431
14589TIP3    H165182   2.793   0.028  13.678  0.1866  1.1527  2.3161
14589TIP3    H265183   2.746   0.130  13.577 -0.7422 -0.9786  0.5392
14590TIP3   OH265184   4.686   5.188  12.616 -0.3113 -0.0479  0.1036
14590TIP3    H165185   4.772   5.173  12.577 -0.9224  1.6027 -2.0000
14590TIP3    H265186   4.693   5.154  12.705  2.5464  0.2090  0.0037
14591TIP3   OH265187   5.018   5.485  11.213  0.2835  0.2781 -0.0907
14591TIP3    H165188   4.954   5.539  11.258  1.3829  1.0692  0.5416
14591TIP3    H265189   5.071   5.446  11.282  0.0270 -0.9748 -0.5744
14592TIP3   OH265190   0.501   3.468  13.060 -0.2472  0.7379  0.0674
14592TIP3    H165191   0.482   3.392  13.005  1.3443 -1.2666  2.1854
14592TIP3    H265192   0.502   3.542  12.999 -0.2147 -1.1579 -2.3088
14593TIP3   OH265193   3.336   3.168  13.170  0.0088  0.5895 -0.1367
14593TIP3    H165194   3.420   3.152  13.129  0.1652 -0.1468  0.4565
14593TIP3    H265195   3.292   3.231  13.112  1.6673  2.3469  0.4912
14594TIP3   OH265196   0.707   3.678  11.993 -0.3583 -0.3928 -0.0671
14594TIP3    H165197   0.653   3.600  11.980  1.3187 -1.6555  0.2190
14594TIP3    H265198   0.797   3.647  11.976  0.3747  1.3689  0.4958
14595TIP3   OH265199   1.416   4.463   5.051  0.1427 -0.3651  0.2951
14595TIP3    H165200   1.484   4.416   5.099  0.5181 -0.2955 -0.1681
14595TIP3    H265201   1.358   4.496   5.119  0.2418 -0.9300  0.6634
14596TIP3   OH265202   5.781   6.304  14.399  0.1290 -0.1400 -0.1218
14596TIP3    H165203   5.706   6.251  14.426  1.1827 -0.4469  2.3325
14596TIP3    H265204   5.853   6.240  14.389  0.8736  0.5569  0.7557
14597TIP3   OH265205   3.095   4.629   4.879 -0.3375 -0.3495  0.1397
14597TIP3    H165206   3.128   4.654   4.965 -0.8192  0.6992  0.0371
14597TIP3    H265207   3.144   4.551   4.856  3.2865  2.0447 -0.7277
14598TIP3   OH265208   6.074   4.497  14.224 -0.0473 -0.1956 -0.0478
14598TIP3    H165209   6.160   4.533  14.246  0.3650 -1.5263  0.5461
14598TIP3    H265210   6.019   4.574  14.213  1.1516  0.6693 -0.1690
14599TIP3   OH265211   3.855   1.311  14.761  0.2142  0.4346  0.2142
14599TIP3    H165212   3.951   1.312  14.765  0.2194  0.4614  0.0917
14599TIP3    H265213   3.835   1.307  14.668  0.0790  1.5474  0.1930
14600TIP3   OH265214   4.400   0.258  10.654 -0.1111  0.1495  0.3646
14600TIP3    H165215   4.344   0.191  10.615  0.5501 -0.1943 -0.0071
14600TIP3    H265216   4.486   0.242  10.616  0.1597  0.8989  0.6602
14601TIP3   OH265217   6.056   4.091   6.513 -0.1071  0.8092 -0.0439
14601TIP3    H165218   5.990   4.160   6.513 -1.9510 -0.9233 -0.3041
14601TIP3    H265219   6.067   4.068   6.605  0.5404  1.4622  0.0465
14602TIP3   OH265220   1.984   0.088   2.194  0.6711 -0.5178  0.1333
14602TIP3    H165221   2.072   0.051   2.189  2.1519  2.9203 -1.2582
14602TIP3    H265222   1.954   0.091   2.103  0.0280  0.3564  0.3706
14603TIP3   OH265223   0.999   0.043   4.089 -0.1838  0.0453 -0.3659
14603TIP3    H165224   0.996   0.115   4.025 -2.3000 -1.4233 -1.9989
14603TIP3    H265225   1.085   0.052   4.130 -0.2801  3.3391 -0.7041
14604TIP3   OH265226   6.720   2.478   5.206  0.1431  0.1205 -0.3278
14604TIP3    H165227   6.800   2.437   5.241  0.2213  0.5920  0.0584
14604TIP3    H265228   6.715   2.448   5.116 -0.6129 -1.9456  0.3743
14605TIP3   OH265229   4.051   5.675   0.381 -1.0646  0.1243 -0.0253
14605TIP3    H165230   4.025   5.626   0.303 -1.2120  1.4032 -0.7976
14605TIP3    H265231   4.116   5.738   0.348  0.5467 -0.8073  1.2832
14606TIP3   OH265232   3.773   0.169   2.507  0.5292 -0.9539 -0.4720
14606TIP3    H165233   3.753   0.078   2.529  1.1684 -0.7588  0.9575
14606TIP3    H265234   3.712   0.191   2.437  0.3727 -2.4827 -0.8263
14607TIP3   OH265235   0.821   3.399  15.716  0.3040 -0.0347  0.1424
14607TIP3    H165236   0.795   3.487  15.745 -0.4834 -0.1620 -0.1673
14607TIP3    H265237   0.802   3.399  15.622  0.1135 -0.6113  0.1847
14608TIP3   OH265238   1.455   1.734   5.672 -0.3963  0.0669  0.1628
14608TIP3    H165239   1.489   1.659   5.623 -0.0923 -1.0024  1.9499
14608TIP3    H265240   1.533   1.775   5.709 -0.5047  1.6612 -1.2945
14609TIP3   OH265241   0.867   5.700   2.128 -0.4937  0.1146  0.1109
14609TIP3    H165242   0.855   5.626   2.189 -2.1206  0.3698  0.1117
14609TIP3    H265243   0.893   5.659   2.046 -1.3153 -0.4690  0.1331
14610TIP3   OH265244   1.579   2.330  16.079  0.2520 -0.2238  0.7250
14610TIP3    H165245   1.664   2.351  16.042  0.8110 -2.3646  0.7387
14610TIP3    H265246   1.522   2.317  16.004  0.5229 -1.1405  0.6801
14611TIP3   OH265247   3.024   5.440  10.534 -0.0685 -0.0300  0.4181
14611TIP3    H165248   3.102   5.404  10.576 -0.6240  0.6162  2.0466
14611TIP3    H265249   3.037   5.423  10.441  2.4139  0.7963  0.5653
14612TIP3   OH265250   4.382   1.779  11.602 -0.3296 -0.3997  0.3882
14612TIP3    H165251   4.328   1.755  11.677 -0.3303 -0.8199  0.2554
14612TIP3    H265252   4.448   1.710  11.597 -1.1015 -1.0492 -0.7775
14613TIP3   OH265253   4.892   5.150   0.294  0.0206 -0.0138  0.1537
14613TIP3    H165254   4.987   5.152   0.283  0.1387 -1.3728  0.8778
14613TIP3    H265255   4.879   5.136   0.387 -0.8559 -2.2922 -0.2787
14614TIP3   OH265256   4.375   0.216   3.443 -0.2517 -0.1560 -0.2594
14614TIP3    H165257   4.427   0.254   3.514  0.0369  0.1145 -0.6141
14614TIP3    H265258   4.320   0.151   3.486 -1.6407  1.5054  0.5674
14615TIP3   OH265259   5.844   4.067  15.873 -0.3396 -0.1444  0.4175
14615TIP3    H165260   5.779   4.030  15.932 -1.6840  0.1505 -0.8325
14615TIP3    H265261   5.830   4.162  15.878 -0.5557 -0.1246 -0.4641
14616TIP3   OH265262   1.117   1.800  16.864  0.1835 -0.0192 -0.3210
14616TIP3    H165263   1.176   1.799  16.938  1.3553 -0.1251 -1.2419
14616TIP3    H265264   1.170   1.833  16.791 -0.6025 -1.0423 -1.3755
14617TIP3   OH265265   3.771   2.220  15.827  0.0295  0.5430  0.0849
14617TIP3    H165266   3.770   2.248  15.919  1.5093 -1.3687  0.7325
14617TIP3    H265267   3.864   2.210  15.807 -0.3332 -0.1200 -1.2820
14618TIP3   OH265268   4.072   1.807   2.470 -0.2243 -0.0468 -0.2971
14618TIP3    H165269   4.006   1.741   2.452 -1.1416  0.0886  2.3736
14618TIP3    H265270   4.142   1.760   2.517  0.1990  0.3967 -0.4755
14619TIP3   OH265271   0.999   4.389   3.057  0.3180 -0.8521 -0.3429
14619TIP3    H165272   1.088   4.352   3.056  0.3140 -0.8613 -0.3792
14619TIP3    H265273   0.982   4.409   3.149  0.1350 -1.3904 -0.2532
14620TIP3   OH265274   5.795   0.479   4.324 -0.2240  0.1804 -0.1441
14620TIP3    H165275   5.760   0.407   4.375  0.6426  1.1230  1.8441
14620TIP3    H265276   5.863   0.440   4.270 -0.0165 -0.5524  0.6479
14621TIP3   OH265277   3.326   1.759   5.756 -0.1390  0.0736 -0.0395
14621TIP3    H165278   3.262   1.808   5.808 -1.7845 -2.3441  0.2905
14621TIP3    H265279   3.274   1.715   5.689  1.5458  0.3349 -1.5713
14622TIP3   OH265280   6.317   1.827   1.059  0.1282  0.2208  0.3035
14622TIP3    H165281   6.229   1.864   1.050 -0.1522 -0.4266  0.3288
14622TIP3    H265282   6.309   1.739   1.023  0.8964  0.3419 -0.1741
14623TIP3   OH265283   0.520   0.680   2.655  0.4037  0.0546  0.2726
14623TIP3    H165284   0.463   0.618   2.701 -0.1318 -0.1826 -0.7025
14623TIP3    H265285   0.558   0.734   2.725 -1.1025  0.2908  0.9341
14624TIP3   OH265286   1.776   5.850  16.250  0.5997  0.0853  0.2193
14624TIP3    H165287   1.832   5.921  16.218 -0.1933  0.0230 -1.3651
14624TIP3    H265288   1.689   5.889  16.257  0.8091  0.1890  2.6985
14625TIP3   OH265289   3.108   6.050  15.756  0.1581  0.5899  0.5378
14625TIP3    H165290   3.136   6.102  15.680 -0.7574 -0.4177 -0.5084
14625TIP3    H265291   3.168   6.075  15.826  2.6601 -0.3377 -1.2181
14626TIP3   OH265292   1.550   4.206  11.227 -0.1188 -0.3142 -0.0969
14626TIP3    H165293   1.489   4.276  11.249 -0.9004 -1.3438  1.0936
14626TIP3    H265294   1.618   4.249  11.175 -0.3949  1.3959  0.9108
14627TIP3   OH265295   4.783   5.479   2.173  0.7006 -0.3507 -0.2887
14627TIP3    H165296   4.773   5.404   2.232 -0.9289  0.3166  0.2973
14627TIP3    H265297   4.770   5.441   2.085  0.9324 -0.9345 -0.0783
14628TIP3   OH265298   2.979   5.502  15.828  0.8431  0.2117 -0.1084
14628TIP3    H165299   2.912   5.567  15.852  0.7606  0.2249 -0.3711
14628TIP3    H265300   2.931   5.436  15.778  1.2259  0.7688 -1.2248
14629TIP3   OH265301   3.708   4.288   1.508  0.3014 -0.0196 -0.7420
14629TIP3    H165302   3.734   4.377   1.531 -0.0650 -0.1762  0.3348
14629TIP3    H265303   3.789   4.238   1.508  0.5743  0.4156 -1.8483
14630TIP3   OH265304   6.433   4.097   6.058 -0.1709  0.0109 -0.1993
14630TIP3    H165305   6.377   4.126   5.986  1.4740  0.4865 -1.3234
14630TIP3    H265306   6.426   4.167   6.124 -2.2503 -0.7737  0.4406
14631TIP3   OH265307   2.659   2.198   4.026  0.1179 -0.6266  0.1598
14631TIP3    H165308   2.607   2.209   3.947 -2.7831 -0.2723  2.0389
14631TIP3    H265309   2.732   2.142   4.000 -0.0669  0.5270 -3.0180
14632TIP3   OH265310   6.460   2.140   4.673  0.5031 -1.1055  0.7172
14632TIP3    H165311   6.532   2.133   4.736  1.5762 -0.7276 -0.4328
14632TIP3    H265312   6.484   2.080   4.603  2.0961  2.3904 -1.8934
14633TIP3   OH265313   5.752   6.678  14.285  0.3864  0.2064 -0.0579
14633TIP3    H165314   5.749   6.608  14.219  0.0561  0.8919 -0.7826
14633TIP3    H265315   5.813   6.646  14.351  2.4002  0.4172 -1.7565
14634TIP3   OH265316   3.944   3.976  14.390 -0.0812 -0.3021 -0.1801
14634TIP3    H165317   3.855   3.974  14.354 -0.2809  0.7339  0.2118
14634TIP3    H265318   3.951   3.897  14.442 -0.3247 -1.0374 -1.2481
14635TIP3   OH265319   0.793   2.652   4.882 -0.3248 -0.6133  0.0705
14635TIP3    H165320   0.726   2.720   4.890  1.6141  1.2313  1.3188
14635TIP3    H265321   0.745   2.570   4.894 -2.1819  0.7041  2.2177
14636TIP3   OH265322   0.183   2.783   3.138  0.2807  0.9580 -0.2503
14636TIP3    H165323   0.188   2.863   3.087  0.0949 -0.2760 -2.2401
14636TIP3    H265324   0.115   2.731   3.096  1.5156 -0.9288 -0.0072
14637TIP3   OH265325   0.609   2.499   2.011 -0.0075  0.3029 -0.7463
14637TIP3    H165326   0.669   2.479   1.939  0.3289  0.4799 -0.5163
14637TIP3    H265327   0.666   2.510   2.087 -0.2810  1.1179 -0.6575
14638TIP3   OH265328   3.832   4.444  15.091 -0.7029  0.2528 -0.4107
14638TIP3    H165329   3.737   4.438  15.091 -0.7213  0.2755  1.1958
14638TIP3    H265330   3.853   4.497  15.167  0.6853 -1.7849  0.6825
14639TIP3   OH265331   2.681   4.046  11.430  0.4735 -0.3301  0.3367
14639TIP3    H165332   2.654   4.017  11.343  0.6209  0.1501  0.1272
14639TIP3    H265333   2.662   4.140  11.431 -1.1172 -0.6669  1.4458
14640TIP3   OH265334   0.885   5.809   6.180  0.2360 -0.2111  0.1926
14640TIP3    H165335   0.899   5.728   6.132  1.3479 -0.1578  0.4289
14640TIP3    H265336   0.931   5.876   6.129  1.4739 -0.1648  1.3384
14641TIP3   OH265337   0.585   1.258   2.044  0.4246 -0.8670 -0.0584
14641TIP3    H165338   0.591   1.200   1.968 -1.6224  0.5293 -1.3615
14641TIP3    H265339   0.647   1.328   2.025  0.6918 -1.0683  0.0697
14642TIP3   OH265340   0.751   1.028   4.543  0.1811 -0.0765  0.1549
14642TIP3    H165341   0.774   1.106   4.593 -0.5866 -0.1628  0.6630
14642TIP3    H265342   0.829   1.008   4.491  0.5084  0.8113  0.2962
14643TIP3   OH265343   2.195   0.651   2.491 -0.4174 -0.6396  0.3184
14643TIP3    H165344   2.142   0.730   2.499 -0.7122 -0.7984 -0.0422
14643TIP3    H265345   2.268   0.665   2.550 -0.8648 -0.4194  0.8258
14644TIP3   OH265346   6.042   0.676   0.332  0.0207 -0.5418 -0.1438
14644TIP3    H165347   6.131   0.647   0.314  0.5478  0.4650  0.8205
14644TIP3    H265348   6.040   0.693   0.426 -0.1989  2.7440 -0.7056
14645TIP3   OH265349   3.848   2.055   2.210  0.0686 -0.0201 -0.1902
14645TIP3    H165350   3.769   2.017   2.172 -0.0604  1.7234 -1.7458
14645TIP3    H265351   3.920   2.005   2.171 -0.1904 -0.4174 -0.1621
14646TIP3   OH265352   6.234   4.623   3.716 -0.0067  0.2900  0.2811
14646TIP3    H165353   6.214   4.558   3.648 -0.1637  0.8447 -0.1996
14646TIP3    H265354   6.151   4.635   3.762 -0.2486  0.9633 -0.3262
14647TIP3   OH265355   2.281   6.387  14.413 -0.1129  0.1432  0.7986
14647TIP3    H165356   2.284   6.453  14.482 -1.5260  1.0815 -0.0160
14647TIP3    H265357   2.324   6.428  14.338  0.1556 -0.3574  0.6707
14648TIP3   OH265358   3.082   2.444   5.793 -0.8666 -0.0751 -0.3517
14648TIP3    H165359   3.046   2.360   5.820  0.2054 -0.7130 -0.8920
14648TIP3    H265360   3.133   2.473   5.868  1.2297 -1.3410 -1.2521
14649TIP3   OH265361   6.273   0.633   5.489  0.3962  0.5580 -0.1541
14649TIP3    H165362   6.307   0.641   5.578  0.9301 -0.5054 -0.2634
14649TIP3    H265363   6.316   0.704   5.441  0.6963  0.6521  0.2495
14650TIP3   OH265364   4.691   0.556   0.780  0.0470  0.2548 -0.1278
14650TIP3    H165365   4.721   0.596   0.862  0.0590  1.6567 -0.7950
14650TIP3    H265366   4.714   0.464   0.789  0.9807  0.5723  1.0201
14651TIP3   OH265367   5.211   2.802  15.191  0.7716 -0.1315 -0.3799
14651TIP3    H165368   5.160   2.883  15.192  0.4273 -0.3251 -1.7137
14651TIP3    H265369   5.206   2.769  15.281 -2.2312 -0.6366 -0.6869
14652TIP3   OH265370   5.671   6.731   2.905  0.1758  0.5738 -0.1684
14652TIP3    H165371   5.591   6.740   2.958 -1.0248 -0.7380 -1.6970
14652TIP3    H265372   5.640   6.739   2.814  1.2751 -3.0512 -0.9410
14653TIP3   OH265373   6.423   3.693   5.597 -0.1440 -0.4261  0.3965
14653TIP3    H165374   6.372   3.728   5.670 -0.1001 -1.1844  0.7954
14653TIP3    H265375   6.359   3.645   5.545 -0.2049  0.2370 -0.1516
14654TIP3   OH265376   5.318   3.771  14.352 -0.0691  0.1767 -0.6630
14654TIP3    H165377   5.352   3.683  14.336  0.5140 -0.0147  1.4940
14654TIP3    H265378   5.380   3.829  14.307  1.4419 -0.3411  0.6905
14655TIP3   OH265379   6.362   3.118  13.197  0.1561 -0.0789 -0.3106
14655TIP3    H165380   6.305   3.045  13.220 -1.0652  0.6497 -0.9372
14655TIP3    H265381   6.420   3.083  13.129 -0.6410 -0.3814 -0.8452
14656TIP3   OH265382   2.091   4.615  15.177  0.7596 -0.3139  0.3017
14656TIP3    H165383   2.136   4.531  15.185 -0.4410 -0.9966  0.0191
14656TIP3    H265384   2.121   4.650  15.093  0.2815 -1.0574 -0.1802
14657TIP3   OH265385   3.696   6.762   4.224 -0.4425  0.2741  0.0142
14657TIP3    H165386   3.637   6.757   4.148 -2.4667 -1.0264  1.6249
14657TIP3    H265387   3.726   6.672   4.236 -1.6004  0.1296  1.8871
14658TIP3   OH265388   3.640   2.191  11.799 -0.0478  0.3535 -0.1667
14658TIP3    H165389   3.577   2.164  11.732  0.2335 -0.3085 -0.1740
14658TIP3    H265390   3.591   2.187  11.881  0.4230 -1.7651  0.0334
14659TIP3   OH265391   0.206   2.162   5.143  0.1861 -0.0348  0.4100
14659TIP3    H165392   0.261   2.083   5.143  1.0591  0.5676  0.3239
14659TIP3    H265393   0.179   2.171   5.052  0.2688 -0.1072  0.3773
14660TIP3   OH265394   6.537   0.173   2.715 -0.3618 -0.9834  0.0681
14660TIP3    H165395   6.497   0.192   2.630  0.3956 -0.6254 -0.2166
14660TIP3    H265396   6.599   0.103   2.697  0.5014 -0.2515  0.1257
14661TIP3   OH265397   3.000   0.265  15.056 -0.2563  0.3624 -0.0866
14661TIP3    H165398   2.955   0.301  14.980 -0.2497  1.0562  0.2372
14661TIP3    H265399   3.087   0.304  15.055  0.5807 -1.4481 -1.0532
14662TIP3   OH265400   5.636   2.584  12.620  0.0441 -0.3213 -0.0996
14662TIP3    H165401   5.558   2.546  12.660 -0.7057  0.2683 -0.9693
14662TIP3    H265402   5.625   2.567  12.526 -0.0127  1.5074 -0.4407
14663TIP3   OH265403   3.420   2.395   2.443 -0.0918  0.2122 -0.0849
14663TIP3    H165404   3.357   2.403   2.515 -0.7232 -0.0936 -0.5939
14663TIP3    H265405   3.376   2.339   2.380  0.4727  0.4613 -0.6998
14664TIP3   OH265406   1.179   0.171  12.550 -0.4050 -0.0366 -0.2816
14664TIP3    H165407   1.092   0.211  12.540 -0.7040 -0.9464 -1.5614
14664TIP3    H265408   1.229   0.204  12.475  1.5725  3.4247  2.4449
14665TIP3   OH265409   6.274   3.003   5.375 -0.4983  0.8310  0.3575
14665TIP3    H165410   6.258   2.909   5.379 -0.9070  0.8592 -0.4923
14665TIP3    H265411   6.201   3.043   5.422  0.1834  0.6809  1.5519
14666TIP3   OH265412   1.119   1.871   0.457  0.0297  0.0948  0.4177
14666TIP3    H165413   1.105   1.966   0.454 -0.9681 -0.0902 -1.2301
14666TIP3    H265414   1.212   1.862   0.477  1.0009  1.4954 -3.1015
14667TIP3   OH265415   0.825   5.853  11.876 -0.0686  0.2008 -0.2720
14667TIP3    H165416   0.898   5.791  11.868  0.2408  0.4363  0.6562
14667TIP3    H265417   0.826   5.903  11.794 -0.8483 -1.5822 -1.3996
14668TIP3   OH265418   0.839   1.843  12.373 -0.1374 -0.0648 -0.2834
14668TIP3    H165419   0.881   1.759  12.359 -2.0077 -1.1002  0.1765
14668TIP3    H265420   0.836   1.883  12.286  0.2003 -0.7271 -0.5996
14669TIP3   OH265421   1.491   2.731  13.715  0.1160 -0.5045  0.3191
14669TIP3    H165422   1.456   2.809  13.758  0.4943 -0.4969  0.6140
14669TIP3    H265423   1.509   2.758  13.625 -0.2000 -0.3824  0.2920
14670TIP3   OH265424   1.116   6.193  16.473 -0.1683 -0.0317  0.0671
14670TIP3    H165425   1.090   6.102  16.489 -0.2244 -0.0702 -0.2367
14670TIP3    H265426   1.082   6.213  16.386 -0.6917  0.4849  0.3880
14671TIP3   OH265427   4.178   6.213   6.075 -0.0716  0.2205 -0.4940
14671TIP3    H165428   4.171   6.164   6.158 -0.0809 -0.0213 -0.6372
14671TIP3    H265429   4.093   6.202   6.033  0.1336 -0.1691 -0.8183
14672TIP3   OH265430   3.258   3.628   4.663 -0.0835 -0.7782 -0.4832
14672TIP3    H165431   3.235   3.719   4.684 -1.3716 -1.3027  0.3823
14672TIP3    H265432   3.181   3.577   4.687  0.3896 -2.0341 -1.5698
14673TIP3   OH265433   3.110   1.265  17.119  0.2219 -0.4467  0.0602
14673TIP3    H165434   3.198   1.229  17.106  0.7055  0.7648 -0.1003
14673TIP3    H265435   3.068   1.256  17.034  0.3393 -0.6176  0.0189
14674TIP3   OH265436   5.889   3.836  10.773  0.3450  1.0434  0.1948
14674TIP3    H165437   5.925   3.894  10.841  1.5084  1.5958 -0.8854
14674TIP3    H265438   5.858   3.895  10.705  0.1325  0.4474 -0.2293
14675TIP3   OH265439   4.423   5.177  14.491 -0.6320 -0.3654  0.3730
14675TIP3    H165440   4.457   5.092  14.464 -2.7439 -1.2718  0.5020
14675TIP3    H265441   4.346   5.192  14.435 -1.0032  0.8801  1.1875
14676TIP3   OH265442   0.137   0.470  17.236 -0.4337 -0.7077  0.0711
14676TIP3    H165443   0.059   0.418  17.219 -0.1240 -1.0382 -0.3504
14676TIP3    H265444   0.145   0.527  17.159  0.3171 -1.3892 -0.3529
14677TIP3   OH265445   2.151   0.302   1.254 -0.3184  0.4599  0.1443
14677TIP3    H165446   2.204   0.266   1.325 -0.9214  0.1233  0.4298
14677TIP3    H265447   2.194   0.384   1.230  2.6795 -1.7140 -2.3643
14678TIP3   OH265448   4.253   0.823   2.070 -0.0266  0.0245  0.2040
14678TIP3    H165449   4.268   0.905   2.117 -1.0691  0.8438 -0.8402
14678TIP3    H265450   4.325   0.817   2.008 -1.0156  1.2098 -1.1069
14679TIP3   OH265451   2.626   4.559   2.670  0.0467  0.1480  0.1818
14679TIP3    H165452   2.684   4.549   2.595  0.6812  0.5643  0.6161
14679TIP3    H265453   2.538   4.556   2.632  0.3667  0.7309 -0.6276
14680TIP3   OH265454   5.146   5.008   0.610  0.5223  0.1915  0.2790
14680TIP3    H165455   5.093   5.079   0.575 -0.8590 -0.6903  0.5583
14680TIP3    H265456   5.145   5.022   0.705  2.1310  1.0868  0.1897
14681TIP3   OH265457   1.831   3.066  15.229 -0.2689  0.2915 -0.0367
14681TIP3    H165458   1.811   3.140  15.171  0.5812  0.3473 -0.2618
14681TIP3    H265459   1.917   3.087  15.265 -0.6350  0.0816  0.9753
14682TIP3   OH265460   1.833   6.693   3.303  0.1327 -0.1648  0.1955
14682TIP3    H165461   1.869   6.777   3.333 -2.0738  0.6515  0.7354
14682TIP3    H265462   1.909   6.639   3.285  1.6016  1.1131  2.3022
14683TIP3   OH265463   4.247   2.309   3.306  0.2569  0.6526  1.0417
14683TIP3    H165464   4.222   2.234   3.253  1.2885  0.6185  0.6007
14683TIP3    H265465   4.232   2.385   3.250  3.5546  0.4707 -0.1674
14684TIP3   OH265466   3.814   3.770  10.663  0.2175 -0.3470 -0.4560
14684TIP3    H165467   3.764   3.791  10.584  1.3005 -1.2205 -1.3895
14684TIP3    H265468   3.809   3.675  10.670  2.1028 -0.4920 -0.8136
14685TIP3   OH265469   2.460   6.592  15.567  0.8230 -0.0973 -0.3024
14685TIP3    H165470   2.533   6.621  15.513  0.4779 -1.1401 -1.3514
14685TIP3    H265471   2.388   6.650  15.542  1.1521  0.6027  0.3656
14686TIP3   OH265472   2.444   2.280   4.774  0.1199  0.0619 -0.6261
14686TIP3    H165473   2.494   2.318   4.701 -0.6880  2.8116  0.2101
14686TIP3    H265474   2.353   2.286   4.746 -0.1736  0.8790  0.4770
14687TIP3   OH265475   0.594   1.248  11.014 -0.5815  0.2778  0.0937
14687TIP3    H165476   0.521   1.305  11.039 -0.4574  0.0133  1.0570
14687TIP3    H265477   0.661   1.308  10.981 -0.6448  0.6480  0.6335
14688TIP3   OH265478   1.748   2.787   4.302  0.2141 -0.0987  0.7234
14688TIP3    H165479   1.802   2.808   4.378  0.8321 -0.9496  0.5285
14688TIP3    H265480   1.709   2.702   4.322 -1.2188  0.5814  0.9431
14689TIP3   OH265481   5.477   2.883  14.208 -0.0309  0.3283  0.1992
14689TIP3    H165482   5.460   2.960  14.154  0.4725 -1.4866 -2.6666
14689TIP3    H265483   5.567   2.894  14.239  0.6208  0.1505 -1.5557
14690TIP3   OH265484   1.905   0.137  11.103 -0.4450  0.6274  0.1053
14690TIP3    H165485   1.949   0.073  11.046  1.9666  0.3645  2.1974
14690TIP3    H265486   1.826   0.161  11.054 -1.0513 -3.3675 -1.0988
14691TIP3   OH265487   4.010   1.742  14.302 -0.0100  0.2573 -0.4832
14691TIP3    H165488   4.012   1.838  14.296 -0.9098  0.1779 -2.3884
14691TIP3    H265489   3.977   1.714  14.217  1.3457 -1.8005 -0.3488
14692TIP3   OH265490   5.984   1.897   4.711 -0.2440  0.1675  0.2861
14692TIP3    H165491   5.942   1.849   4.782 -1.0589 -1.2857 -1.1556
14692TIP3    H265492   5.956   1.988   4.725 -1.7217 -0.3573  0.8881
14693TIP3   OH265493   1.626   5.703   3.443  0.2896 -0.1866 -0.0575
14693TIP3    H165494   1.637   5.679   3.535  0.2207  0.8379  0.2283
14693TIP3    H265495   1.712   5.689   3.403  0.7660  0.9366  0.5442
14694TIP3   OH265496   3.070   0.879  11.529 -0.4117  0.8667  1.0918
14694TIP3    H165497   3.107   0.883  11.440 -1.2986 -1.2500  0.5878
14694TIP3    H265498   3.141   0.844  11.583 -1.7954 -4.1415 -0.0556
14695TIP3   OH265499   0.918   5.600   5.979 -0.1162 -0.2786  0.2866
14695TIP3    H165500   0.972   5.522   5.964  0.1265 -0.0991  0.2238
14695TIP3    H265501   0.832   5.577   5.943 -0.5443 -1.1559  1.8631
14696TIP3   OH265502   5.471   6.442  17.237 -0.1019  0.2194 -0.0132
14696TIP3    H165503   5.387   6.395  17.234 -1.0033  1.7964  0.2883
14696TIP3    H265504   5.528   6.390  17.180 -2.0305  0.5400 -2.3500
14697TIP3   OH265505   3.417   5.915   4.667 -0.2495 -0.2932  0.4707
14697TIP3    H165506   3.370   5.926   4.749 -0.0193  0.4787  0.4985
14697TIP3    H265507   3.405   5.822   4.644 -1.6285 -0.1420  0.5702
14698TIP3   OH265508   1.542   0.616   3.026 -0.0259  0.0803  0.2414
14698TIP3    H165509   1.577   0.684   2.969 -0.5400  0.0852 -0.0765
14698TIP3    H265510   1.529   0.659   3.111 -0.1401  0.3198  0.1009
14699TIP3   OH265511   6.125   5.535  13.076 -0.2801 -0.2487  0.7718
14699TIP3    H165512   6.213   5.515  13.108  0.1461  0.7888  0.2678
14699TIP3    H265513   6.108   5.624  13.106 -1.2818 -0.5320  1.1015
14700TIP3   OH265514   2.426   4.806   0.438 -0.0481 -0.5957  0.3297
14700TIP3    H165515   2.390   4.799   0.527 -1.3561 -4.7196 -0.3966
14700TIP3    H265516   2.475   4.725   0.426  1.5558  0.6774 -2.1546
14701TIP3   OH265517   1.396   5.477   3.692 -0.0352 -0.2035  0.0774
14701TIP3    H165518   1.418   5.400   3.745 -0.4999  0.0853  0.6901
14701TIP3    H265519   1.309   5.459   3.658  0.5671 -0.7267 -1.2217
14702TIP3   OH265520   4.041   2.358   2.904  0.7678 -0.4172 -0.1458
14702TIP3    H165521   4.000   2.433   2.947  2.0908  0.9060 -1.1278
14702TIP3    H265522   3.969   2.296   2.889 -0.3579  0.6927  0.5935
14703TIP3   OH265523   1.536   0.700  14.493 -0.2691  0.1933 -0.5776
14703TIP3    H165524   1.498   0.673  14.576  1.2666 -1.6725 -0.4626
14703TIP3    H265525   1.585   0.780  14.513 -1.6459  0.9361 -0.1374
14704TIP3   OH265526   0.176   1.076  11.816 -0.2993 -0.0938  0.2305
14704TIP3    H165527   0.212   1.161  11.841 -0.9617 -0.2397  1.7359
14704TIP3    H265528   0.083   1.092  11.802 -0.2571 -0.3850 -0.3822
14705TIP3   OH265529   5.409   4.695  15.841  0.3943 -0.5776  0.0674
14705TIP3    H165530   5.390   4.780  15.881 -1.2560 -1.2911  0.8237
14705TIP3    H265531   5.412   4.634  15.914  3.1379 -0.9467 -0.3046
14706TIP3   OH265532   0.122   0.194  14.277 -0.3659  0.0586  0.2640
14706TIP3    H165533   0.184   0.177  14.206  0.0079  0.0345  0.5898
14706TIP3    H265534   0.147   0.280  14.310 -0.2757 -0.1019  0.6251
14707TIP3   OH265535   5.506   3.264   2.036 -0.0811  0.0689 -0.8381
14707TIP3    H165536   5.417   3.253   2.070  0.0749 -0.9858 -0.7626
14707TIP3    H265537   5.557   3.293   2.111  0.1857 -1.8929 -0.2340
14708TIP3   OH265538   6.186   4.597   1.245 -0.4585  0.1660 -0.0728
14708TIP3    H165539   6.183   4.590   1.149 -0.7956  0.9288 -0.1227
14708TIP3    H265540   6.101   4.633   1.269 -0.2877  0.1970  0.4967
14709TIP3   OH265541   3.651   1.911  12.195  0.1669  0.5084  0.0290
14709TIP3    H165542   3.560   1.900  12.223  0.3809 -0.5148  0.3415
14709TIP3    H265543   3.670   2.003  12.212 -0.4866  0.4908  0.9245
14710TIP3   OH265544   4.990   1.891  15.152 -0.2707  0.4096 -0.5284
14710TIP3    H165545   5.022   1.840  15.078 -2.0628 -0.7370 -0.5494
14710TIP3    H265546   4.925   1.951  15.113 -0.4139  0.5594 -0.0573
14711TIP3   OH265547   5.836   1.421  11.752 -0.4674  0.0397 -0.1223
14711TIP3    H165548   5.802   1.390  11.668 -2.3146 -0.5757  0.8134
14711TIP3    H265549   5.766   1.400  11.815  1.6967 -1.3677  1.9137
14712TIP3   OH265550   4.283   2.459   3.024 -0.4078  0.0020  0.7303
14712TIP3    H165551   4.195   2.437   2.993  0.3336 -1.9294 -0.0523
14712TIP3    H265552   4.338   2.387   2.994  1.2543  0.6222  2.1988
14713TIP3   OH265553   0.171   1.987   2.169 -0.4478  0.2305 -0.2252
14713TIP3    H165554   0.245   1.963   2.113 -0.2118  0.0207  0.1718
14713TIP3    H265555   0.101   1.926   2.144 -0.4349  0.3257 -0.4916
14714TIP3   OH265556   2.016   5.907  14.543  0.2309 -0.0938 -0.0099
14714TIP3    H165557   2.036   5.998  14.522  0.1512  0.3099  1.5857
14714TIP3    H265558   1.925   5.910  14.574 -0.2427 -0.9413 -1.2743
14715TIP3   OH265559   2.600   0.261  14.086  0.1494  0.0905  0.2806
14715TIP3    H165560   2.562   0.174  14.096 -1.5613  0.7754 -0.2078
14715TIP3    H265561   2.649   0.275  14.168 -1.9698 -0.1600  1.6266
14716TIP3   OH265562   1.259   5.416  13.216  0.3198  0.0821  0.0264
14716TIP3    H165563   1.218   5.485  13.163  0.3935  0.2684  0.2110
14716TIP3    H265564   1.278   5.459  13.300  0.4616 -0.1345  0.1047
14717TIP3   OH265565   1.240   1.586  11.947  0.6835 -0.1110 -0.4370
14717TIP3    H165566   1.287   1.586  11.863  0.6095 -1.8179 -0.4980
14717TIP3    H265567   1.163   1.532  11.931 -0.9790  2.1147 -0.1399
14718TIP3   OH265568   0.341   6.093   1.183 -0.4587  0.2963 -0.2824
14718TIP3    H165569   0.270   6.151   1.156 -1.7961 -1.2938 -0.2326
14718TIP3    H265570   0.333   6.016   1.126  0.6378 -0.3249  0.3738
14719TIP3   OH265571   1.822   0.056   4.748  0.3118  0.4189 -0.0381
14719TIP3    H165572   1.877  -0.022   4.739  0.9224  0.9675 -1.2462
14719TIP3    H265573   1.866   0.109   4.814  0.2682  0.0401  0.2914
14720TIP3   OH265574   2.621   5.222   0.014  0.3175  0.0892  0.3498
14720TIP3    H165575   2.708   5.231  -0.026 -0.1068 -0.2370 -0.6620
14720TIP3    H265576   2.632   5.258   0.102  1.4974 -0.0087  0.2610
14721TIP3   OH265577   1.583   6.240   0.668  0.1288 -0.1450  0.1115
14721TIP3    H165578   1.532   6.177   0.616  1.8086  0.6422 -2.5641
14721TIP3    H265579   1.568   6.324   0.625  1.8979  0.4520  0.6218
14722TIP3   OH265580   1.642   6.414  12.126  0.6172  0.0674  0.7648
14722TIP3    H165581   1.663   6.328  12.090  2.1048  0.6589  0.1752
14722TIP3    H265582   1.669   6.408  12.218 -1.5883 -0.8858  1.3658
14723TIP3   OH265583   2.667   2.283   2.742  0.3373  0.1751 -0.3668
14723TIP3    H165584   2.664   2.198   2.700 -1.2235 -0.8811  1.8130
14723TIP3    H265585   2.576   2.313   2.743  0.1076 -0.4757  3.4754
14724TIP3   OH265586   0.143   4.515  11.850 -0.2462  0.2744 -0.0172
14724TIP3    H165587   0.145   4.466  11.933 -1.3358  1.4348  0.7057
14724TIP3    H265588   0.052   4.513  11.823 -0.1633  1.2776 -0.3734
14725TIP3   OH265589   6.533   1.487   5.943 -0.0785  0.0594 -0.2639
14725TIP3    H165590   6.438   1.502   5.940 -0.2508 -0.6567  1.3494
14725TIP3    H265591   6.569   1.566   5.982 -0.1719 -0.2702  0.5057
14726TIP3   OH265592   1.850   6.354  12.786 -0.1309 -0.0730  0.6240
14726TIP3    H165593   1.928   6.354  12.730 -0.8197  0.4092 -0.3371
14726TIP3    H265594   1.799   6.429  12.757 -1.5472 -1.0909  0.4213
14727TIP3   OH265595   0.519   5.050   1.485  0.3524  0.2822 -0.0655
14727TIP3    H165596   0.543   5.041   1.393  1.9323 -2.2522  0.5650
14727TIP3    H265597   0.602   5.051   1.532 -0.4185  2.1073  1.3345
14728TIP3   OH265598   2.009   1.982  15.714 -0.1543  0.2803 -0.7593
14728TIP3    H165599   2.034   1.907  15.660 -0.0799 -0.5209  0.3470
14728TIP3    H265600   1.987   1.943  15.799  0.6784  1.6084  0.0779
14729TIP3   OH265601   1.816   4.595  15.558 -0.0672  0.6390  0.5478
14729TIP3    H165602   1.784   4.517  15.604  1.3210  0.1807  0.7552
14729TIP3    H265603   1.895   4.565  15.512  0.7048  2.0124  0.9437
14730TIP3   OH265604   6.711   3.184   1.151  0.1080  0.2980  0.0293
14730TIP3    H165605   6.671   3.243   1.086  0.0356  0.6821  0.4192
14730TIP3    H265606   6.772   3.131   1.100  0.6143  1.1187 -0.2413
14731TIP3   OH265607   0.060   4.864   2.859 -0.4950  0.2687 -0.0033
14731TIP3    H165608   0.111   4.842   2.937 -1.9706 -0.6161  0.7406
14731TIP3    H265609   0.106   4.938   2.820  0.8280  0.0720  1.1517
14732TIP3   OH265610   0.401   4.053   2.202  0.0446  0.8933 -0.2199
14732TIP3    H165611   0.377   4.125   2.260  1.7719  0.7586  0.6954
14732TIP3    H265612   0.422   3.981   2.262 -0.0581  0.1423 -1.0744
14733TIP3   OH265613   6.253   2.022  11.918 -0.3982  0.3250 -0.2622
14733TIP3    H165614   6.283   1.972  11.842 -0.3787 -0.1460  0.0520
14733TIP3    H265615   6.325   2.017  11.981 -0.0283  1.5174 -0.5785
14734TIP3   OH265616   3.455   2.128  11.024 -0.5861 -0.6586  0.1454
14734TIP3    H165617   3.441   2.085  11.108  0.2938 -3.3649 -1.0059
14734TIP3    H265618   3.540   2.171  11.033 -0.3011 -1.2931  0.5085
14735TIP3   OH265619   6.422   2.701  16.961 -1.0097 -0.6495  0.4551
14735TIP3    H165620   6.403   2.709  17.054  0.1686 -2.6338  0.8824
14735TIP3    H265621   6.359   2.637  16.928 -1.2154 -0.1913 -0.0547
14736TIP3   OH265622   4.420   3.273   3.574 -0.1864  0.6085  0.2451
14736TIP3    H165623   4.414   3.180   3.597  1.0251 -0.5109 -3.6938
14736TIP3    H265624   4.475   3.311   3.642  2.1769 -2.2908  0.0318
14737TIP3   OH265625   5.494   4.870   1.372 -0.2143 -0.7564 -0.7121
14737TIP3    H165626   5.527   4.850   1.459 -0.7252 -1.4616 -0.6825
14737TIP3    H265627   5.505   4.965   1.364  0.5629 -0.7965 -0.1871
14738TIP3   OH265628   6.033   3.501  15.840  0.8607 -0.3001 -0.0309
14738TIP3    H165629   6.119   3.521  15.879  1.0340 -0.5564 -0.2795
14738TIP3    H265630   6.010   3.415  15.876  1.0659 -0.5813 -0.5646
14739TIP3   OH265631   3.530   2.574   4.889  0.1127 -0.0094 -0.5856
14739TIP3    H165632   3.480   2.653   4.869  0.7928 -0.0256 -2.4592
14739TIP3    H265633   3.620   2.605   4.902  0.0330 -0.2486  0.6432
14740TIP3   OH265634   5.364   3.620   5.156  0.1075  0.1078  0.0471
14740TIP3    H165635   5.365   3.585   5.245  2.4419 -0.4066 -0.1452
14740TIP3    H265636   5.331   3.549   5.102 -1.8381  0.5994  0.5328
14741TIP3   OH265637   4.517   1.404   2.853 -0.7220 -0.4995  0.5542
14741TIP3    H165638   4.499   1.417   2.760  1.7497 -1.4842 -0.1156
14741TIP3    H265639   4.594   1.458   2.870 -0.7852 -0.8110  1.8851
14742TIP3   OH265640   2.931   4.672  13.401 -0.0583 -0.1249  0.0557
14742TIP3    H165641   2.923   4.641  13.310  0.4227  2.6401 -0.9560
14742TIP3    H265642   3.009   4.627  13.434 -0.2518 -1.1770 -0.8806
14743TIP3   OH265643   2.860   2.380   1.097  0.5329  0.4686  0.3345
14743TIP3    H165644   2.791   2.314   1.086  3.1600 -2.2291 -0.4715
14743TIP3    H265645   2.882   2.407   1.008  0.2628  1.6124  0.6096
14744TIP3   OH265646   6.469   3.736  10.364 -0.0903  0.1509 -0.0244
14744TIP3    H165647   6.389   3.765  10.408 -0.7605  1.0628 -1.7978
14744TIP3    H265648   6.493   3.655  10.409 -0.6354  1.1461  2.1203
14745TIP3   OH265649   3.832   0.048  12.592 -0.3109  0.1017  0.1662
14745TIP3    H165650   3.805   0.027  12.502 -1.2926 -1.2500  0.7527
14745TIP3    H265651   3.808   0.139  12.603 -0.0455  0.3266 -0.9980
14746TIP3   OH265652   0.653   3.353   1.906 -0.3630 -0.4510  0.1287
14746TIP3    H165653   0.700   3.325   1.985  0.2556 -0.5703 -0.2781
14746TIP3    H265654   0.579   3.293   1.898  0.0072 -0.9157  0.1923
14747TIP3   OH265655   5.069   3.408   4.082 -0.6849  0.0435  0.2534
14747TIP3    H165656   5.019   3.397   4.162  0.4075  1.6766  1.1943
14747TIP3    H265657   5.126   3.331   4.077  0.0288  0.4671  1.6421
14748TIP3   OH265658   2.151   5.779  12.626 -0.5528  0.0101  0.6458
14748TIP3    H165659   2.135   5.866  12.663  0.5329  0.8937 -0.8699
14748TIP3    H265660   2.071   5.757  12.580 -0.3921  0.7772 -0.0159
14749TIP3   OH265661   0.467   1.812  13.851 -0.2799  0.0429 -0.3139
14749TIP3    H165662   0.372   1.818  13.840 -0.5965 -1.3306  1.4585
14749TIP3    H265663   0.503   1.839  13.767 -2.2119  1.6224 -0.6610
14750TIP3   OH265664   0.424   5.301  11.344 -0.7508 -0.0653  0.0700
14750TIP3    H165665   0.479   5.374  11.316  0.1635 -0.3714  1.0371
14750TIP3    H265666   0.337   5.321  11.310 -0.6852  1.8872  1.0257
14751TIP3   OH265667   1.855   4.828  13.517 -0.0095 -0.0563  0.2846
14751TIP3    H165668   1.907   4.869  13.586  2.2618 -0.7052 -0.9957
14751TIP3    H265669   1.824   4.746  13.557  0.9345 -0.2274  0.6777
14752TIP3   OH265670   2.718   5.584  13.068 -0.5771 -0.4655  0.3326
14752TIP3    H165671   2.678   5.636  13.138 -1.0318 -0.7363  0.2758
14752TIP3    H265672   2.724   5.496  13.104  1.7421 -0.0295  1.0453
14753TIP3   OH265673   0.984   5.984   2.741 -0.1394  0.8614 -0.3610
14753TIP3    H165674   1.013   5.922   2.674 -1.0834 -1.1345  1.0344
14753TIP3    H265675   1.005   6.070   2.705  0.6238 -0.2369 -2.6114
14754TIP3   OH265676   4.686   1.112  12.888 -0.5703  0.4482  0.1272
14754TIP3    H165677   4.607   1.070  12.922 -1.3281 -0.6105 -2.7380
14754TIP3    H265678   4.702   1.068  12.804  1.0513  3.0463 -0.9981
14755TIP3   OH265679   1.387   5.089   4.129 -0.1061  0.4881 -0.1374
14755TIP3    H165680   1.292   5.087   4.142  0.4291 -0.7298  4.7539
14755TIP3    H265681   1.409   5.182   4.123 -1.2275  1.0477  3.2343
14756TIP3   OH265682   5.765   6.731  13.472 -0.3224 -0.3219 -0.0666
14756TIP3    H165683   5.838   6.793  13.469  0.2413 -0.8015  2.4943
14756TIP3    H265684   5.731   6.729  13.382 -0.3563  3.6289 -0.2038
14757TIP3   OH265685   0.569   6.379  13.069  0.5154 -0.4077  0.3233
14757TIP3    H165686   0.634   6.375  12.999  0.3176 -0.9121  0.1673
14757TIP3    H265687   0.492   6.334  13.034 -0.3941  1.3389  0.0224
14758TIP3   OH265688   4.176   2.932  16.462 -0.1077 -0.2400  0.0370
14758TIP3    H165689   4.205   2.949  16.552  0.3897  1.4556 -0.4214
14758TIP3    H265690   4.101   2.989  16.451 -0.1812 -0.4693 -0.6213
14759TIP3   OH265691   2.449   6.618   1.392  0.6905  0.2324 -0.3907
14759TIP3    H165692   2.367   6.621   1.441  0.4559  0.8638 -0.8131
14759TIP3    H265693   2.433   6.558   1.320  1.0354 -0.6957  0.2900
14760TIP3   OH265694   6.248   6.735   1.652 -0.1544  0.2910 -0.1041
14760TIP3    H165695   6.153   6.734   1.643 -0.1494  1.6752 -0.4853
14760TIP3    H265696   6.264   6.697   1.738 -0.9159 -1.8302 -0.8569
14761TIP3   OH265697   0.791   5.741  15.173  0.3738  0.2355  0.2494
14761TIP3    H165698   0.882   5.724  15.150  0.7208 -0.4290  2.0285
14761TIP3    H265699   0.782   5.836  15.166  1.4968  0.4103  1.0502
14762TIP3   OH265700   4.694   0.805   1.096 -0.2626 -0.2444  0.9202
14762TIP3    H165701   4.681   0.837   1.184 -2.0323  0.2541  0.4897
14762TIP3    H265702   4.606   0.794   1.060  0.3937 -1.5257 -0.3927
14763TIP3   OH265703   0.643   4.148   5.680  0.3993 -0.0356 -0.0796
14763TIP3    H165704   0.691   4.215   5.729  1.0807  0.3088 -1.1786
14763TIP3    H265705   0.659   4.067   5.728  0.5509  0.3973  0.6033
14764TIP3   OH265706   1.765   3.577   0.198 -0.8264 -0.3050  0.0460
14764TIP3    H165707   1.692   3.570   0.136 -3.3978  1.9441  2.6706
14764TIP3    H265708   1.758   3.497   0.250 -0.3826 -0.8696 -0.7453
14765TIP3   OH265709   2.988   0.985   0.129 -0.1449  0.1403  0.2535
14765TIP3    H165710   3.004   1.077   0.105  0.5971 -0.2381 -0.7194
14765TIP3    H265711   2.895   0.972   0.111 -0.2908  0.7449  0.5481
14766TIP3   OH265712   1.928   1.526   0.565  0.4943  0.5930 -0.5601
14766TIP3    H165713   2.006   1.582   0.574  1.8418 -1.4193  0.7498
14766TIP3    H265714   1.963   1.437   0.563 -1.9133 -0.4954  2.1443
14767TIP3   OH265715   5.958   3.697   5.171 -0.3978  0.0442 -0.0076
14767TIP3    H165716   5.931   3.788   5.162 -0.7560  0.0120  0.6853
14767TIP3    H265717   5.895   3.659   5.232  1.2317 -0.0269  1.6925
14768TIP3   OH265718   5.493   5.256   0.197 -0.2965 -0.2455  0.8430
14768TIP3    H165719   5.558   5.324   0.212 -0.5787  0.3490 -0.5818
14768TIP3    H265720   5.428   5.297   0.141 -0.9511 -1.4039  0.7460
14769TIP3   OH265721   6.353   2.624  15.839  0.0220 -0.4884 -0.3115
14769TIP3    H165722   6.379   2.714  15.820 -1.7940 -0.0952 -1.0140
14769TIP3    H265723   6.432   2.573  15.822  0.2587  0.6312 -2.7372
14770TIP3   OH265724   6.083   4.325  13.677  0.3140  0.6819 -0.3700
14770TIP3    H165725   6.137   4.251  13.706  1.9971  1.4992 -1.3863
14770TIP3    H265726   6.066   4.307  13.585  1.9190  2.2758 -0.9911
14771TIP3   OH265727   5.961   5.335   0.421 -0.8076  0.4767 -0.2901
14771TIP3    H165728   5.935   5.277   0.493  1.2127  0.9611  0.8840
14771TIP3    H265729   5.932   5.422   0.448  1.5660  0.9620  0.8654
14772TIP3   OH265730   2.386   4.682  16.489 -0.2662 -0.7210  0.0689
14772TIP3    H165731   2.396   4.775  16.469 -2.1147 -0.3072  0.8696
14772TIP3    H265732   2.383   4.639  16.404 -0.6333  0.1108 -0.3406
14773TIP3   OH265733   5.070   5.039  12.663  0.2767  0.1323 -0.3130
14773TIP3    H165734   5.148   5.009  12.617 -0.5963  0.2293 -1.8858
14773TIP3    H265735   5.077   5.135  12.660 -0.3256  0.1542 -1.2149
14774TIP3   OH265736   2.340   1.686   0.457  0.9874 -0.2102  0.1244
14774TIP3    H165737   2.412   1.698   0.519  1.7718 -0.6569 -0.6899
14774TIP3    H265738   2.348   1.595   0.428  0.6983  0.0255 -0.7100
14775TIP3   OH265739   4.171   5.575   1.337 -0.4587  0.3064  0.0580
14775TIP3    H165740   4.188   5.669   1.329  0.7212  0.0488 -0.5054
14775TIP3    H265741   4.256   5.537   1.360 -1.4049 -0.3299  2.8235
14776TIP3   OH265742   6.094   0.211   0.358  0.1425 -0.1793 -0.1778
14776TIP3    H165743   6.092   0.121   0.324  3.1197 -0.1854 -0.4805
14776TIP3    H265744   6.055   0.204   0.445 -0.1994 -1.6561 -0.4244
14777TIP3   OH265745   6.057   4.405   4.133  0.8152 -0.3401  0.6840
14777TIP3    H165746   5.963   4.392   4.151  0.8386 -2.1886 -0.3551
14777TIP3    H265747   6.067   4.500   4.126 -1.0028 -0.1103  0.7365
14778TIP3   OH265748   5.750   6.730  10.631  0.0543  0.6711 -0.5091
14778TIP3    H165749   5.727   6.638  10.631 -2.5078  1.2737  0.6614
14778TIP3    H265750   5.672   6.775  10.600  0.8823  2.5313 -0.0087
14779TIP3   OH265751   3.238   4.488   3.204 -0.0306 -0.1204 -0.3425
14779TIP3    H165752   3.300   4.418   3.187 -0.8986 -1.1484  0.6343
14779TIP3    H265753   3.216   4.478   3.297 -1.2867  0.5173 -0.5602
14780TIP3   OH265754   0.898   5.772  14.581 -0.0714  0.0353  0.1736
14780TIP3    H165755   0.821   5.717  14.598  0.0569 -0.4345 -0.6991
14780TIP3    H265756   0.887   5.800  14.490 -0.0775  1.3865  0.5771
14781TIP3   OH265757   5.701   1.947  13.539 -0.4886  0.4574 -0.2918
14781TIP3    H165758   5.711   2.009  13.466 -0.9319  0.2426 -0.5427
14781TIP3    H265759   5.634   1.886  13.508  0.4939 -0.5912 -0.3455
14782TIP3   OH265760   3.385   3.099  12.571 -0.6392  0.4795  0.5853
14782TIP3    H165761   3.385   3.060  12.658  1.4038  2.0518  1.3362
14782TIP3    H265762   3.420   3.032  12.513 -0.8606 -0.1438  1.1749
14783TIP3   OH265763   0.986   3.799   1.342 -0.0684 -0.3976 -0.1666
14783TIP3    H165764   0.971   3.871   1.403 -1.4511  1.5230 -2.6556
14783TIP3    H265765   1.082   3.791   1.337  0.0740  0.5487  0.9435
14784TIP3   OH265766   3.350   0.709  16.659  1.1720  0.2713 -0.0393
14784TIP3    H165767   3.442   0.729  16.639  0.8649  0.9863 -0.7689
14784TIP3    H265768   3.347   0.614  16.668  2.0955  0.2911  0.5589
14785TIP3   OH265769   2.151   0.774   3.817 -0.2219 -0.3533  0.4560
14785TIP3    H165770   2.071   0.781   3.764 -0.5915 -2.4788  0.6985
14785TIP3    H265771   2.119   0.761   3.906  0.4104  1.1270  0.9147
14786TIP3   OH265772   2.987   0.664   3.612  0.1693  0.5158 -0.1216
14786TIP3    H165773   2.910   0.623   3.653  1.0459 -0.5376  0.4978
14786TIP3    H265774   2.955   0.697   3.528 -1.2201  1.0613  0.6079
14787TIP3   OH265775   0.411   2.905  11.727  0.2940  0.3644  0.1312
14787TIP3    H165776   0.496   2.946  11.743 -0.6677  1.9754  1.2228
14787TIP3    H265777   0.371   2.898  11.814 -0.4301 -0.9832 -0.2956
14788TIP3   OH265778   3.304   0.485  12.804  0.4044 -0.0731  0.3353
14788TIP3    H165779   3.246   0.559  12.789 -0.5380 -0.9565 -0.4427
14788TIP3    H265780   3.342   0.466  12.718 -0.3984 -1.3357  0.2360
14789TIP3   OH265781   5.283   0.225  12.399  0.0129 -0.3770 -0.5277
14789TIP3    H165782   5.239   0.280  12.335 -1.9787 -1.0445  0.2395
14789TIP3    H265783   5.320   0.153  12.348  1.1484  0.7201 -1.3005
14790TIP3   OH265784   6.388   3.867   6.675 -0.1296 -0.0760  0.3500
14790TIP3    H165785   6.417   3.783   6.639  1.6718  0.3735  0.6908
14790TIP3    H265786   6.444   3.931   6.633 -1.9169  1.0450 -0.3720
14791TIP3   OH265787   3.804   1.264  16.152 -0.2530  0.1509  0.4355
14791TIP3    H165788   3.898   1.246  16.147  0.3427  3.2417 -0.7146
14791TIP3    H265789   3.762   1.179  16.139  2.3396 -0.8170 -2.1929
14792TIP3   OH265790   5.362   2.048  14.041  0.0561 -0.2337  0.4559
14792TIP3    H165791   5.298   1.987  14.003  0.8293 -0.8516  0.1299
14792TIP3    H265792   5.413   2.079  13.967 -0.8230  1.4218  0.5215
14793TIP3   OH265793   1.825   1.540  15.117 -0.1463 -0.2234 -0.8625
14793TIP3    H165794   1.888   1.493  15.172  0.5499  0.5406 -1.0134
14793TIP3    H265795   1.809   1.622  15.163 -0.7243 -0.2422 -1.0304
14794TIP3   OH265796   3.424   3.841   0.152 -0.4588  0.3220  0.0303
14794TIP3    H165797   3.480   3.890   0.092  0.8676 -1.1682  0.0185
14794TIP3    H265798   3.337   3.881   0.141  0.0683  1.0450 -1.7745
14795TIP3   OH265799   4.977   3.869  11.768  0.3854  0.1686  0.0045
14795TIP3    H165800   4.941   3.824  11.692 -2.3486  0.5277  1.0515
14795TIP3    H265801   5.057   3.820  11.790 -0.5890 -1.9348 -1.0727
14796TIP3   OH265802   0.379   0.562  10.716  0.3790 -0.1983 -0.1856
14796TIP3    H165803   0.361   0.656  10.720  0.0010 -0.3015  0.5851
14796TIP3    H265804   0.474   0.557  10.702  0.1637  0.3119 -1.9603
14797TIP3   OH265805   0.241   4.859  16.700 -0.0574  0.1137 -0.5015
14797TIP3    H165806   0.215   4.947  16.673  0.9927  0.9739  1.1993
14797TIP3    H265807   0.306   4.873  16.769  0.0386 -1.9971 -0.1226
14798TIP3   OH265808   1.052   0.918  12.154  0.0055  0.3240  0.0463
14798TIP3    H165809   0.972   0.937  12.106 -0.5541  0.9895  1.2221
14798TIP3    H265810   1.058   0.988  12.220  2.0056  0.7910 -0.5947
14799TIP3   OH265811   5.695   4.855  16.127 -0.0768  0.0311 -0.8163
14799TIP3    H165812   5.725   4.786  16.187 -3.3469 -1.0696 -0.3368
14799TIP3    H265813   5.716   4.822  16.040  1.3992 -0.0141 -0.4583
14800TIP3   OH265814   6.678   1.196  11.779  0.1792 -0.4075 -0.0414
14800TIP3    H165815   6.597   1.201  11.728  0.8729 -1.6889 -1.3304
14800TIP3    H265816   6.652   1.212  11.869 -1.2408  0.9215 -0.6634
14801TIP3   OH265817   4.436   2.317  12.840  0.2178 -0.2762 -0.2022
14801TIP3    H165818   4.356   2.362  12.810 -0.8370 -1.0775  1.3292
14801TIP3    H265819   4.491   2.313  12.762 -1.9416 -1.2159 -1.7538
14802TIP3   OH265820   2.860   1.393   4.928 -0.2344 -0.3320  0.0676
14802TIP3    H165821   2.905   1.443   4.996  1.6335  2.4425 -3.0546
14802TIP3    H265822   2.779   1.443   4.912 -0.4655 -0.7435 -0.0351
14803TIP3   OH265823   2.719   0.577  12.422 -0.1537  0.5889 -0.0345
14803TIP3    H165824   2.793   0.635  12.438 -0.0267  1.0069 -1.9459
14803TIP3    H265825   2.757   0.496  12.389 -0.3825 -0.2809  1.8277
14804TIP3   OH265826   4.996   5.069  13.266 -0.0944  0.7976 -0.0755
14804TIP3    H165827   4.988   5.153  13.313  2.0248  1.3558 -0.6706
14804TIP3    H265828   5.075   5.029  13.302  0.6706  0.5074 -2.0015
14805TIP3   OH265829   3.509   4.463   1.806 -0.5515  0.1621  0.0455
14805TIP3    H165830   3.604   4.465   1.818 -0.2159  0.7997 -2.4477
14805TIP3    H265831   3.492   4.382   1.758 -1.2974 -0.0522  0.6617
14806TIP3   OH265832   3.457   5.335   2.867  0.4568 -0.0847 -0.5815
14806TIP3    H165833   3.459   5.431   2.866  0.5031 -0.0986 -2.0161
14806TIP3    H265834   3.422   5.310   2.782 -1.9141 -1.3170  0.7101
14807TIP3   OH265835   4.624   1.090  16.975  0.6944 -0.3124 -0.0270
14807TIP3    H165836   4.599   1.175  17.011  0.4354  0.1156 -1.2199
14807TIP3    H265837   4.712   1.075  17.011  0.2592 -0.1137  1.1641
14808TIP3   OH265838   2.313   6.164  16.600 -0.3475 -0.0527  0.3263
14808TIP3    H165839   2.270   6.081  16.619  1.3949 -1.0401  0.0138
14808TIP3    H265840   2.367   6.146  16.523 -0.6793  1.6294 -0.3308
14809TIP3   OH265841   3.737   4.918   2.956 -0.2397 -0.3786  0.6478
14809TIP3    H165842   3.816   4.954   2.998  0.0707 -0.5458  0.1999
14809TIP3    H265843   3.664   4.957   3.006  0.1382 -0.9075  1.6127
14810TIP3   OH265844   0.123   6.363   0.356 -0.7426  0.9351  0.2146
14810TIP3    H165845   0.062   6.290   0.341  0.0844  0.1990  0.4073
14810TIP3    H265846   0.155   6.350   0.445  0.7079  0.5456 -0.3416
14811TIP3   OH265847   1.080   0.875   0.860 -0.1418 -0.5151 -0.7485
14811TIP3    H165848   1.021   0.881   0.935 -0.8006 -2.3066 -1.0890
14811TIP3    H265849   1.167   0.869   0.899 -0.3573  0.0016 -0.1760
14812TIP3   OH265850   3.030   5.586  15.248 -0.3271 -0.4074 -0.4174
14812TIP3    H165851   3.017   5.669  15.295  1.9929 -0.0942 -0.2758
14812TIP3    H265852   3.034   5.520  15.317 -1.1842 -0.5229 -0.4695
14813TIP3   OH265853   3.761   1.497  12.828  0.0569 -0.8891  0.4849
14813TIP3    H165854   3.677   1.542  12.820  0.6652  0.4266  1.3874
14813TIP3    H265855   3.798   1.503  12.740  0.2992  0.7433  0.6746
14814TIP3   OH265856   0.516   4.845  11.076  0.3329 -0.5316 -0.4365
14814TIP3    H165857   0.584   4.909  11.095 -0.2427 -0.3391  0.9969
14814TIP3    H265858   0.537   4.813  10.987  0.1103  2.2560 -1.5260
14815TIP3   OH265859   2.044   5.483  14.456  0.0414 -0.3821 -0.1461
14815TIP3    H165860   1.961   5.517  14.490 -0.9653 -2.9915  0.1247
14815TIP3    H265861   2.110   5.544  14.490 -1.6920  1.5509 -0.0792
14816TIP3   OH265862   0.382   4.350  16.958  0.2807  0.2687  0.6107
14816TIP3    H165863   0.406   4.376  17.047  1.3491 -2.5829  1.2029
14816TIP3    H265864   0.430   4.410  16.901  1.1045  0.8705  1.9352
14817TIP3   OH265865   5.961   2.463  16.657 -0.5602 -0.1118 -0.2627
14817TIP3    H165866   6.050   2.461  16.620  0.1450  0.8579  1.3435
14817TIP3    H265867   5.957   2.386  16.713 -0.3004  0.4877  0.5972
14818TIP3   OH265868   1.276   5.607   6.528 -0.1108  0.6908  0.3105
14818TIP3    H165869   1.252   5.542   6.594 -0.9478  0.9502  0.2618
14818TIP3    H265870   1.212   5.595   6.458  1.2707 -0.1671 -0.8561
14819TIP3   OH265871   3.132   1.770   5.019  1.0142 -0.2607  0.0177
14819TIP3    H165872   3.039   1.762   5.000  0.7061  1.9593  0.5417
14819TIP3    H265873   3.142   1.856   5.058  2.9873 -1.2811  1.8967
14820TIP3   OH265874   2.228   2.495  16.060 -0.9909 -0.8481 -0.1437
14820TIP3    H165875   2.194   2.405  16.055  2.0393 -1.9890 -1.0118
14820TIP3    H265876   2.254   2.517  15.971 -1.0071  0.6174  0.1978
14821TIP3   OH265877   3.310   2.810   2.902  0.1314  0.4737  0.6469
14821TIP3    H165878   3.258   2.878   2.859 -1.2552 -1.6305 -1.1267
14821TIP3    H265879   3.397   2.818   2.862 -0.6349 -0.2276 -1.2091
14822TIP3   OH265880   3.378   4.664  11.849 -0.6295 -0.1355  0.1787
14822TIP3    H165881   3.456   4.609  11.844  0.0198  0.7981 -0.0293
14822TIP3    H265882   3.380   4.701  11.937 -0.5507  0.3094 -0.0072
14823TIP3   OH265883   3.105   6.171  11.725 -0.6444 -0.5683 -0.3504
14823TIP3    H165884   3.083   6.172  11.632 -1.0645  1.3399 -0.2536
14823TIP3    H265885   3.195   6.138  11.728  0.0811  1.1894 -1.6293
14824TIP3   OH265886   1.316   2.448   0.641  0.1947  0.5569 -0.4225
14824TIP3    H165887   1.289   2.448   0.549  2.4615  1.0223 -1.1195
14824TIP3    H265888   1.390   2.508   0.644  0.7622 -0.2130  1.5279
14825TIP3   OH265889   2.223   4.178  14.292 -0.0363  0.4568 -0.3660
14825TIP3    H165890   2.286   4.237  14.333  0.4513  0.0065 -0.4707
14825TIP3    H265891   2.202   4.114  14.360 -0.3558  0.5808 -0.3443
14826TIP3   OH265892   1.478   3.146   3.447  0.2366  0.2248  0.7706
14826TIP3    H165893   1.517   3.070   3.490  0.3118 -0.3782 -0.3494
14826TIP3    H265894   1.386   3.122   3.435 -0.3884  1.4005  2.8509
14827TIP3   OH265895   4.281   2.275  15.541  0.2099  0.3763 -0.3823
14827TIP3    H165896   4.201   2.268  15.594  0.1661 -1.3622 -0.6541
14827TIP3    H265897   4.331   2.196  15.563  0.7438  0.2401 -2.0241
14828TIP3   OH265898   1.993   1.201   3.185 -0.4166 -0.0607  0.1802
14828TIP3    H165899   1.937   1.264   3.140 -0.3806  0.0543  0.2958
14828TIP3    H265900   2.080   1.241   3.183 -0.2485 -0.4442 -0.4002
14829TIP3   OH265901   2.716   2.240  14.715 -0.2925  0.3487 -0.5924
14829TIP3    H165902   2.648   2.300  14.686 -0.9558 -0.0494  0.1061
14829TIP3    H265903   2.752   2.280  14.794  0.8908  0.9889 -1.4459
14830TIP3   OH265904   3.583   1.463   6.732 -0.1558  0.4550  0.4871
14830TIP3    H165905   3.667   1.468   6.687 -0.8749  0.7747 -0.8514
14830TIP3    H265906   3.591   1.526   6.804  1.6732 -1.4311  1.9994
14831TIP3   OH265907   2.301   4.595   5.453  0.0519  0.3305  0.3509
14831TIP3    H165908   2.229   4.645   5.414  1.6107  0.9109 -1.8666
14831TIP3    H265909   2.371   4.659   5.464  0.7536 -0.5600  1.1034
14832TIP3   OH265910   4.745   1.261  13.718 -0.1244 -0.2540 -0.5508
14832TIP3    H165911   4.679   1.191  13.718 -0.6347  0.2140  0.0379
14832TIP3    H265912   4.818   1.226  13.668 -1.6306 -0.0332 -2.9670
14833TIP3   OH265913   6.027   5.742  14.617  0.5375 -0.7209  0.8336
14833TIP3    H165914   6.113   5.782  14.630  0.0392 -0.1565  2.5052
14833TIP3    H265915   6.046   5.653  14.588  1.7314 -1.2605  3.1700
14834TIP3   OH265916   5.461   1.429  15.884 -0.2341  0.1271 -0.1425
14834TIP3    H165917   5.482   1.349  15.931  2.3775  0.9766  0.1941
14834TIP3    H265918   5.431   1.398  15.798 -0.7505 -1.2573  0.5211
14835TIP3   OH265919   6.766   2.889  10.645  0.5116 -0.7554 -0.4368
14835TIP3    H165920   6.805   2.940  10.716  0.4077 -1.9454  0.5026
14835TIP3    H265921   6.834   2.883  10.578  1.0006 -0.5527  0.0422
14836TIP3   OH265922   3.582   3.644  13.870  0.9845 -0.1622 -0.1353
14836TIP3    H165923   3.487   3.632  13.871  0.9657  0.0735  1.4694
14836TIP3    H265924   3.597   3.724  13.919  2.0153 -0.1594 -0.4358
14837TIP3   OH265925   0.252   2.304  15.851 -0.3112  0.2789 -0.2107
14837TIP3    H165926   0.168   2.308  15.897 -0.7382 -0.4242 -0.9002
14837TIP3    H265927   0.277   2.395  15.839 -1.9530  0.5669 -1.7084
14838TIP3   OH265928   4.142   2.188   2.414 -0.4884  0.1852  0.8141
14838TIP3    H165929   4.171   2.223   2.330 -0.4686  0.6954  1.0334
14838TIP3    H265930   4.088   2.257   2.452  1.4248  0.9012  2.2779
14839TIP3   OH265931   3.173   1.603  10.878 -0.3456 -0.0343  0.2609
14839TIP3    H165932   3.120   1.524  10.869 -1.8348  1.0085 -0.4739
14839TIP3    H265933   3.206   1.620  10.789  2.5555 -1.5336  0.9929
14840TIP3   OH265934   1.657   5.984  14.014  0.2647 -0.3870  0.0495
14840TIP3    H165935   1.649   5.900  13.969  0.4675 -0.2509 -0.2372
14840TIP3    H265936   1.626   5.966  14.103 -0.1492 -0.6486 -0.1437
14841TIP3   OH265937   1.367   6.369  12.531 -0.0098 -0.4503  0.6513
14841TIP3    H165938   1.458   6.352  12.507 -0.0034 -1.5736  1.4457
14841TIP3    H265939   1.328   6.404  12.451  1.4534  1.3846  0.7061
14842TIP3   OH265940   5.050   1.384  14.763  0.1584 -0.0692 -0.3707
14842TIP3    H165941   4.996   1.331  14.704  1.0745 -0.7089 -0.6456
14842TIP3    H265942   5.132   1.335  14.771  0.5744  0.7262  0.3086
14843TIP3   OH265943   1.251   0.393   6.390  0.5980  0.1518 -0.0274
14843TIP3    H165944   1.311   0.332   6.432  0.8098 -1.4733 -2.6152
14843TIP3    H265945   1.163   0.364   6.416  0.8259  1.0818  1.8213
14844TIP3   OH265946   4.266   0.564   4.328  0.3662 -0.6697 -0.1269
14844TIP3    H165947   4.230   0.618   4.258  1.3194  1.0611  0.6989
14844TIP3    H265948   4.360   0.564   4.313  0.5079 -0.8977  0.7404
14845TIP3   OH265949   3.524   1.537  12.177  0.1997  0.5230  0.2651
14845TIP3    H165950   3.448   1.480  12.166 -0.2891  0.6685  2.6206
14845TIP3    H265951   3.595   1.492  12.132 -0.9844 -0.2230 -0.8827
14846TIP3   OH265952   6.450   0.049   5.429 -0.1947 -0.2623  0.2556
14846TIP3    H165953   6.513   0.056   5.357  0.0944  1.1206  0.6317
14846TIP3    H265954   6.447  -0.045   5.449  0.2977 -0.5654 -1.0439
14847TIP3   OH265955   0.194   5.857  15.552 -0.3082 -0.0906 -0.0317
14847TIP3    H165956   0.238   5.915  15.490 -2.0698  2.0072  0.6040
14847TIP3    H265957   0.264   5.800  15.586  1.6526  2.2476 -0.0266
14848TIP3   OH265958   4.400   3.060  11.959 -0.3847 -0.1827 -0.3107
14848TIP3    H165959   4.471   3.119  11.932  1.0869 -2.1504 -0.8894
14848TIP3    H265960   4.387   3.079  12.052 -0.5410  1.6605 -0.7008
14849TIP3   OH265961   5.986   5.503   2.546  0.2506  0.0192  0.7178
14849TIP3    H165962   5.944   5.497   2.460  1.2427 -1.2817  0.2998
14849TIP3    H265963   5.974   5.595   2.572 -2.1259 -0.1265  0.2736
14850TIP3   OH265964   1.077   0.732  10.835  0.7591  0.5880  0.0455
14850TIP3    H165965   1.011   0.675  10.797  0.8700  2.4217 -3.1034
14850TIP3    H265966   1.161   0.697  10.805  1.0563  0.0789  1.4403
14851TIP3   OH265967   0.217   0.372  16.218  0.5524 -0.2770  0.0211
14851TIP3    H165968   0.128   0.405  16.207  0.4789 -0.1437  0.9856
14851TIP3    H265969   0.251   0.364  16.128 -1.5317 -3.3837 -0.5952
14852TIP3   OH265970   4.347   3.035  14.061 -0.4402 -0.0476  0.3522
14852TIP3    H165971   4.366   3.086  13.982  0.2669  0.4390  0.8311
14852TIP3    H265972   4.433   3.016  14.098 -0.8133  0.4581  1.4784
14853TIP3   OH265973   0.310   3.119   5.010  0.0430 -0.4982  0.0108
14853TIP3    H165974   0.304   3.051   5.076  1.4670 -1.4029 -0.7625
14853TIP3    H265975   0.378   3.088   4.950 -2.3560 -0.4582 -2.7827
14854TIP3   OH265976   4.934   4.505  15.460 -0.1946 -0.0691 -0.2669
14854TIP3    H165977   4.926   4.483  15.367 -0.8515 -1.2859  0.0761
14854TIP3    H265978   4.936   4.601  15.461  0.3285 -0.0488 -1.5697
14855TIP3   OH265979   2.445   3.097   2.673  0.3083  0.0440  0.2053
14855TIP3    H165980   2.457   3.097   2.768 -1.3354  0.4284  0.4279
14855TIP3    H265981   2.389   3.173   2.656 -2.2360 -2.0049 -0.6858
14856TIP3   OH265982   0.159   6.786   0.963 -0.1149  0.0688  0.4472
14856TIP3    H165983   0.101   6.861   0.949 -0.0043  0.2662  1.0344
14856TIP3    H265984   0.148   6.732   0.885 -1.9458 -0.4603  1.0598
14857TIP3   OH265985   0.068   5.975  13.676  0.4525  0.1016 -0.5411
14857TIP3    H165986   0.134   6.032  13.636 -0.0305  0.4483 -0.8554
14857TIP3    H265987   0.033   5.923  13.604 -0.2643  0.5717 -0.5449
14858TIP3   OH265988   5.086   5.822  15.750 -0.4976 -0.5284  0.0715
14858TIP3    H165989   5.058   5.854  15.836  0.7885 -0.2370  0.3990
14858TIP3    H265990   5.109   5.730  15.764  2.7658  0.3306  0.7998
14859TIP3   OH265991   2.539   0.514  11.569  0.3159  0.4198 -0.5424
14859TIP3    H165992   2.533   0.436  11.513  0.9530 -0.6460  0.8557
14859TIP3    H265993   2.467   0.570  11.539 -0.0345 -0.6195 -1.6927
14860TIP3   OH265994   3.602   5.718   0.928 -0.5486 -0.3897 -0.5272
14860TIP3    H165995   3.531   5.753   0.874 -0.0839  0.1967 -0.7724
14860TIP3    H265996   3.654   5.795   0.952 -0.5237 -0.6948  0.4337
14861TIP3   OH265997   2.287   5.808   5.996 -0.3247 -0.3826 -0.3677
14861TIP3    H165998   2.343   5.791   6.072  1.4926 -0.6683 -1.7498
14861TIP3    H265999   2.214   5.747   6.006  1.2478 -2.2840 -0.2172
14862TIP3   OH266000   0.991   6.483   5.076 -0.5862 -0.1506 -0.8944
14862TIP3    H166001   0.923   6.424   5.043 -1.0456  0.0479 -0.3125
14862TIP3    H266002   0.986   6.560   5.019 -0.7213 -0.2140 -0.9680
14863TIP3   OH266003   5.898   6.042   2.219 -0.1348 -0.0897  0.0894
14863TIP3    H166004   5.949   5.962   2.209 -0.6755 -0.3353 -0.8273
14863TIP3    H266005   5.808   6.012   2.230 -0.5901  0.3993 -1.9556
14864TIP3   OH266006   5.546   2.879   4.105 -0.0925 -0.2350 -0.1126
14864TIP3    H166007   5.606   2.933   4.054 -0.5261  0.0736 -0.3005
14864TIP3    H266008   5.589   2.794   4.112  0.7226  0.2158  0.4192
14865TIP3   OH266009   1.388   1.659   1.683  0.4157 -0.2874 -0.1230
14865TIP3    H166010   1.437   1.634   1.761  0.1348 -0.2637  0.0614
14865TIP3    H266011   1.353   1.576   1.649 -0.5786 -0.1446  0.5307
14866TIP3   OH266012   5.820   3.718   2.691 -0.2322  0.4087 -0.4662
14866TIP3    H166013   5.754   3.781   2.719  0.9433  0.4780  2.3240
14866TIP3    H266014   5.795   3.636   2.733 -0.5028 -0.4623 -2.2775
14867TIP3   OH266015   3.574   1.063  14.607  0.1794 -0.2983 -0.1116
14867TIP3    H166016   3.655   1.053  14.558  0.8591  2.2060  0.4378
14867TIP3    H266017   3.572   1.156  14.632 -2.3795 -0.5321  0.6880
14868TIP3   OH266018   2.365   5.953  16.974 -0.4095 -0.0452 -0.1803
14868TIP3    H166019   2.332   5.996  17.053 -0.5244  0.3181 -0.4216
14868TIP3    H266020   2.315   5.992  16.902 -1.3520 -1.4583 -0.3005
14869TIP3   OH266021   5.590   5.146   3.642 -0.4956 -0.1690 -0.0014
14869TIP3    H166022   5.548   5.111   3.721  0.5115 -2.2488 -0.3553
14869TIP3    H266023   5.521   5.139   3.575 -0.2817 -1.6667 -0.0987
14870TIP3   OH266024   6.232   1.643   2.974  0.3503 -0.2832 -0.5486
14870TIP3    H166025   6.172   1.618   2.904  0.6523 -1.8015 -0.3028
14870TIP3    H266026   6.203   1.592   3.049  0.2901  1.0178  0.3126
14871TIP3   OH266027   6.639   5.536  12.126  0.3810  0.5312  0.0416
14871TIP3    H166028   6.565   5.500  12.077  0.0246 -0.4991  1.2827
14871TIP3    H266029   6.692   5.583  12.061 -1.5020  1.5184 -0.8032
14872TIP3   OH266030   1.214   2.243  15.558  0.1075  0.4191 -0.1825
14872TIP3    H166031   1.219   2.332  15.522  0.4983  0.5395  0.1650
14872TIP3    H266032   1.305   2.212  15.557 -0.3050 -0.9298 -2.6946
14873TIP3   OH266033   2.210   1.178  12.457  0.3112  0.5836  0.0594
14873TIP3    H166034   2.177   1.152  12.371  1.4460 -1.7991  0.3137
14873TIP3    H266035   2.297   1.138  12.462  0.3642  0.9496  2.1898
14874TIP3   OH266036   5.360   4.124  15.530  0.1079 -0.4782 -0.5400
14874TIP3    H166037   5.320   4.146  15.445  1.2811  1.3893 -0.6417
14874TIP3    H266038   5.286   4.101  15.586 -0.7807 -0.7378 -1.7942
14875TIP3   OH266039   5.316   2.491  13.572  0.4334  0.2163 -0.0029
14875TIP3    H166040   5.229   2.510  13.608 -0.0093 -1.6901 -0.0318
14875TIP3    H266041   5.375   2.547  13.623 -0.7953  1.6086 -0.0449
14876TIP3   OH266042   0.539   2.584  16.602  0.0201 -0.6312 -0.8654
14876TIP3    H166043   0.464   2.619  16.651 -0.4415 -1.8501 -0.6732
14876TIP3    H266044   0.499   2.534  16.530  0.6920  0.8125 -2.2613
14877TIP3   OH266045   3.176   0.071  17.078  0.1695  0.0973 -0.1331
14877TIP3    H166046   3.178  -0.025  17.077 -0.2100  0.1027 -1.0245
14877TIP3    H266047   3.115   0.093  17.149 -0.3580 -0.3205 -0.4586
14878TIP3   OH266048   0.459   4.783  12.266 -0.3131  0.1419 -0.4164
14878TIP3    H166049   0.514   4.839  12.321 -0.7129 -0.3635  0.5120
14878TIP3    H266050   0.521   4.727  12.219 -0.0319 -0.5336  0.7433
14879TIP3   OH266051   0.970   0.369   1.812  0.3292  0.3188 -0.0359
14879TIP3    H166052   0.957   0.372   1.907  0.8078  1.0191  0.0046
14879TIP3    H266053   0.986   0.459   1.787 -0.9268  0.3043 -0.9529
14880TIP3   OH266054   2.640   1.626   1.497 -0.3974  0.0120 -0.2342
14880TIP3    H166055   2.549   1.604   1.478 -0.6968  1.4255 -0.4685
14880TIP3    H266056   2.651   1.605   1.590 -1.1438  0.4696 -0.0446
14881TIP3   OH266057   5.198   1.960  11.842  0.3323 -0.0404 -0.0960
14881TIP3    H166058   5.279   1.999  11.810 -1.3648  2.1017 -1.9073
14881TIP3    H266059   5.165   2.023  11.907 -1.2653  0.4843 -1.3892
14882TIP3   OH266060   6.063   6.396  16.055 -0.6957 -0.3848  0.2268
14882TIP3    H166061   5.999   6.442  16.110  1.0693  0.4030  1.6684
14882TIP3    H266062   6.064   6.444  15.973 -1.0204  0.3799  0.6699
14883TIP3   OH266063   4.078   3.904   1.836  0.1774 -0.0433  0.3137
14883TIP3    H166064   4.078   3.818   1.878 -0.9074 -0.4586 -0.5196
14883TIP3    H266065   4.021   3.894   1.760  1.0462  1.0677 -0.5073
14884TIP3   OH266066   6.743   1.987   0.326 -1.2172  0.3751  0.0621
14884TIP3    H166067   6.687   2.037   0.267 -1.5095 -0.0735 -0.0382
14884TIP3    H266068   6.805   1.943   0.268  0.1517  1.9714  0.2454
14885TIP3   OH266069   2.410   2.347  12.861  0.5236 -0.4762  0.2640
14885TIP3    H166070   2.335   2.351  12.921 -0.5949 -1.4723 -1.0329
14885TIP3    H266071   2.399   2.265  12.814  1.7208 -0.0037 -0.8801
14886TIP3   OH266072   3.119   4.454   3.444 -0.7345 -0.0353  0.2304
14886TIP3    H166073   3.144   4.478   3.533 -0.6303  0.3119  0.1064
14886TIP3    H266074   3.057   4.521   3.417 -0.2815  0.2199 -0.1914
14887TIP3   OH266075   5.167   3.060   4.631 -0.0331  0.0732  0.3802
14887TIP3    H166076   5.163   3.129   4.698 -0.3566  0.0340  0.4057
14887TIP3    H266077   5.259   3.053   4.609  0.0252  0.3797  0.5218
14888TIP3   OH266078   4.153   6.607  16.633 -0.5246 -0.5318 -0.4041
14888TIP3    H166079   4.236   6.655  16.625 -0.4201 -0.9791 -2.5395
14888TIP3    H266080   4.111   6.643  16.711  1.7950 -0.4701  0.8597
14889TIP3   OH266081   2.035   5.161  13.894  0.2818 -0.1213  0.6863
14889TIP3    H166082   2.042   5.070  13.924  1.0435  0.0487  1.0293
14889TIP3    H266083   1.990   5.206  13.965 -0.2535 -0.2587  0.4407
14890TIP3   OH266084   5.007   0.265  14.406 -0.1744  0.4961  0.6331
14890TIP3    H166085   5.061   0.219  14.470  0.1610  0.5994  0.4261
14890TIP3    H266086   5.050   0.350  14.394  0.6361 -0.1098 -0.8785
14891TIP3   OH266087   3.085   4.794   3.247  0.2844  0.1546  0.7132
14891TIP3    H166088   3.168   4.815   3.291 -0.5110  2.9686  0.9651
14891TIP3    H266089   3.040   4.735   3.308  1.1299  0.4408  1.6406
14892TIP3   OH266090   2.522   1.851  16.858 -0.1954 -0.1917  0.2688
14892TIP3    H166091   2.529   1.789  16.931  0.9915 -2.1123 -1.4174
14892TIP3    H266092   2.585   1.920  16.879 -0.8390 -0.0265  1.7071
14893TIP3   OH266093   6.022   2.143   0.343  0.3840  0.4949  0.7025
14893TIP3    H166094   6.090   2.086   0.379 -0.0465 -0.1583  0.4977
14893TIP3    H266095   6.030   2.132   0.248 -0.1098  0.2803  0.6808
14894TIP3   OH266096   2.946   6.288  14.228 -0.9575  0.0837 -0.2964
14894TIP3    H166097   2.908   6.373  14.208  0.9536  0.6749 -1.5819
14894TIP3    H266098   2.921   6.232  14.155  1.1964  0.6775 -1.5298
14895TIP3   OH266099   1.396   3.303   1.878  0.7950 -0.2529 -0.2905
14895TIP3    H166100   1.406   3.257   1.795 -0.7521 -1.7141  0.2873
14895TIP3    H266101   1.401   3.396   1.855 -1.5932 -0.5729 -2.3348
14896TIP3   OH266102   0.751   3.916   5.787  0.0458  0.0513 -0.5671
14896TIP3    H166103   0.815   3.854   5.824  0.2069 -0.2566 -1.3603
14896TIP3    H266104   0.668   3.892   5.829  0.1688 -0.4901 -0.6234
14897TIP3   OH266105   5.866   2.347   2.660 -0.0604 -0.1821 -0.2213
14897TIP3    H166106   5.898   2.261   2.632  2.0166  0.0312  1.4331
14897TIP3    H266107   5.816   2.330   2.740  0.0405  0.1100 -0.0946
14898TIP3   OH266108   6.094   2.150  14.376  0.3898  0.2472  0.4111
14898TIP3    H166109   6.159   2.218  14.395  0.3228  1.1207 -2.2734
14898TIP3    H266110   6.012   2.198  14.366  0.0111 -0.4464  0.2037
14899TIP3   OH266111   2.521   2.543  15.343  0.1374  0.1489 -1.0172
14899TIP3    H166112   2.578   2.593  15.285 -1.0376  2.7056 -0.0130
14899TIP3    H266113   2.486   2.473  15.287  2.2151  0.0864 -2.2995
14900TIP3   OH266114   4.126   2.794  14.651 -0.2078  0.2109  0.0546
14900TIP3    H166115   4.180   2.723  14.617  1.7293  1.3450  0.6671
14900TIP3    H266116   4.111   2.771  14.743 -1.5386 -0.5318 -0.3276
14901TIP3   OH266117   1.394   4.052  14.753  0.1558 -0.1012 -0.4951
14901TIP3    H166118   1.376   4.020  14.841 -2.3478 -0.0795 -0.9564
14901TIP3    H266119   1.350   4.137  14.749  2.0801  0.8862 -1.0738
14902TIP3   OH266120   1.343   0.073   1.765 -0.0290  0.0396 -0.8137
14902TIP3    H166121   1.318   0.165   1.771 -0.9328 -0.1027 -2.2545
14902TIP3    H266122   1.324   0.037   1.851  0.0631  1.1388 -0.3303
14903TIP3   OH266123   1.402   2.784  16.903  0.0044  0.0505  0.4542
14903TIP3    H166124   1.348   2.854  16.941  0.4981  1.1469 -0.8539
14903TIP3    H266125   1.416   2.724  16.976 -2.8188 -0.1668  0.8826
14904TIP3   OH266126   5.445   0.232  15.281 -0.0247 -0.0101  0.2462
14904TIP3    H166127   5.391   0.262  15.354 -0.6608 -1.1610  0.2529
14904TIP3    H266128   5.431   0.298  15.213  0.0578  0.7144  0.9167
14905TIP3   OH266129   1.963   0.726  17.108 -0.2352  0.1453 -0.1596
14905TIP3    H166130   2.038   0.774  17.142  1.2219 -1.0071 -1.6577
14905TIP3    H266131   1.950   0.760  17.019 -1.1338 -0.0600 -0.1160
14906TIP3   OH266132   1.147   6.355   3.229 -0.0492 -0.1701 -0.6160
14906TIP3    H166133   1.159   6.444   3.196  0.7560 -1.0068 -2.7211
14906TIP3    H266134   1.060   6.329   3.199  0.1290 -0.4412 -0.9125
14907TIP3   OH266135   0.471   2.827   1.794  0.5432  0.1368 -0.0662
14907TIP3    H166136   0.488   2.787   1.708 -1.4495  3.1626 -1.9338
14907TIP3    H266137   0.539   2.893   1.803 -0.3431  1.0720 -0.1626
14908TIP3   OH266138   1.077   1.844  14.486 -0.6768 -0.2805  0.5802
14908TIP3    H166139   1.076   1.800  14.571 -3.1930 -2.0557 -0.2868
14908TIP3    H266140   1.082   1.773  14.422  2.1482  1.0604 -0.7941
14909TIP3   OH266141   2.101   5.914  12.222 -0.3932 -0.8163 -0.0577
14909TIP3    H166142   2.178   5.857  12.228  0.0347 -0.5086 -2.0223
14909TIP3    H266143   2.032   5.867  12.270  0.6369 -1.7728  0.5098
14910TIP3   OH266144   0.283   5.733  15.175  0.1159  0.2006 -0.4604
14910TIP3    H166145   0.371   5.706  15.147 -0.9408 -0.9707 -2.8050
14910TIP3    H266146   0.232   5.736  15.094 -1.7391  1.9610  0.7373
14911TIP3   OH266147   1.930   6.535   1.443 -0.4539 -0.4574 -0.2648
14911TIP3    H166148   1.839   6.552   1.419 -0.2695  0.7035 -0.1733
14911TIP3    H266149   1.927   6.454   1.494 -1.6200  0.2934  0.8901
14912TIP3   OH266150   3.963   3.432  16.765 -0.0072 -0.5675 -0.2053
14912TIP3    H166151   3.917   3.516  16.766  2.0354  0.5933  0.9913
14912TIP3    H266152   3.923   3.381  16.835 -0.9399 -0.4331 -0.6284
14913TIP3   OH266153   6.019   0.469  13.764  0.2397  0.1049  0.2348
14913TIP3    H166154   6.071   0.491  13.841 -0.2873  0.3620  0.5205
14913TIP3    H266155   5.946   0.417  13.798 -1.7099  2.8207  0.3524
14914TIP3   OH266156   1.123   6.430  15.215  0.4561  0.3688  0.1724
14914TIP3    H166157   1.138   6.388  15.131 -0.7239  0.9803 -0.3542
14914TIP3    H266158   1.209   6.460  15.243  0.6735  1.2889 -1.4280
14915TIP3   OH266159   6.366   1.921  14.650 -0.2033 -0.1460  0.2143
14915TIP3    H166160   6.285   1.881  14.618 -1.2754  1.0577  1.4043
14915TIP3    H266161   6.421   1.927  14.572 -0.9436 -1.6747 -0.4593
14916TIP3   OH266162   3.194   1.952   0.432  0.6577  0.6496  0.4042
14916TIP3    H166163   3.167   2.007   0.359  0.6301 -1.9918 -1.6672
14916TIP3    H266164   3.289   1.946   0.425  0.4338 -1.9252 -1.2420
14917TIP3   OH266165   0.690   4.676  11.587 -0.3829 -0.2487 -0.1850
14917TIP3    H166166   0.666   4.627  11.666 -1.2335  1.1016  0.4059
14917TIP3    H266167   0.779   4.645  11.567 -0.0186 -0.3807  1.4963
14918TIP3   OH266168   0.810   3.835  12.273 -0.0438 -0.5324 -0.1961
14918TIP3    H166169   0.792   3.813  12.182 -0.9429  1.0786 -0.4360
14918TIP3    H266170   0.724   3.834  12.315  0.5848 -3.2615  1.1242
14919TIP3   OH266171   1.217   4.598   1.904  0.4610  0.1856 -0.3033
14919TIP3    H166172   1.227   4.675   1.849 -1.2853  1.2750  0.8463
14919TIP3    H266173   1.138   4.554   1.871  1.0068 -0.6875 -0.4617
14920TIP3   OH266174   3.912   2.202  15.150 -0.0425  0.1299 -0.1488
14920TIP3    H166175   3.976   2.132  15.140  0.6750  0.4438  1.9955
14920TIP3    H266176   3.850   2.169  15.215 -0.6372  0.8364 -0.3432
14921TIP3   OH266177   6.145   3.337  13.495 -0.1964 -0.3078 -0.0462
14921TIP3    H166178   6.099   3.409  13.537 -0.7319 -1.2052  0.9226
14921TIP3    H266179   6.195   3.378  13.424 -2.1592  0.7397 -0.8628
14922TIP3   OH266180   6.289   4.195  16.094  0.5050  0.4695  0.0074
14922TIP3    H166181   6.288   4.100  16.091 -1.4611  0.4793 -0.3869
14922TIP3    H266182   6.298   4.217  16.186 -0.6061 -0.1099  0.2598
14923TIP3   OH266183   2.656   5.934  14.028  0.2531  0.1241 -0.2907
14923TIP3    H166184   2.597   5.995  13.982 -1.6225 -2.0293 -0.8622
14923TIP3    H266185   2.627   5.937  14.119  0.5789  0.5471 -0.1984
14924TIP3   OH266186   3.607   2.975  15.758  0.4403  0.0150 -0.0803
14924TIP3    H166187   3.606   2.921  15.836 -1.6352 -0.4420 -0.3975
14924TIP3    H266188   3.573   3.060  15.786  1.1038  0.3186 -0.1734
14925TIP3   OH266189   5.051   3.835   6.318  0.4747 -0.2644  0.2540
14925TIP3    H166190   5.143   3.856   6.331  0.4579 -1.2702  2.2713
14925TIP3    H266191   5.009   3.858   6.401 -0.8673 -0.9457 -0.2187
14926TIP3   OH266192   5.732   2.068  16.491 -0.0263  0.2898 -0.6671
14926TIP3    H166193   5.683   2.092  16.413 -1.9843 -0.0642  0.4193
14926TIP3    H266194   5.724   1.973  16.497  1.5168  0.1339 -0.9323
14927TIP3   OH266195   6.783   2.468   3.292 -0.6279  0.1171 -0.5565
14927TIP3    H166196   6.839   2.459   3.215 -0.6261 -0.6207 -0.4698
14927TIP3    H266197   6.803   2.391   3.346  0.8683  1.6529  1.1605
14928TIP3   OH266198   3.632   0.999  13.604  0.0806 -0.0115 -0.1319
14928TIP3    H166199   3.603   0.923  13.553  1.4497  0.5456 -1.7694
14928TIP3    H266200   3.617   1.074  13.547  0.5816  0.7502  0.7220
14929TIP3   OH266201   0.705   4.391   5.228 -0.2744 -0.4864  0.4496
14929TIP3    H166202   0.726   4.474   5.270 -1.1524  0.4402 -0.9060
14929TIP3    H266203   0.753   4.326   5.279 -0.1731  0.7582  1.9830
14930TIP3   OH266204   6.311   0.078  12.180 -0.2185 -0.4261  0.3436
14930TIP3    H166205   6.354   0.142  12.236 -1.1929  0.1661  0.4233
14930TIP3    H266206   6.286   0.127  12.102  2.9746 -1.6824 -1.5828
14931TIP3   OH266207   5.871   1.592  13.733 -0.6451  0.5061  0.3753
14931TIP3    H166208   5.887   1.674  13.685  0.4748 -0.0272 -0.1920
14931TIP3    H266209   5.825   1.536  13.671  1.8135 -0.6026 -0.5266
14932TIP3   OH266210   2.796   1.709   2.527  0.4182 -0.0348  0.3602
14932TIP3    H166211   2.810   1.763   2.604 -1.3433  0.9659 -0.0075
14932TIP3    H266212   2.772   1.770   2.458 -2.0021 -1.2852  0.0351
14933TIP3   OH266213   2.669   1.530  16.556  0.2543 -0.5922  0.3070
14933TIP3    H166214   2.721   1.480  16.619  1.4106  0.3305  0.0973
14933TIP3    H266215   2.730   1.593  16.519 -1.3055  1.3667  0.9926
14934TIP3   OH266216   0.536   6.055   5.463  0.2506  0.2027 -0.3343
14934TIP3    H166217   0.468   5.993   5.490  1.2062  0.2337  2.3256
14934TIP3    H266218   0.617   6.018   5.498  0.8958  2.7132  0.9266
14935TIP3   OH266219   3.104   2.578   4.975  0.5262  0.0559  0.4649
14935TIP3    H166220   3.036   2.513   4.994 -1.3257  1.1502 -2.1463
14935TIP3    H266221   3.082   2.652   5.031 -1.8526  1.2854 -1.9980
14936TIP3   OH266222   0.422   1.381   2.631 -0.2589 -0.1079 -0.0882
14936TIP3    H166223   0.412   1.293   2.594 -1.5443 -0.1940  0.4469
14936TIP3    H266224   0.336   1.420   2.623  0.4075  1.2625 -0.6872
14937TIP3   OH266225   1.968   5.068   5.313  0.1727  0.4143  0.7773
14937TIP3    H166226   1.942   5.160   5.320 -0.8788  0.3775 -2.0620
14937TIP3    H266227   2.013   5.062   5.229 -1.4647 -2.0758  0.0403
14938TIP3   OH266228   6.110   1.910   3.270  0.6835 -0.3337  0.5525
14938TIP3    H166229   6.183   1.936   3.326  1.6905  1.5764 -1.5717
14938TIP3    H266230   6.127   1.953   3.186 -2.3939 -0.5970 -0.2861
14939TIP3   OH266231   3.651   4.843  13.156  0.4593 -0.2390  0.8532
14939TIP3    H166232   3.638   4.776  13.089 -1.4827 -0.5817  1.5474
14939TIP3    H266233   3.611   4.922  13.119  0.9824  0.0403  0.8714
14940TIP3   OH266234   5.650   3.210  14.927 -0.5019  0.4659 -0.1536
14940TIP3    H166235   5.634   3.161  15.008  2.2015  2.5166  1.6986
14940TIP3    H266236   5.690   3.146  14.868 -2.1669 -0.9568  0.1950
14941TIP3   OH266237   3.373   6.491  14.804 -0.5315  0.1671  0.0549
14941TIP3    H166238   3.390   6.465  14.714 -1.3614  0.0545 -0.0804
14941TIP3    H266239   3.413   6.577  14.813  0.5255 -0.3081 -0.0891
14942TIP3   OH266240   5.098   4.353  15.941 -0.5358 -0.0724 -0.1942
14942TIP3    H166241   5.052   4.402  16.010 -0.5854 -0.7720  0.2707
14942TIP3    H266242   5.049   4.374  15.861 -3.3907 -2.9360  0.6849
14943TIP3   OH266243   6.740   3.545  12.946 -0.0558  0.1626  0.1577
14943TIP3    H166244   6.664   3.584  12.904 -0.0875  0.6850  0.6967
14943TIP3    H266245   6.734   3.573  13.037  0.6302 -0.0223  0.2618
14944TIP3   OH266246   1.983   3.020   5.108  0.0123  0.0714  0.2003
14944TIP3    H166247   2.070   3.032   5.071  1.2286  0.6942  3.1372
14944TIP3    H266248   1.981   2.929   5.135 -0.6633 -0.2232 -0.7937
14945TIP3   OH266249   3.951   5.507   3.120 -0.5752  0.1317 -0.9846
14945TIP3    H166250   3.931   5.545   3.034 -0.2728 -0.6256 -1.3898
14945TIP3    H266251   4.043   5.480   3.114 -0.0605  1.5620  0.1249
14946TIP3   OH266252   0.547   2.026   2.705 -0.4768 -0.3385  0.1473
14946TIP3    H166253   0.457   2.047   2.729 -0.4954 -0.0885 -0.1413
14946TIP3    H266254   0.559   1.936   2.736 -0.3461  0.1400  1.4986
14947TIP3   OH266255   3.458   4.428   5.971 -0.3772  0.3005  0.2386
14947TIP3    H166256   3.420   4.357   6.022 -0.7801 -1.2350 -2.1346
14947TIP3    H266257   3.382   4.474   5.935 -0.0808  1.0210  0.5244
14948TIP3   OH266258   4.566   4.035   0.532 -0.9289 -0.5007 -0.2451
14948TIP3    H166259   4.628   4.091   0.578 -0.3956 -0.3174 -1.1698
14948TIP3    H266260   4.486   4.040   0.584 -1.0709  1.5844 -0.6204
14949TIP3   OH266261   1.087   2.245  14.265 -0.0931 -0.2680  0.2726
14949TIP3    H166262   1.107   2.331  14.229  0.0738 -0.8208 -0.9801
14949TIP3    H266263   1.068   2.261  14.357  0.4037  1.0417  0.1507
14950TIP3   OH266264   2.568   1.395   2.356 -0.2546  0.0008 -0.6027
14950TIP3    H166265   2.575   1.361   2.445 -0.6122 -0.6025 -0.8066
14950TIP3    H266266   2.535   1.484   2.368  0.5564  0.2383 -0.0810
14951TIP3   OH266267   4.756   6.416  14.591 -0.4515  0.2992 -0.0976
14951TIP3    H166268   4.825   6.482  14.584 -0.7049  0.6695  0.8028
14951TIP3    H266269   4.705   6.443  14.668 -0.5167 -0.9727  0.3191
14952TIP3   OH266270   6.440   4.819  14.673 -0.1023 -0.3230  0.6974
14952TIP3    H166271   6.414   4.868  14.751 -3.5694 -0.0219 -0.5785
14952TIP3    H266272   6.454   4.887  14.606 -1.1934 -0.8443 -0.0560
14953TIP3   OH266273   2.709   4.257   1.206 -0.3580  0.1699  0.1812
14953TIP3    H166274   2.740   4.243   1.295 -0.1568  0.1035  0.1016
14953TIP3    H266275   2.788   4.281   1.157 -0.4713  0.2274  0.0266
14954TIP3   OH266276   5.016   3.290  14.954  0.0325 -0.2392  0.3376
14954TIP3    H166277   4.983   3.287  14.864  0.2997 -3.1881  0.2921
14954TIP3    H266278   5.100   3.334  14.948 -0.6862  1.0339 -0.5951
14955TIP3   OH266279   3.215   4.466   3.699 -0.1128 -0.4685  0.3935
14955TIP3    H166280   3.254   4.542   3.743 -0.4095 -0.6168  0.9173
14955TIP3    H266281   3.210   4.399   3.767  2.2384 -1.7113 -0.6441
14956TIP3   OH266282   5.143   2.399   1.836  0.1248 -0.5513 -0.1790
14956TIP3    H166283   5.140   2.492   1.859  1.3303  0.0410 -2.2688
14956TIP3    H266284   5.231   2.371   1.862  0.7622 -0.3871 -2.1255
14957TIP3   OH266285   3.481   5.338   2.285 -0.1022 -0.2124  0.3306
14957TIP3    H166286   3.396   5.338   2.241 -0.5799  1.9510  1.1980
14957TIP3    H266287   3.511   5.247   2.279 -2.2499 -0.8983 -0.3971
14958TIP3   OH266288   4.718   3.692   0.039  0.6969 -0.1915 -0.0388
14958TIP3    H166289   4.793   3.742   0.008  1.1049  0.4411  1.9289
14958TIP3    H266290   4.653   3.758   0.064 -0.0995 -0.7206 -0.6603
14959TIP3   OH266291   6.655   3.305   1.633  0.4258 -0.1676 -0.0279
14959TIP3    H166292   6.678   3.397   1.646  0.8799 -0.3125  0.2012
14959TIP3    H266293   6.603   3.304   1.553 -0.5023  0.4351  0.5562
14960TIP3   OH266294   5.955   4.253   2.861  0.0492 -0.0185 -1.0906
14960TIP3    H166295   5.933   4.181   2.801  0.1769  0.2937 -1.5129
14960TIP3    H266296   6.048   4.241   2.879 -0.1956 -0.6702 -0.1977
14961TIP3   OH266297   1.009   4.616  12.527  0.1549 -0.0912  0.1238
14961TIP3    H166298   0.930   4.597  12.477 -0.3931 -1.2725  1.4005
14961TIP3    H266299   0.983   4.679  12.593  0.1079 -0.9751  0.9650
14962TIP3   OH266300   1.205   6.246  15.862 -0.0531  0.3471 -0.1969
14962TIP3    H166301   1.278   6.236  15.801  0.1221 -1.0803  0.2241
14962TIP3    H266302   1.242   6.297  15.934  0.7457 -0.9172  0.3228
14963TIP3   OH266303   3.009   2.221   4.105  0.1437  0.1805 -1.0114
14963TIP3    H166304   2.944   2.289   4.121  0.3142  0.0434  0.3037
14963TIP3    H266305   2.967   2.162   4.043 -1.6230 -0.7649  1.0260
14964TIP3   OH266306   2.213   4.543   3.058  0.3348  0.1634 -0.2833
14964TIP3    H166307   2.133   4.543   3.110  0.6220 -1.6905  0.1799
14964TIP3    H266308   2.182   4.552   2.967 -0.3645 -0.0765 -0.0697
14965TIP3   OH266309   5.010   4.482  16.171 -0.0889 -0.7242 -0.2457
14965TIP3    H166310   4.937   4.538  16.197 -0.4403  0.0630 -2.8051
14965TIP3    H266311   5.083   4.511  16.225 -0.7621  0.8857 -0.1725
14966TIP3   OH266312   1.697   0.790   5.255  0.2397 -1.0210 -0.6542
14966TIP3    H166313   1.747   0.746   5.186  2.0469  1.1079 -0.7350
14966TIP3    H266314   1.673   0.875   5.217  1.5960  0.3301  1.4774
14967TIP3   OH266315   3.029   0.551  11.933 -0.2126  0.0334  0.3233
14967TIP3    H166316   3.070   0.575  12.017 -1.3170  1.1758  0.5467
14967TIP3    H266317   2.990   0.632  11.902 -0.3519 -0.5372 -1.0004
14968TIP3   OH266318   2.420   6.605  16.133  0.0442  0.4310 -0.3986
14968TIP3    H166319   2.425   6.591  16.038  3.6941  0.0328 -0.2176
14968TIP3    H266320   2.415   6.517  16.170 -1.4774  0.5903 -0.1924
14969TIP3   OH266321   6.012   3.966   3.432  0.0272 -0.6117  0.2681
14969TIP3    H166322   6.049   4.048   3.465 -1.0003 -0.2588  0.5345
14969TIP3    H266323   5.923   3.988   3.405 -0.2908 -1.6624  0.4320
14970TIP3   OH266324   5.262   2.261  12.919  0.4103 -0.1717 -0.6149
14970TIP3    H166325   5.351   2.226  12.912  1.0683  0.8554  2.0425
14970TIP3    H266326   5.273   2.356  12.922 -0.6616 -0.0763  0.8579
14971TIP3   OH266327   2.224   6.772  15.334 -0.6256 -0.2035 -0.3390
14971TIP3    H166328   2.284   6.834  15.293 -3.1468  2.3083 -0.3552
14971TIP3    H266329   2.226   6.793  15.427  0.9902 -2.3227  0.1383
14972TIP3   OH266330   1.614   1.127   1.869  0.0137 -0.4763  0.1981
14972TIP3    H166331   1.615   1.054   1.806 -0.7888 -0.5750  0.2982
14972TIP3    H266332   1.685   1.107   1.929  1.0958 -0.1490 -0.9465
14973TIP3   OH266333   0.640   5.621   6.198  0.3739 -0.6262 -0.9502
14973TIP3    H166334   0.704   5.563   6.240 -1.4427 -0.9870  1.4456
14973TIP3    H266335   0.640   5.593   6.106  3.1873 -1.0037 -0.8951
14974TIP3   OH266336   1.256   0.276  12.330 -0.0054 -0.4415  0.0042
14974TIP3    H166337   1.187   0.268  12.264 -0.3275 -0.8609  0.3850
14974TIP3    H266338   1.300   0.359  12.310 -0.6917 -0.1182 -0.1708
14975TIP3   OH266339   1.513   0.753   5.882 -0.3545  0.3016  0.1581
14975TIP3    H166340   1.556   0.700   5.949  1.1787  0.9504 -0.2889
14975TIP3    H266341   1.512   0.842   5.918  0.4722  0.6524 -0.6521
14976TIP3   OH266342   3.997   4.551   5.657 -0.1230  0.6518 -0.5323
14976TIP3    H166343   4.039   4.607   5.592 -1.1114  0.8598 -0.9868
14976TIP3    H266344   3.910   4.534   5.623  0.7835 -2.7710 -1.4067
14977TIP3   OH266345   3.121   6.757  12.561 -0.0622 -0.0687 -0.2061
14977TIP3    H166346   3.215   6.741  12.568 -0.0538 -0.5581 -1.2904
14977TIP3    H266347   3.080   6.679  12.599 -0.0387  0.5435  1.0946
14978TIP3   OH266348   4.960   6.612   4.036  0.3556 -0.6570 -0.2863
14978TIP3    H166349   5.038   6.668   4.045 -1.5983  2.0036  0.8415
14978TIP3    H266350   4.983   6.551   3.966  3.4390  0.0679 -0.0165
14979TIP3   OH266351   3.400   1.331  16.812  0.2910  0.0177 -0.2301
14979TIP3    H166352   3.414   1.237  16.797 -0.0623 -0.2057  0.7796
14979TIP3    H266353   3.481   1.361  16.853 -0.1839 -0.1847  0.8765
14980TIP3   OH266354   2.719   4.100  17.138  0.0657 -0.2198  0.2873
14980TIP3    H166355   2.707   4.010  17.108  0.5410  0.0526 -0.7577
14980TIP3    H266356   2.642   4.147  17.106  0.2721 -0.0593  0.0203
14981TIP3   OH266357   4.222   4.124   3.379  0.1325 -0.3142  0.1619
14981TIP3    H166358   4.248   4.207   3.417  0.0343 -0.4277  0.4797
14981TIP3    H266359   4.153   4.092   3.437 -0.5261 -0.1420 -0.5105
14982TIP3   OH266360   2.794   5.851   0.040  0.0545  0.0853 -0.5490
14982TIP3    H166361   2.701   5.849   0.020  0.3103 -0.3442 -1.7408
14982TIP3    H266362   2.823   5.760   0.032  0.9910  0.5072 -2.3248
14983TIP3   OH266363   6.593   6.741  10.800  0.2978  0.3502  0.0027
14983TIP3    H166364   6.513   6.699  10.833 -0.2676  1.5196  0.1293
14983TIP3    H266365   6.657   6.670  10.796 -0.0006 -0.0925  2.3649
14984TIP3   OH266366   1.489   1.075  15.332 -0.3773  0.1480  0.3375
14984TIP3    H166367   1.522   0.995  15.374 -0.0425  0.1999  0.1767
14984TIP3    H266368   1.504   1.062  15.238 -1.0276  0.0781  0.2431
14985TIP3   OH266369   2.072   2.814  10.833  0.6033  0.1945  0.0823
14985TIP3    H166370   2.083   2.908  10.847  1.0185  0.1260  0.2225
14985TIP3    H266371   2.134   2.773  10.893 -2.2002 -0.2937  2.7891
14986TIP3   OH266372   3.622   1.845  16.655  0.5720 -0.0903  0.2405
14986TIP3    H166373   3.697   1.803  16.699 -0.9375 -1.2528  1.7636
14986TIP3    H266374   3.551   1.781  16.663 -0.4089  0.7159 -1.7934
14987TIP3   OH266375   4.959   6.023   3.324  0.0127  0.4097 -0.3109
14987TIP3    H166376   4.963   6.099   3.266 -0.2255  0.8860  0.2912
14987TIP3    H266377   4.880   6.037   3.376  0.4457  0.1876  0.4069
14988TIP3   OH266378   5.640   2.216   1.674  0.3842  0.5284  0.6090
14988TIP3    H166379   5.618   2.305   1.701 -2.3565  0.1010 -0.1530
14988TIP3    H266380   5.644   2.219   1.578 -1.2774 -0.4861  0.4838
14989TIP3   OH266381   4.507   2.350  12.576  0.0793 -0.3192  0.2331
14989TIP3    H166382   4.465   2.433  12.596  0.7912  0.3517 -0.9947
14989TIP3    H266383   4.444   2.304  12.519  0.0396 -0.2749  0.2418
14990TIP3   OH266384   1.917   0.649   1.118 -0.0056 -0.1680  0.2441
14990TIP3    H166385   1.943   0.596   1.194 -0.1056  1.4253  1.4039
14990TIP3    H266386   1.863   0.590   1.065  0.3046 -1.3820  1.2511
14991TIP3   OH266387   1.329   5.695   5.452 -0.2660 -0.0287  0.6608
14991TIP3    H166388   1.404   5.743   5.486 -0.8278  0.1110  1.7150
14991TIP3    H266389   1.327   5.717   5.359  0.5730  0.5192  0.7655
14992TIP3   OH266390   5.704   0.793  14.959 -0.1883 -0.4904 -0.6773
14992TIP3    H166391   5.787   0.839  14.950 -0.8478  1.1384  1.2007
14992TIP3    H266392   5.637   0.859  14.942 -1.1279 -1.2209  0.0747
14993TIP3   OH266393   2.465   6.077  13.427  0.1802 -0.2468 -0.0294
14993TIP3    H166394   2.404   6.025  13.375 -1.6901 -0.8797  2.6618
14993TIP3    H266395   2.516   6.012  13.476  2.4071  0.3154 -1.5392
14994TIP3   OH266396   2.895   5.241  11.128 -0.5995 -0.7959  0.1142
14994TIP3    H166397   2.982   5.265  11.160  0.4644 -0.3873 -2.9811
14994TIP3    H266398   2.839   5.315  11.153  0.4696  0.0929 -0.1019
14995TIP3   OH266399   4.672   4.322   0.901 -0.1375 -0.3866 -1.0087
14995TIP3    H166400   4.611   4.263   0.947 -1.4655  0.0762 -2.1235
14995TIP3    H266401   4.667   4.404   0.949  0.0148 -0.5128 -0.7784
14996TIP3   OH266402   6.024   2.220   0.720  0.2973 -0.0742 -0.0361
14996TIP3    H166403   6.089   2.149   0.727  0.1510 -0.0292  2.0691
14996TIP3    H266404   6.065   2.285   0.664  1.2614 -0.9457 -0.3527
14997TIP3   OH266405   6.133   1.084  12.692 -0.1824  0.1463  0.4025
14997TIP3    H166406   6.209   1.110  12.641 -0.5235 -0.1489 -0.2522
14997TIP3    H266407   6.134   1.143  12.768  1.6238 -0.9083  1.2426
14998TIP3   OH266408   5.639   4.262   1.813 -0.0766 -0.2107  0.1418
14998TIP3    H166409   5.707   4.205   1.849  1.6075  1.2565 -0.6328
14998TIP3    H266410   5.647   4.251   1.718  0.3322  1.3426 -0.0186
14999TIP3   OH266411   4.524   1.317  14.187  0.6954 -0.0981  0.0295
14999TIP3    H166412   4.609   1.357  14.165  0.4767  0.8650  0.8651
14999TIP3    H266413   4.476   1.316  14.104  1.6794 -1.0574 -0.5438
15000TIP3   OH266414   6.306   4.694  14.233 -0.1451 -0.0292  0.0900
15000TIP3    H166415   6.284   4.675  14.324  1.3800 -0.8590  0.3017
15000TIP3    H266416   6.315   4.789  14.229  1.4741 -0.1159  1.2112
15001TIP3   OH266417   3.241   5.505   3.857 -0.3360  0.1254 -0.7391
15001TIP3    H166418   3.200   5.591   3.867 -0.1520  0.1200  0.0623
15001TIP3    H266419   3.178   5.455   3.805 -0.0727  0.9972 -1.9349
15002TIP3   OH266420   1.756   6.399  15.421 -0.2624  0.8823 -0.4988
15002TIP3    H166421   1.700   6.462  15.377  0.8980  2.3807  0.1448
15002TIP3    H266422   1.732   6.315  15.382 -1.3698  1.7888 -1.8213
15003TIP3   OH266423   3.358   4.340  12.909 -1.0135 -0.0299 -0.0084
15003TIP3    H166424   3.336   4.369  12.820 -2.3102 -3.0671 -0.7685
15003TIP3    H266425   3.290   4.276  12.930  0.0406 -0.3201  2.6743
15004TIP3   OH266426   4.378   1.459   5.516 -0.3251  0.2180 -0.0762
15004TIP3    H166427   4.298   1.447   5.566 -1.6752  1.0987 -1.9742
15004TIP3    H266428   4.413   1.543   5.545  1.0614 -1.1250  2.2642
15005TIP3   OH266429   2.394   5.306  13.492  0.4627  0.6631  0.1958
15005TIP3    H166430   2.378   5.333  13.402  1.0749  1.4430  0.3124
15005TIP3    H266431   2.362   5.379  13.545 -0.9411 -0.2706  0.6664
15006TIP3   OH266432   6.713   2.314  13.345  0.4088  0.5724 -0.2206
15006TIP3    H166433   6.702   2.403  13.379  3.1019  1.7158 -2.2017
15006TIP3    H266434   6.684   2.319  13.254 -1.0741 -1.0184  0.1454
15007TIP3   OH266435   4.613   3.870   5.110 -0.1919 -0.1803 -0.0067
15007TIP3    H166436   4.677   3.877   5.181  0.8342 -0.7142 -0.8566
15007TIP3    H266437   4.528   3.881   5.153  0.3797 -0.9912  1.3779
15008TIP3   OH266438   3.450   4.308  12.104  0.4336  0.0762 -0.4675
15008TIP3    H166439   3.438   4.233  12.162 -0.6049  1.1529  0.7456
15008TIP3    H266440   3.365   4.353  12.104  1.0969  1.3748 -0.9800
15009TIP3   OH266441   6.260   3.284  16.314 -0.3647  0.6095 -0.0764
15009TIP3    H166442   6.294   3.196  16.330 -2.4533 -0.5770 -1.9345
15009TIP3    H266443   6.219   3.309  16.397 -0.7819 -0.6762  0.1243
15010TIP3   OH266444   6.722   0.569  13.211  0.8015  0.0010  0.3508
15010TIP3    H166445   6.684   0.573  13.124 -0.7581 -2.1144  0.8756
15010TIP3    H266446   6.752   0.658  13.229 -0.8006  0.9522 -1.4864
15011TIP3   OH266447   1.656   4.327  14.896  0.5827  0.2840 -0.0133
15011TIP3    H166448   1.588   4.302  14.959 -0.2209  1.7634 -0.2780
15011TIP3    H266449   1.734   4.280  14.926  0.3925  1.4535  2.5124
15012TIP3   OH266450   5.527   0.789   2.572 -0.0762  0.4364  0.1586
15012TIP3    H166451   5.514   0.870   2.523  1.9894  1.0158  0.5187
15012TIP3    H266452   5.516   0.720   2.506 -2.3382  0.9470 -0.0489
15013TIP3   OH266453   5.745   5.330   5.301  0.4517 -0.7086  0.1478
15013TIP3    H166454   5.724   5.422   5.314  0.0783 -0.8055  0.2350
15013TIP3    H266455   5.832   5.319   5.340  0.7993 -0.2375 -0.4886
15014TIP3   OH266456   0.019   4.742   3.618  0.6789  0.5116 -0.4106
15014TIP3    H166457  -0.071   4.732   3.648  1.7530  1.4481  3.3300
15014TIP3    H266458   0.049   4.653   3.600 -0.8859  0.1762 -1.4098
15015TIP3   OH266459   1.013   5.077   5.779  0.3080  0.7422  0.1525
15015TIP3    H166460   1.077   5.111   5.841 -1.8370  1.2549  2.1287
15015TIP3    H266461   0.956   5.152   5.759 -1.2125 -0.3264  0.3921
15016TIP3   OH266462   3.665   1.514   4.850  0.0961 -0.0602 -0.4989
15016TIP3    H166463   3.711   1.598   4.848  2.1544 -1.1713 -2.8135
15016TIP3    H266464   3.575   1.536   4.874  1.5253  2.3000  3.0385
15017TIP3   OH266465   0.387   1.694   3.178  0.2006  0.5465 -0.0800
15017TIP3    H166466   0.323   1.647   3.125  0.2367  0.6353 -0.2048
15017TIP3    H266467   0.406   1.636   3.251  1.1033 -0.1352 -0.8314
15018TIP3   OH266468   2.072   1.723  12.587 -0.4447 -0.0927 -0.0104
15018TIP3    H166469   2.062   1.638  12.631 -1.4228  0.3835  0.6990
15018TIP3    H266470   2.150   1.762  12.627 -0.4215 -0.3395  0.1841
15019TIP3   OH266471   1.793   0.444   3.357 -0.1698 -0.3574 -0.6413
15019TIP3    H166472   1.880   0.455   3.319 -0.2248  0.7752 -0.4492
15019TIP3    H266473   1.759   0.533   3.366  0.1032 -0.5208  2.6175
15020TIP3   OH266474   0.547   5.570  10.698 -0.5973 -0.6505 -0.1286
15020TIP3    H166475   0.521   5.643  10.641 -0.7952  1.6738  2.8126
15020TIP3    H266476   0.472   5.511  10.696 -1.2372  0.1664 -1.0207
15021TIP3   OH266477   1.405   0.383  12.946  0.0466 -0.2076 -0.3534
15021TIP3    H166478   1.334   0.396  12.882 -0.3688 -0.7811 -0.0200
15021TIP3    H266479   1.361   0.388  13.031  0.4726 -0.1982 -0.1344
15022TIP3   OH266480   1.511   3.610  14.566  0.2144 -0.4138 -0.0972
15022TIP3    H166481   1.446   3.555  14.523  0.4827 -0.4532 -0.4571
15022TIP3    H266482   1.589   3.554  14.573  0.1125 -0.4736  0.6199
15023TIP3   OH266483   4.325   1.046  12.340  0.1697  0.1484 -0.0111
15023TIP3    H166484   4.332   1.058  12.435  0.1176  1.4997 -0.1688
15023TIP3    H266485   4.277   0.964  12.330 -2.2656  1.3471  1.1831
15024TIP3   OH266486   3.722   2.572  11.915  0.5163 -0.1748 -0.1016
15024TIP3    H166487   3.652   2.507  11.919 -2.0442  2.4963  0.4118
15024TIP3    H266488   3.743   2.579  11.822  2.7044 -3.5518  0.0385
15025TIP3   OH266489   1.543   6.536  16.084  0.1174 -0.4577  0.3608
15025TIP3    H166490   1.535   6.444  16.062  1.4343 -0.4736 -0.0900
15025TIP3    H266491   1.535   6.538  16.180  2.4353 -1.3183  0.5919
15026TIP3   OH266492   6.628   6.281  15.525  0.4691 -0.4053  0.4644
15026TIP3    H166493   6.716   6.261  15.557  1.2083  0.3797 -1.0089
15026TIP3    H266494   6.615   6.373  15.546 -0.6061 -0.8865  1.9952
15027TIP3   OH266495   0.591   4.569  16.825  0.5397  0.0888  0.9351
15027TIP3    H166496   0.683   4.588  16.805  0.8612 -1.4934  0.8566
15027TIP3    H266497   0.571   4.625  16.900  0.9592  1.9428 -0.2842
15028TIP3   OH266498   5.163   0.191  13.712  0.0191 -0.3090 -0.7729
15028TIP3    H166499   5.258   0.179  13.714  0.0108 -0.5084 -1.3605
15028TIP3    H266500   5.150   0.272  13.663 -0.1102 -0.1881 -0.5400
15029TIP3   OH266501   0.390   2.748  13.129  0.1593  0.3057  0.0716
15029TIP3    H166502   0.363   2.656  13.133 -1.8028  0.8337 -0.2464
15029TIP3    H266503   0.441   2.754  13.048  1.7838 -0.8474  0.9743
15030TIP3   OH266504   3.270   2.317   1.841 -0.1531 -0.0448  0.5238
15030TIP3    H166505   3.238   2.281   1.758  2.3471 -1.0290 -0.0663
15030TIP3    H266506   3.193   2.319   1.898 -1.7055 -0.2665 -1.5052
15031TIP3   OH266507   1.286   1.982   2.484 -0.0063 -0.1027  0.2192
15031TIP3    H166508   1.224   1.910   2.478  0.2126 -0.5721  2.8901
15031TIP3    H266509   1.234   2.060   2.467 -1.3032 -0.5202  2.0649
15032TIP3   OH266510   2.381   5.840  11.859  0.0932 -0.0216 -0.0320
15032TIP3    H166511   2.463   5.863  11.817  0.1919 -1.5190 -0.6834
15032TIP3    H266512   2.405   5.776  11.926 -0.7210 -1.7561 -1.3519
15033TIP3   OH266513   5.761   4.864   0.588  0.3651  0.3999 -0.0129
15033TIP3    H166514   5.748   4.821   0.504  1.3884  1.3730 -0.6722
15033TIP3    H266515   5.672   4.889   0.616  0.2831  2.8614 -2.2973
15034TIP3   OH266516   4.838   1.129   4.138  0.0280  0.2914  0.3193
15034TIP3    H166517   4.755   1.086   4.160 -0.1112  0.2315 -0.3063
15034TIP3    H266518   4.888   1.129   4.220 -0.3827 -0.1373  0.5709
15035TIP3   OH266519   6.583   3.474  15.641  0.5448 -0.5530 -0.2350
15035TIP3    H166520   6.500   3.464  15.688 -0.1163 -1.3484 -1.5493
15035TIP3    H266521   6.644   3.419  15.690  0.2183 -0.2425  0.5350
15036TIP3   OH266522   2.232   3.080  16.933 -0.2546  0.3521 -0.2950
15036TIP3    H166523   2.277   3.119  17.008  0.0594  0.1533 -0.3816
15036TIP3    H266524   2.253   3.139  16.860 -3.3982  2.5111  0.4538
15037TIP3   OH266525   5.114   5.554   1.984 -0.6500 -0.0722  0.1450
15037TIP3    H166526   5.135   5.642   1.952 -0.4965  0.1727  0.9006
15037TIP3    H266527   5.069   5.512   1.911 -1.0056  0.7390 -0.1107
15038TIP3   OH266528   2.248   4.528   6.675 -0.3782  0.1238  0.1702
15038TIP3    H166529   2.299   4.607   6.691 -0.4681  0.6833 -2.1080
15038TIP3    H266530   2.164   4.560   6.642  0.7568 -0.9118 -4.0519
15039TIP3   OH266531   3.650   5.108   1.912 -0.2517  0.0701 -0.0087
15039TIP3    H166532   3.700   5.031   1.885 -0.8098 -0.4922  0.5295
15039TIP3    H266533   3.684   5.179   1.859  1.6318 -0.1579  0.8677
15040TIP3   OH266534   1.302   4.967  16.351  0.3549  0.0766 -0.0346
15040TIP3    H166535   1.318   4.989  16.259 -0.9627  1.6294  0.0911
15040TIP3    H266536   1.242   4.892  16.347  1.8305 -1.1054 -0.4384
15041TIP3   OH266537   1.271   0.849  16.345  0.2507  0.3290 -0.3982
15041TIP3    H166538   1.261   0.887  16.432 -0.1023 -0.9678  0.1423
15041TIP3    H266539   1.284   0.755  16.361  3.0546  0.4618 -1.6045
15042TIP3   OH266540   5.675   3.796  11.219 -0.4338  0.4226 -0.0473
15042TIP3    H166541   5.611   3.854  11.260  0.2563  0.9046  0.3546
15042TIP3    H266542   5.651   3.708  11.249 -0.4466  0.6821  0.7114
15043TIP3   OH266543   5.762   3.596  10.480  0.3775 -0.2156 -0.3297
15043TIP3    H166544   5.671   3.598  10.453  0.4851 -3.0257 -1.0640
15043TIP3    H266545   5.793   3.686  10.469 -3.0171  1.3961  2.6147
15044TIP3   OH266546   3.060   1.411  12.420 -0.1546  0.4962 -0.1380
15044TIP3    H166547   3.034   1.498  12.452 -0.9755  0.3641 -0.4527
15044TIP3    H266548   3.004   1.350  12.468  0.4853  0.1215  0.1543
15045TIP3   OH266549   6.505   5.243  11.187 -1.0351 -0.1287 -0.0784
15045TIP3    H166550   6.428   5.296  11.206 -1.8560 -1.2367 -0.2999
15045TIP3    H266551   6.493   5.162  11.237 -1.6952 -1.7424 -2.7558
15046TIP3   OH266552   5.871   1.568   1.333 -0.0405  0.1134 -0.0827
15046TIP3    H166553   5.931   1.641   1.313  0.2152  0.1638  0.8384
15046TIP3    H266554   5.802   1.608   1.387 -1.6383  0.3397 -2.2362
15047TIP3   OH266555   6.531   0.534  15.904 -0.1014  0.2745  0.4935
15047TIP3    H166556   6.477   0.478  15.849 -0.3164  0.3495  0.6239
15047TIP3    H266557   6.544   0.614  15.852  1.7986 -0.6436 -0.4718
15048TIP3   OH266558   4.221   4.970  13.751 -0.1359 -0.1661  0.0865
15048TIP3    H166559   4.301   4.917  13.753 -1.4027 -2.2151 -0.7552
15048TIP3    H266560   4.187   4.967  13.840 -0.4289 -1.1723 -0.0524
15049TIP3   OH266561   0.446   2.671   1.233 -0.7250  0.1972  0.3404
15049TIP3    H166562   0.539   2.669   1.257 -0.4587 -1.1130 -0.7199
15049TIP3    H266563   0.401   2.630   1.306 -0.6068  1.8106  1.3522
15050TIP3   OH266564   5.872   3.289  16.505  0.0830 -0.1928 -0.0700
15050TIP3    H166565   5.784   3.271  16.536 -0.1262 -0.3262 -0.7470
15050TIP3    H266566   5.899   3.210  16.459 -0.6465  0.9862 -2.6070
15051TIP3   OH266567   1.834   2.998   1.876  0.4645  0.1832 -0.3251
15051TIP3    H166568   1.796   2.910   1.877 -1.8841  1.1728  1.9422
15051TIP3    H266569   1.928   2.984   1.882  0.0639 -2.1540  0.7650
15052TIP3   OH266570   0.332   5.689  14.271 -0.6255  0.2683 -0.6025
15052TIP3    H166571   0.343   5.603  14.312  1.3691  0.3953 -0.8130
15052TIP3    H266572   0.317   5.749  14.344 -1.5865 -0.1746 -0.4206
15053TIP3   OH266573   1.017   6.707  15.477 -0.6323 -0.3695 -0.4549
15053TIP3    H166574   1.105   6.737  15.501 -1.8117  1.5267  1.6886
15053TIP3    H266575   1.004   6.741  15.389  0.8024 -0.7991 -0.8652
15054TIP3   OH266576   6.125   3.289  11.915 -0.4510  0.3169  0.2360
15054TIP3    H166577   6.183   3.362  11.936  0.9616 -0.6677 -0.1937
15054TIP3    H266578   6.047   3.330  11.877 -0.2543  1.6745  1.2950
15055TIP3   OH266579   3.314   1.446   4.130 -0.0201 -0.3836 -0.4776
15055TIP3    H166580   3.401   1.409   4.117  0.3472  0.7542 -1.3687
15055TIP3    H266581   3.318   1.486   4.217 -0.4588 -2.4856  0.5434
15056TIP3   OH266582   0.254   5.730  11.522 -0.2826  0.1658 -0.0453
15056TIP3    H166583   0.249   5.818  11.560  0.6398  0.0017  0.4744
15056TIP3    H266584   0.333   5.731  11.469  0.3443 -0.6858  0.8562
15057TIP3   OH266585   6.685   4.116   4.358 -0.4176  0.1357  0.0153
15057TIP3    H166586   6.696   4.033   4.311  1.2684 -0.0167  0.6656
15057TIP3    H266587   6.610   4.099   4.416 -2.8789  0.5011 -2.8968
15058TIP3   OH266588   3.210   1.244   2.012 -0.3686  0.0298  0.3896
15058TIP3    H166589   3.127   1.263   2.056 -1.1208  0.0390 -1.0078
15058TIP3    H266590   3.204   1.290   1.929  0.5431 -0.9659 -0.2388
15059TIP3   OH266591   5.646   2.940  12.384 -0.3451 -0.0552 -0.5038
15059TIP3    H166592   5.562   2.951  12.339  0.7052  0.4875 -2.3869
15059TIP3    H266593   5.690   3.024  12.372 -0.8422  0.8607  3.3431
15060TIP3   OH266594   5.444   0.631  13.050 -0.5392  0.3867  0.1587
15060TIP3    H166595   5.404   0.717  13.039  0.7593  1.1087  0.9830
15060TIP3    H266596   5.408   0.598  13.132  0.4315  0.9758  0.8280
15061TIP3   OH266597   3.853   0.643  15.423 -0.4774 -0.1000  0.3083
15061TIP3    H166598   3.849   0.722  15.477  0.0262 -1.1033  1.8757
15061TIP3    H266599   3.761   0.619  15.409 -0.6152  0.1000  0.8454
15062TIP3   OH266600   0.426   2.793  13.422  0.9480 -0.2212 -0.1667
15062TIP3    H166601   0.484   2.868  13.408  1.1904 -0.3283  0.2707
15062TIP3    H266602   0.433   2.743  13.340 -0.1340  0.8435 -0.9314
15063TIP3   OH266603   4.061   1.811  13.500 -0.3213 -0.0602  0.0332
15063TIP3    H166604   4.129   1.757  13.540 -1.1198 -1.0334  0.1156
15063TIP3    H266605   4.081   1.809  13.406  0.6503  0.9358  0.2114
15064TIP3   OH266606   3.437   4.780   1.453 -0.1472 -0.3288  0.1653
15064TIP3    H166607   3.409   4.704   1.402  0.3900 -0.7620  0.5135
15064TIP3    H266608   3.384   4.852   1.419 -2.8170 -1.4058  1.8548
15065TIP3   OH266609   6.430   3.730  14.533  0.7472  0.6356 -0.5996
15065TIP3    H166610   6.463   3.771  14.613 -0.3521 -0.4757  0.4503
15065TIP3    H266611   6.335   3.723  14.547  1.0172 -3.5086 -0.1115
15066TIP3   OH266612   4.379   1.189   1.140  0.3204 -0.3854 -0.4120
15066TIP3    H166613   4.314   1.118   1.143  0.5670 -0.6068 -0.3028
15066TIP3    H266614   4.347   1.248   1.071 -0.5203  0.0152  0.3083
15067TIP3   OH266615   0.719   1.368   1.527 -0.4325 -0.1468  0.6750
15067TIP3    H166616   0.647   1.425   1.500 -0.2129  0.8391  2.0711
15067TIP3    H266617   0.748   1.405   1.611  0.4978 -1.6202  1.0204
15068TIP3   OH266618   3.202   3.639  15.721  0.0690  0.1979 -0.2630
15068TIP3    H166619   3.134   3.694  15.760  1.1601  2.3740 -1.3742
15068TIP3    H266620   3.258   3.615  15.795  0.1250  1.3731  0.0800
15069TIP3   OH266621   3.082   0.542  11.457  0.0293  0.1725  0.3148
15069TIP3    H166622   3.132   0.521  11.536 -0.6989 -1.1042  0.4489
15069TIP3    H266623   3.148   0.572  11.394  0.8399 -0.5139  0.8256
15070TIP3   OH266624   1.349   5.927  14.589  0.5713 -0.4058 -0.6353
15070TIP3    H166625   1.393   5.845  14.570  0.5067 -0.6132  0.1072
15070TIP3    H266626   1.262   5.918  14.550  0.7736 -0.4549 -1.0730
15071TIP3   OH266627   5.826   0.409  12.111 -0.4780 -0.3826 -0.3840
15071TIP3    H166628   5.904   0.379  12.157 -0.8285 -0.0721  0.4198
15071TIP3    H266629   5.787   0.475  12.169 -1.6360 -0.9364 -0.5081
15072TIP3   OH266630   4.810   3.696   4.330  0.1891 -0.3035 -1.0477
15072TIP3    H166631   4.782   3.723   4.243 -0.2604  0.0295 -0.7991
15072TIP3    H266632   4.863   3.769   4.362 -1.0792  0.3226 -0.3505
15073TIP3   OH266633   5.275   4.556   1.665  0.3642  0.2170 -0.0585
15073TIP3    H166634   5.368   4.551   1.685  0.1038  1.0764  1.4531
15073TIP3    H266635   5.267   4.520   1.576  2.0949 -0.0396 -0.1207
15074TIP3   OH266636   5.822   1.607  12.101 -0.1309  0.3441  0.3331
15074TIP3    H166637   5.894   1.654  12.058 -1.0026  0.5889 -0.9038
15074TIP3    H266638   5.865   1.551  12.165  1.1233  0.9233  0.0205
15075TIP3   OH266639   0.004   1.244  15.630 -0.1561 -0.7688 -0.2122
15075TIP3    H166640  -0.055   1.210  15.562  1.0065  0.0786 -1.6636
15075TIP3    H266641  -0.054   1.292  15.690 -1.2480 -1.8619 -0.3788
15076TIP3   OH266642   4.954   6.011  10.312  0.0032  0.1301 -0.1780
15076TIP3    H166643   4.929   6.102  10.294 -0.1238  0.2421  0.5445
15076TIP3    H266644   4.897   5.959  10.257  0.4047  0.5074 -0.9595
15077TIP3   OH266645   5.439   5.931   4.628  0.0589 -0.0844  0.4226
15077TIP3    H166646   5.442   5.836   4.637 -1.7999 -0.2779 -0.8580
15077TIP3    H266647   5.420   5.946   4.536  1.7935  1.5801  0.2919
15078TIP3   OH266648   5.941   4.822   1.928 -0.0665 -0.5446 -0.3819
15078TIP3    H166649   5.918   4.877   2.003  0.7186 -1.2897  0.4057
15078TIP3    H266650   6.017   4.865   1.889  1.0564 -1.5185  0.7229
15079TIP3   OH266651   1.689   5.262  11.256  0.1311 -0.7249  0.0190
15079TIP3    H166652   1.672   5.180  11.302 -1.6188 -0.9497 -0.9834
15079TIP3    H266653   1.720   5.236  11.169  1.4533 -0.3076  0.3517
15080TIP3   OH266654   5.033   2.970  13.263 -0.1141  0.0017  0.2163
15080TIP3    H166655   4.992   3.027  13.329  0.6284  0.5201  0.2409
15080TIP3    H266656   5.092   2.915  13.314 -1.1086 -1.0690  0.2399
15081TIP3   OH266657   6.526   3.625   3.309 -0.0343 -0.1371  1.1781
15081TIP3    H166658   6.567   3.705   3.342 -2.6588  1.3944  0.9197
15081TIP3    H266659   6.453   3.609   3.368 -0.2400 -1.6898  0.5296
15082TIP3   OH266660   5.063   1.043   2.695  0.2049 -0.4337  0.2409
15082TIP3    H166661   5.041   0.950   2.688 -1.7736 -0.0446  0.8736
15082TIP3    H266662   4.984   1.083   2.729  1.5107  1.2867  1.3194
15083TIP3   OH266663   5.473   4.188  10.383  0.3708  0.0244  1.1277
15083TIP3    H166664   5.409   4.169  10.451 -0.6642  1.2299  0.4919
15083TIP3    H266665   5.500   4.278  10.399 -0.5310  0.6170 -0.5743
15084TIP3   OH266666   0.248   4.706   5.739 -0.6090 -0.2081  0.3273
15084TIP3    H166667   0.192   4.777   5.771  1.3499  1.7024 -0.4010
15084TIP3    H266668   0.287   4.669   5.818 -0.0018  0.9233  0.5640
15085TIP3   OH266669   1.120   1.345  11.560  0.5417 -0.1115  0.2603
15085TIP3    H166670   1.142   1.421  11.615  0.6318 -0.3213  0.5164
15085TIP3    H266671   1.057   1.296  11.612  0.4218 -0.1682  0.0584
15086TIP3   OH266672   4.695   5.413  13.760  0.3837  0.2016  0.1219
15086TIP3    H166673   4.638   5.424  13.684  0.9268  1.3183 -0.1254
15086TIP3    H266674   4.662   5.334  13.803  1.4656 -1.7595 -2.5166
15087TIP3   OH266675   5.764   1.408   2.683  0.1652  0.0917  0.1255
15087TIP3    H166676   5.759   1.497   2.719 -0.8694 -0.7567  2.2183
15087TIP3    H266677   5.678   1.394   2.642 -1.7646 -1.7423  4.4506
15088TIP3   OH266678   1.341   1.120  15.771  0.3779 -0.3288  0.4799
15088TIP3    H166679   1.333   1.096  15.863 -1.3393  0.3349  0.5122
15088TIP3    H266680   1.282   1.195  15.760  1.2169  0.1467 -0.9660
15089TIP3   OH266681   4.756   5.756  12.074 -0.6482  0.4002  0.2888
15089TIP3    H166682   4.726   5.713  11.995 -0.4016  1.3437 -0.3254
15089TIP3    H266683   4.837   5.711  12.097 -1.6765 -1.0985  1.0641
15090TIP3   OH266684   3.703   0.594   2.293 -0.2460  0.2131 -0.0619
15090TIP3    H166685   3.779   0.600   2.351 -0.4950  0.8785  0.2002
15090TIP3    H266686   3.721   0.519   2.237 -0.6960 -1.3731  1.8886
15091TIP3   OH266687   0.995   2.304  11.919 -0.6976  0.2405 -0.0629
15091TIP3    H166688   0.950   2.219  11.920 -1.6432  0.7365  1.3598
15091TIP3    H266689   0.989   2.334  12.010  0.9187  1.1550 -0.2531
15092TIP3   OH266690   0.470   0.865  14.804  0.2333 -0.1256  0.8089
15092TIP3    H166691   0.438   0.809  14.874  0.7168 -0.8293  0.4702
15092TIP3    H266692   0.512   0.938  14.850  0.5823 -0.6046  1.2602
15093TIP3   OH266693   3.299   5.162  11.419  0.1017  0.4027 -0.0691
15093TIP3    H166694   3.282   5.084  11.367 -2.7334  0.7982  0.1509
15093TIP3    H266695   3.283   5.235  11.359 -0.1779  0.8267  0.5103
15094TIP3   OH266696   3.684   3.787  16.554  0.1758  0.5041  0.1037
15094TIP3    H166697   3.694   3.816  16.464 -0.8600  0.8369  0.0931
15094TIP3    H266698   3.589   3.787  16.570  0.3520  0.5931  1.2324
15095TIP3   OH266699   4.248   5.020  16.449  0.0075  0.2665  0.0974
15095TIP3    H166700   4.221   4.960  16.380 -0.4335 -1.9847  2.1600
15095TIP3    H266701   4.167   5.045  16.492  0.5223 -0.5764  1.5756
15096TIP3   OH266702   1.775   2.255   4.860 -0.1654  0.0969  0.1045
15096TIP3    H166703   1.726   2.188   4.909 -0.1293 -0.8416 -1.1213
15096TIP3    H266704   1.773   2.332   4.917 -1.8622 -0.3487  0.7034
15097TIP3   OH266705   2.401   1.378  14.126 -0.4775  0.3757  0.6985
15097TIP3    H166706   2.448   1.295  14.125 -1.2535 -0.0656  0.0222
15097TIP3    H266707   2.437   1.425  14.201  3.3721  1.3929 -1.6326
15098TIP3   OH266708   3.254   6.147   5.882  0.4843 -0.0996  0.7697
15098TIP3    H166709   3.260   6.144   5.978  0.2150 -0.8344  0.7721
15098TIP3    H266710   3.258   6.240   5.860 -0.5782  0.1526  1.5770
15099TIP3   OH266711   1.088   4.297  16.334  0.3155 -0.4087  0.6301
15099TIP3    H166712   1.157   4.337  16.388  1.0540  1.8798 -1.8887
15099TIP3    H266713   1.130   4.221  16.294  0.9065  0.0276  0.4018
15100TIP3   OH266714   5.764   4.600  14.981  0.3320 -0.3157 -0.4242
15100TIP3    H166715   5.855   4.588  15.006  0.6414 -0.3937 -1.5740
15100TIP3    H266716   5.767   4.658  14.905 -0.6502  0.5776  0.2120
15101TIP3   OH266717   4.043   3.277   0.936  0.0125  0.4022  0.2180
15101TIP3    H166718   4.061   3.268   1.030 -1.0817 -0.8899  0.3240
15101TIP3    H266719   4.088   3.357   0.910 -0.6597  1.4114  2.0952
15102TIP3   OH266720   5.015   5.770  10.915 -0.1683 -0.3860 -0.1428
15102TIP3    H166721   5.100   5.810  10.936  0.6007 -0.7622 -2.3640
15102TIP3    H266722   4.999   5.796  10.824 -2.3415 -0.5172  0.1818
15103TIP3   OH266723   2.578   1.639  16.230  0.0341 -0.2204 -0.0125
15103TIP3    H166724   2.585   1.614  16.323  0.8518  0.7944  0.2184
15103TIP3    H266725   2.522   1.717  16.231  0.2294 -0.0764 -0.3436
15104TIP3   OH266726   6.673   3.277   2.103  1.0000  0.5251 -0.1111
15104TIP3    H166727   6.764   3.257   2.125 -0.2703 -1.8611  3.4330
15104TIP3    H266728   6.628   3.193   2.109 -1.9531  2.0973  0.9180
15105TIP3   OH266729   1.684   2.517  12.927  0.5694  0.2238  0.3025
15105TIP3    H166730   1.717   2.602  12.897 -0.2710  0.0895 -1.0530
15105TIP3    H266731   1.615   2.495  12.864  0.3648 -1.1787  1.0058
15106TIP3   OH266732   4.783   1.066  12.636 -0.7373 -0.6911 -0.1030
15106TIP3    H166733   4.877   1.070  12.617 -0.5550 -2.4439  0.3341
15106TIP3    H266734   4.746   1.141  12.590  0.9418  0.2662  0.0878
15107TIP3   OH266735   0.545   3.711   5.559 -0.9043 -0.3827  0.2468
15107TIP3    H166736   0.599   3.710   5.479 -1.0868  2.3831  0.0270
15107TIP3    H266737   0.602   3.674   5.626  0.1663 -0.4079 -0.6436
15108TIP3   OH266738   0.190   4.932   3.494  0.6102 -0.1045  0.2247
15108TIP3    H166739   0.126   4.881   3.542  1.1162 -0.5327  0.4515
15108TIP3    H266740   0.193   4.892   3.407  0.3763  0.0871  0.1267
15109TIP3   OH266741   3.531   2.933  15.131 -0.4198 -0.0313  0.0881
15109TIP3    H166742   3.604   2.993  15.114  0.1469 -0.1613  1.9894
15109TIP3    H266743   3.521   2.885  15.048  0.8767  0.8009 -0.5812
15110TIP3   OH266744   3.880   6.477   5.111 -0.2202 -0.6767 -0.4563
15110TIP3    H166745   3.831   6.457   5.032 -1.5786  3.3839 -0.7395
15110TIP3    H266746   3.815   6.476   5.181 -0.2451  1.9277 -0.4011
15111TIP3   OH266747   6.260   3.066  12.265  0.7366 -0.5756 -0.6284
15111TIP3    H166748   6.238   3.045  12.175  1.3792 -0.5048 -0.8020
15111TIP3    H266749   6.215   3.149  12.282  1.9067  0.2276 -1.3910
15112TIP3   OH266750   2.306   4.473  12.578 -0.0189 -0.4533 -0.0772
15112TIP3    H166751   2.300   4.565  12.555 -0.8293 -0.9690 -2.0654
15112TIP3    H266752   2.223   4.454  12.622  0.8482  0.1376  1.8855
15113TIP3   OH266753   1.053   2.917   6.017 -0.2590  0.1503  0.4664
15113TIP3    H166754   1.148   2.928   6.022 -0.1478  0.1554 -1.3512
15113TIP3    H266755   1.024   2.918   6.108  1.6977 -1.7582  1.1585
15114TIP3   OH266756   3.192   2.976   3.719 -0.3949  0.2818  0.2630
15114TIP3    H166757   3.279   3.012   3.700 -0.7359  1.5291  1.0388
15114TIP3    H266758   3.176   2.914   3.648  0.9035  0.4318 -0.1776
15115TIP3   OH266759   2.754   0.064  12.642  0.0525  0.5335 -0.2903
15115TIP3    H166760   2.818   0.135  12.637 -0.6052  1.0443 -1.8285
15115TIP3    H266761   2.673   0.102  12.607 -0.3253 -0.9505 -1.0818
15116TIP3   OH266762   5.244   0.864  11.218  0.1892  0.0874 -0.6345
15116TIP3    H166763   5.309   0.932  11.236  0.2972  0.1153 -1.1185
15116TIP3    H266764   5.284   0.811  11.149 -0.3224  0.1311 -0.9623
15117TIP3   OH266765   1.052   3.620   0.369 -0.4650  0.1603 -0.0863
15117TIP3    H166766   1.073   3.693   0.427 -0.0431 -1.2048  1.4966
15117TIP3    H266767   0.961   3.598   0.390 -0.9771  0.9761 -1.3935
15118TIP3   OH266768   5.866   0.946   0.712 -0.1706  0.1223  0.0731
15118TIP3    H166769   5.910   0.949   0.796  2.2156  0.6209 -1.1464
15118TIP3    H266770   5.895   1.025   0.667 -2.8606  0.8249 -0.5514
15119TIP3   OH266771   3.880   3.600   2.343  0.1888  0.3996 -0.0734
15119TIP3    H166772   3.878   3.659   2.419  0.8851  1.3135 -0.7392
15119TIP3    H266773   3.795   3.556   2.345 -0.7718  2.1834 -0.1261
15120TIP3   OH266774   3.207   4.505  15.899 -0.5193 -0.3942 -0.4707
15120TIP3    H166775   3.254   4.428  15.931 -2.0549 -1.2809 -0.2825
15120TIP3    H266776   3.246   4.579  15.947  2.3745 -0.7763 -2.1675
15121TIP3   OH266777   2.543   0.512  11.266  0.1863 -0.0186 -0.6115
15121TIP3    H166778   2.634   0.499  11.294 -0.1793 -1.1174  0.0935
15121TIP3    H266779   2.493   0.448  11.317 -1.2245  1.7801  0.3082
15122TIP3   OH266780   4.175   0.464   4.754  0.1553  0.0972 -0.2899
15122TIP3    H166781   4.098   0.521   4.747  0.0942  0.0034 -0.3683
15122TIP3    H266782   4.190   0.456   4.849 -0.8981 -1.1930 -0.2286
15123TIP3   OH266783   3.393   2.368  15.813 -0.2720 -0.6598  0.2917
15123TIP3    H166784   3.428   2.392  15.727  0.6899 -1.2262  0.5100
15123TIP3    H266785   3.402   2.272  15.816 -2.7372 -0.9353 -0.0209
15124TIP3   OH266786   4.745   4.577  14.597  0.0622 -0.1347  0.3138
15124TIP3    H166787   4.690   4.582  14.675  0.0413  1.0858  0.2279
15124TIP3    H266788   4.686   4.595  14.524  0.5288  0.9536  0.2025
15125TIP3   OH266789   6.581   6.627   2.960  0.1744 -0.5009 -0.3977
15125TIP3    H166790   6.504   6.590   2.918 -1.6269 -0.1957  2.5076
15125TIP3    H266791   6.568   6.722   2.956  1.5803 -0.3496 -1.9830
15126TIP3   OH266792   4.618   6.735   0.334  0.1527 -0.2893 -0.2763
15126TIP3    H166793   4.576   6.658   0.297  0.3931 -0.3626 -0.3971
15126TIP3    H266794   4.545   6.791   0.362 -0.0057 -1.0253  0.7795
15127TIP3   OH266795   4.856   2.611  15.211 -0.2356 -0.3285  0.5003
15127TIP3    H166796   4.898   2.545  15.156 -2.2055 -0.9858 -0.2503
15127TIP3    H266797   4.888   2.695  15.178  0.9893 -0.8425  0.3823
15128TIP3   OH266798   2.872   2.947   4.073 -0.2472 -0.6419 -0.5613
15128TIP3    H166799   2.945   3.008   4.080 -1.6315  1.0705 -0.9094
15128TIP3    H266800   2.913   2.863   4.051  1.7016  0.0281  0.4360
15129TIP3   OH266801   5.892   6.279   0.049  0.2902  0.5607 -0.3677
15129TIP3    H166802   5.828   6.272  -0.022 -0.1222 -0.1525  0.0683
15129TIP3    H266803   5.887   6.195   0.094  1.3939  0.5654 -0.2070
15130TIP3   OH266804   4.505   4.763  12.530 -0.7139  0.1927 -0.1279
15130TIP3    H166805   4.513   4.714  12.611 -0.9756 -1.4899 -1.1021
15130TIP3    H266806   4.472   4.849  12.557 -2.3497 -0.8834  1.3668
15131TIP3   OH266807   6.027   5.632   3.528 -0.2464  0.3705 -0.1978
15131TIP3    H166808   5.992   5.652   3.616 -0.7523  1.9552 -0.7416
15131TIP3    H266809   5.949   5.620   3.474  0.0690 -0.4030 -0.4894
15132TIP3   OH266810   2.957   1.229  14.803 -0.2288  0.5151  0.3653
15132TIP3    H166811   2.940   1.209  14.895  0.3344  1.5175  0.6990
15132TIP3    H266812   2.959   1.144  14.760 -0.0830  0.0070  1.3525
15133TIP3   OH266813   0.969   5.193   0.223  0.1195  0.1291 -0.3841
15133TIP3    H166814   0.891   5.143   0.196 -1.5875  1.0390  2.6063
15133TIP3    H266815   0.936   5.281   0.241  1.9285  0.6301  0.5724
15134TIP3   OH266816   3.139   6.189  11.445  0.5601 -0.7049  0.1845
15134TIP3    H166817   3.219   6.151  11.409  1.4636 -1.2021  2.6000
15134TIP3    H266818   3.164   6.279  11.467 -0.0907 -0.2868 -0.7651
15135TIP3   OH266819   4.709   0.263  13.573 -0.0574  0.3422 -0.3465
15135TIP3    H166820   4.617   0.264  13.598  0.3846 -1.3706  1.4728
15135TIP3    H266821   4.756   0.246  13.654  1.7741 -0.3021 -1.5024
15136TIP3   OH266822   6.344   3.110   3.690  0.7447  0.1719 -0.2851
15136TIP3    H166823   6.351   3.036   3.751  1.3663 -0.4145 -1.0601
15136TIP3    H266824   6.251   3.131   3.689  0.6938  0.0176  0.6702
15137TIP3   OH266825   2.049   1.589   4.895  0.0695  0.6495  0.5417
15137TIP3    H166826   1.980   1.545   4.944 -0.5150 -1.1312 -1.7530
15137TIP3    H266827   2.129   1.543   4.919  0.0442  0.9157  1.1311
15138TIP3   OH266828   4.131   5.920   2.912 -0.5015  0.3711  0.2750
15138TIP3    H166829   4.197   5.854   2.888  0.7776  1.0091  1.9378
15138TIP3    H266830   4.052   5.870   2.928  0.2438 -0.6883  0.7340
15139TIP3   OH266831   1.446   4.064   0.761 -0.1159 -0.1719 -0.3494
15139TIP3    H166832   1.490   3.983   0.787  1.7052  0.9632  0.2501
15139TIP3    H266833   1.432   4.054   0.666  0.9078 -0.8211 -0.4404
15140TIP3   OH266834   3.697   1.024   3.908  0.4025  0.1447  0.0000
15140TIP3    H166835   3.648   0.955   3.864 -0.5958  0.9182 -0.1137
15140TIP3    H266836   3.783   0.986   3.925 -0.1396 -1.1130 -0.0794
15141TIP3   OH266837   4.039   4.845  17.117 -0.6397  0.3495 -0.0154
15141TIP3    H166838   4.005   4.911  17.178 -0.1687  0.6232 -0.0385
15141TIP3    H266839   3.980   4.848  17.042  0.5936  2.3080 -0.9725
15142TIP3   OH266840   1.770   1.630  11.554  0.1582 -0.0911  0.8149
15142TIP3    H166841   1.703   1.576  11.512 -0.6429  0.6136  1.1884
15142TIP3    H266842   1.763   1.609  11.647  1.4455 -1.1098  0.6956
15143TIP3   OH266843   2.429   3.131  12.086  0.3132  0.3699  0.0430
15143TIP3    H166844   2.411   3.216  12.047  0.0207 -0.7006 -2.2986
15143TIP3    H266845   2.445   3.073  12.011 -0.7593 -1.9084  1.4832
15144TIP3   OH266846   0.202   0.782   4.983 -0.3210 -0.4268 -0.1056
15144TIP3    H166847   0.241   0.869   4.990 -0.5568 -0.3039 -0.2968
15144TIP3    H266848   0.192   0.752   5.074 -2.1851  0.6234  0.0576
15145TIP3   OH266849   2.218   2.321  15.639 -0.1185  0.3210 -0.0830
15145TIP3    H166850   2.198   2.270  15.561 -0.4606  0.3644 -0.0242
15145TIP3    H266851   2.313   2.323  15.643 -0.1046 -0.9380  0.3296
15146TIP3   OH266852   4.915   3.885  14.063  0.0597  0.0008  0.4052
15146TIP3    H166853   4.919   3.801  14.018 -0.3313  0.2412 -0.0809
15146TIP3    H266854   4.830   3.922  14.039  0.2464  0.5600  0.5760
15147TIP3   OH266855   4.007   6.720   1.747  0.2591 -0.5218  0.0496
15147TIP3    H166856   4.056   6.695   1.826  0.3966 -2.9139 -0.7292
15147TIP3    H266857   4.064   6.692   1.675 -0.7556 -0.2139 -0.8797
15148TIP3   OH266858   4.348   6.505  12.933 -0.3168 -0.0565  0.2823
15148TIP3    H166859   4.303   6.456  13.002 -0.9989  0.1398 -0.0220
15148TIP3    H266860   4.280   6.561  12.895  0.4144  1.0004  0.5134
15149TIP3   OH266861   0.289   1.005  12.576 -0.1589 -0.7474  0.1667
15149TIP3    H166862   0.215   1.017  12.635 -0.3421 -2.8280  0.4064
15149TIP3    H266863   0.251   0.966  12.497  0.8377 -3.3477  0.8956
15150TIP3   OH266864   3.790   5.667   6.328 -0.3786  0.0702  0.5515
15150TIP3    H166865   3.753   5.596   6.275  1.6273 -0.7906  0.2875
15150TIP3    H266866   3.721   5.733   6.330 -1.0589 -0.5251 -1.8616
15151TIP3   OH266867   6.209   3.545   1.945 -0.1326  0.2678  0.6756
15151TIP3    H166868   6.191   3.457   1.979 -0.2257  0.5968  1.4862
15151TIP3    H266869   6.175   3.543   1.856  0.2757 -0.6591  0.5349
15152TIP3   OH266870   4.781   2.606  15.980 -0.1551 -0.7273  0.0389
15152TIP3    H166871   4.702   2.553  15.988  0.0292 -1.0042  0.0292
15152TIP3    H266872   4.769   2.654  15.898 -0.8157  0.0665  0.5967
15153TIP3   OH266873   3.389   2.421   5.536 -0.1792  0.2426  0.2712
15153TIP3    H166874   3.298   2.407   5.512 -1.2757  1.1301  3.6758
15153TIP3    H266875   3.430   2.455   5.456 -3.0777  0.9709 -0.9651
15154TIP3   OH266876   1.443   5.239  12.123 -0.2658  0.0254 -0.1125
15154TIP3    H166877   1.420   5.331  12.121 -0.0744  0.0590 -1.4987
15154TIP3    H266878   1.480   5.225  12.210  1.7361  1.7667 -0.6263
15155TIP3   OH266879   3.426   6.758   2.810 -0.0027  0.4566 -0.6434
15155TIP3    H166880   3.457   6.686   2.864 -0.2734  2.3437  2.1720
15155TIP3    H266881   3.333   6.767   2.833  0.1539  2.0136 -0.5668
15156TIP3   OH266882   5.210   3.195  13.966 -0.3960  0.3055 -0.1168
15156TIP3    H166883   5.306   3.201  13.961 -0.3143 -0.1728  0.7394
15156TIP3    H266884   5.187   3.133  13.897 -0.0434  0.0472 -0.0053
15157TIP3   OH266885   3.320   6.545   0.131  0.0094  0.0442  0.8049
15157TIP3    H166886   3.311   6.498   0.214  0.4053  0.5163  1.1228
15157TIP3    H266887   3.400   6.511   0.092  0.2750  0.4121  1.0166
15158TIP3   OH266888   3.057   2.506   4.591 -0.1610  1.0338  0.3828
15158TIP3    H166889   3.055   2.545   4.679 -2.3503  2.5486 -0.2944
15158TIP3    H266890   3.145   2.526   4.558  0.4095  1.1431  1.9358
15159TIP3   OH266891   3.669   0.307   1.294 -0.3657  1.1117  0.1555
15159TIP3    H166892   3.756   0.268   1.285 -0.4611  0.6436  1.2148
15159TIP3    H266893   3.658   0.358   1.214  0.2712 -0.0220 -0.6794
15160TIP3   OH266894   0.870   0.427   2.654 -0.4046  0.0386  0.7213
15160TIP3    H166895   0.827   0.341   2.649  0.1296 -0.1543 -0.9728
15160TIP3    H266896   0.959   0.410   2.625 -0.2705  1.1585  0.4784
15161TIP3   OH266897   1.235   4.568  13.384  0.2478 -0.0453  0.3107
15161TIP3    H166898   1.288   4.513  13.442 -1.2483 -0.6873  1.1063
15161TIP3    H266899   1.173   4.611  13.443 -3.1701 -2.8399 -1.0661
15162TIP3   OH266900   0.764   6.786   4.253  0.0316 -0.4912 -0.0663
15162TIP3    H166901   0.741   6.760   4.165  1.4023 -2.4474  0.1264
15162TIP3    H266902   0.857   6.809   4.248  0.2946 -1.2492  0.9808
15163TIP3   OH266903   0.319   2.699  16.737 -0.2075 -0.9237  0.5222
15163TIP3    H166904   0.264   2.709  16.815 -0.1679  1.3784  0.3064
15163TIP3    H266905   0.265   2.733  16.666  2.1060  3.1739  0.5887
15164TIP3   OH266906   6.771   4.066  13.381 -0.3506  0.0835  0.0960
15164TIP3    H166907   6.815   4.016  13.450  0.3099  1.2613  0.5491
15164TIP3    H266908   6.749   4.000  13.315 -0.1329 -0.9155  0.9922
15165TIP3   OH266909   1.725   2.764   1.940  0.0797  0.8816 -0.1883
15165TIP3    H166910   1.792   2.705   1.907  0.1342  0.8990 -0.1092
15165TIP3    H266911   1.704   2.731   2.027  1.1066  1.7773  0.4224
15166TIP3   OH266912   1.349   5.809   1.494  0.7146  0.0182  0.7660
15166TIP3    H166913   1.444   5.794   1.488  0.2883 -2.0579 -1.2587
15166TIP3    H266914   1.340   5.904   1.496  2.8883  0.2381  2.0409
15167TIP3   OH266915   5.247   6.034  13.840 -0.1635 -0.8519 -0.3348
15167TIP3    H166916   5.308   6.106  13.857  0.2649 -0.4563 -3.3726
15167TIP3    H266917   5.166   6.061  13.883  0.1166  1.2908 -1.0931
15168TIP3   OH266918   0.810   0.593  12.233  0.2405  0.3059  0.1653
15168TIP3    H166919   0.771   0.676  12.261  0.0045  0.6719 -1.2017
15168TIP3    H266920   0.784   0.530  12.299 -0.1276  1.1897  0.8674
15169TIP3   OH266921   2.939   1.390  11.444 -0.3893 -0.0397 -0.2902
15169TIP3    H166922   2.964   1.298  11.455 -1.5754 -0.6614 -2.5076
15169TIP3    H266923   2.930   1.401  11.350  0.5225  2.5903 -0.1073
15170TIP3   OH266924   2.140   3.562   6.452  0.1477  0.3083  0.5943
15170TIP3    H166925   2.206   3.620   6.490  0.0253 -0.1924  1.5975
15170TIP3    H266926   2.103   3.515   6.527 -1.6602  0.8967  0.0904
15171TIP3   OH266927   1.643   4.562  14.196  0.2198 -0.3955  0.2337
15171TIP3    H166928   1.551   4.545  14.179  0.1126 -0.4821  0.8770
15171TIP3    H266929   1.647   4.653  14.224  0.4042 -0.2249 -0.3553
15172TIP3   OH266930   5.516   1.749   0.968  0.0832 -0.3666 -0.5146
15172TIP3    H166931   5.586   1.789   0.916 -2.5152  0.9234 -3.1580
15172TIP3    H266932   5.497   1.666   0.925  1.0097 -1.4401  1.1097
15173TIP3   OH266933   3.431   2.548   6.345  0.0904  0.0003  0.3380
15173TIP3    H166934   3.484   2.613   6.391 -0.5178 -0.7371  2.1384
15173TIP3    H266935   3.482   2.467   6.352  0.4470  0.0886 -1.1470
15174TIP3   OH266936   1.077   4.998   0.971 -0.3630 -0.2012  0.6700
15174TIP3    H166937   1.015   4.925   0.968 -0.5082 -0.0334 -0.4137
15174TIP3    H266938   1.068   5.042   0.886 -0.3623  1.1611  1.3671
15175TIP3   OH266939   2.114   1.090  16.507  0.2068 -0.3075 -0.6046
15175TIP3    H166940   2.147   1.145  16.437 -0.2646  0.1760 -0.4555
15175TIP3    H266941   2.087   1.009  16.464  2.0244 -0.8992 -0.6484
15176TIP3   OH266942   1.552   0.206   2.279  0.1541  0.2236 -0.2261
15176TIP3    H166943   1.636   0.241   2.309  0.8858 -0.8827 -0.9312
15176TIP3    H266944   1.539   0.127   2.332  1.1359 -1.3766 -2.2914
15177TIP3   OH266945   2.769   5.889   2.672  0.3494 -0.0096  0.5480
15177TIP3    H166946   2.818   5.898   2.591  0.7321 -1.7577  0.5460
15177TIP3    H266947   2.686   5.849   2.646 -0.5460  1.7331  0.7133
15178TIP3   OH266948   5.799   6.261  15.251 -0.7367 -0.3313 -0.1206
15178TIP3    H166949   5.737   6.299  15.313 -1.1466 -1.6387  0.2861
15178TIP3    H266950   5.746   6.241  15.173 -0.3377  0.7773 -0.6884
15179TIP3   OH266951   6.250   3.788   3.911 -0.0505  0.1291 -0.2529
15179TIP3    H166952   6.171   3.738   3.931 -1.8383  3.4375  1.4566
15179TIP3    H266953   6.285   3.814   3.996  0.6647  1.9572 -1.0662
15180TIP3   OH266954   2.378   3.726   5.955  0.5560 -0.4297  0.5036
15180TIP3    H166955   2.389   3.772   5.872 -0.8240 -0.9480  0.0100
15180TIP3    H266956   2.466   3.694   5.976  0.7500 -1.1573 -1.2864
15181TIP3   OH266957   1.534   6.057   1.073  0.6365 -0.0567 -0.3587
15181TIP3    H166958   1.605   6.023   1.128 -1.0625 -1.8521  0.7781
15181TIP3    H266959   1.549   6.017   0.987  1.8681  0.7845 -0.5501
15182TIP3   OH266960   2.590   2.175   3.441 -0.0547 -0.1262 -0.2390
15182TIP3    H166961   2.650   2.235   3.485 -1.6188  2.9842 -2.1129
15182TIP3    H266962   2.646   2.112   3.396  1.7704  1.6312 -0.4731
15183TIP3   OH266963   2.237   2.603  13.988  0.0812 -0.0948  0.0636
15183TIP3    H166964   2.239   2.556  14.071  2.4738 -1.7382 -0.8674
15183TIP3    H266965   2.207   2.539  13.924  1.4799  0.1857 -0.8921
15184TIP3   OH266966   0.200   6.509   6.047  0.2634  0.5095 -0.6746
15184TIP3    H166967   0.138   6.554   5.990  0.3936  2.0388  0.3716
15184TIP3    H266968   0.168   6.525   6.135  1.8689  0.9355 -0.1462
15185TIP3   OH266969   5.408   6.444   0.620 -0.1539  0.0024  0.4305
15185TIP3    H166970   5.449   6.531   0.617 -2.3008  1.0456  0.0963
15185TIP3    H266971   5.471   6.386   0.578  1.2689  1.4228  0.5503
15186TIP3   OH266972   3.811   1.173   6.076  0.2063  0.1467 -0.2932
15186TIP3    H166973   3.860   1.098   6.110 -2.2013 -1.2493  0.1960
15186TIP3    H266974   3.834   1.246   6.134  2.3895 -0.2198 -0.6386
15187TIP3   OH266975   1.143   6.544   0.735 -0.1371  0.3046 -0.3161
15187TIP3    H166976   1.121   6.582   0.820 -0.2796 -0.3683 -0.0475
15187TIP3    H266977   1.230   6.579   0.715  0.6659 -0.9463  0.9455
15188TIP3   OH266978   6.189   5.216   1.360 -0.2065 -0.4545  0.1884
15188TIP3    H166979   6.171   5.132   1.403  0.2039 -0.3509  0.5672
15188TIP3    H266980   6.120   5.274   1.392  0.7366 -0.0813  1.5798
15189TIP3   OH266981   4.358   3.671  13.515  0.1072 -0.0749 -0.0847
15189TIP3    H166982   4.383   3.758  13.547  0.2507 -0.0698 -0.2076
15189TIP3    H266983   4.441   3.629  13.493  0.0561 -0.3468  0.2403
15190TIP3   OH266984   3.815   5.208   1.458  0.5108 -0.1548  0.2305
15190TIP3    H166985   3.866   5.127   1.460  1.7267  0.5558 -1.0847
15190TIP3    H266986   3.781   5.213   1.369 -2.3796 -0.8961  1.2224
15191TIP3   OH266987   5.648   5.330  10.569  0.3572 -0.3307  1.0689
15191TIP3    H166988   5.659   5.312  10.476  0.9063  0.7701  0.9045
15191TIP3    H266989   5.737   5.334  10.603  0.1412 -1.4664  1.7995
15192TIP3   OH266990   4.026   5.404  10.609  0.1393 -0.3779  0.1328
15192TIP3    H166991   3.943   5.366  10.636  0.4412 -1.8708 -0.9393
15192TIP3    H266992   4.009   5.498  10.602 -1.4058 -0.6506  0.0683
15193TIP3   OH266993   0.104   2.320   1.669  0.0438  0.1498 -0.5022
15193TIP3    H166994   0.102   2.225   1.659  1.2848  0.0317  0.2846
15193TIP3    H266995   0.042   2.353   1.604 -1.2170 -1.2567 -0.0387
15194TIP3   OH266996   1.001   3.023  12.433  0.3676 -0.3698 -0.2438
15194TIP3    H166997   0.969   2.967  12.504 -0.3892 -0.5980 -0.7461
15194TIP3    H266998   0.922   3.066  12.399  1.0223  1.4146  0.4735
15195TIP3   OH266999   1.065   2.869   6.550  0.1848 -0.1713  0.0620
15195TIP3    H167000   0.981   2.899   6.585 -0.1789 -1.9130  0.7464
15195TIP3    H267001   1.057   2.774   6.546  2.1663 -0.3776  0.2697
15196TIP3   OH267002   4.425   2.122   3.726 -0.2435 -0.2818 -0.3313
15196TIP3    H167003   4.411   2.031   3.753 -0.4523  0.2342  1.3760
15196TIP3    H267004   4.348   2.143   3.672 -1.3812 -0.4226  1.1876
15197TIP3   OH267005   2.698   2.212  12.906 -0.5869  0.2039  0.3307
15197TIP3    H167006   2.608   2.232  12.931 -1.5956 -1.9638 -1.4128
15197TIP3    H267007   2.728   2.290  12.859 -2.2301  0.2303 -0.7267
15198TIP3   OH267008   1.970   4.717  11.942  0.3962 -0.5109 -0.8441
15198TIP3    H167009   1.901   4.747  11.883 -0.4349  1.1516  0.9265
15198TIP3    H267010   2.047   4.708  11.886  0.3108  3.5700 -1.7865
15199TIP3   OH267011   0.978   0.922  12.981 -0.4276 -0.4671  0.4535
15199TIP3    H167012   0.928   0.992  12.939 -0.9597 -0.8902  0.3902
15199TIP3    H267013   0.915   0.852  12.995  0.1562 -1.0165  0.3286
15200TIP3   OH267014   0.804   4.698   5.751  0.1135  0.3015 -0.0307
15200TIP3    H167015   0.802   4.691   5.846 -0.6670 -0.5777 -0.0985
15200TIP3    H267016   0.722   4.657   5.722  0.2163  0.7977 -1.0649
15201TIP3   OH267017   2.306   0.633  16.982 -0.3305 -0.1959  0.0177
15201TIP3    H167018   2.386   0.642  17.034 -0.3963 -1.2945  0.3306
15201TIP3    H267019   2.259   0.715  16.996  0.7229  0.4369 -0.1313
15202TIP3   OH267020   4.186   2.438   2.679  0.2032  0.4988 -0.2608
15202TIP3    H167021   4.159   2.416   2.769  1.2179 -1.5062 -0.4213
15202TIP3    H267022   4.138   2.376   2.624  0.1457  1.2410 -1.0614
15203TIP3   OH267023   0.656   0.306   4.297  0.2649  0.2521 -0.2476
15203TIP3    H167024   0.703   0.334   4.376 -0.2648  1.3143 -0.2985
15203TIP3    H267025   0.702   0.348   4.225 -2.1859  3.3581 -0.1259
15204TIP3   OH267026   6.010   6.376   1.338  0.2244 -0.1957 -0.4001
15204TIP3    H167027   6.060   6.351   1.261 -0.8612  0.9578 -1.4951
15204TIP3    H267028   6.002   6.472   1.333  0.6231 -0.0310  1.4364
15205TIP3   OH267029   6.233   2.676   0.290 -0.5326 -0.1297  0.4598
15205TIP3    H167030   6.176   2.749   0.267  2.1865  1.4947 -1.4326
15205TIP3    H267031   6.197   2.601   0.243 -0.7700  1.0045 -1.2007
15206TIP3   OH267032   2.443   0.796   2.413 -0.2131  0.4497 -0.3013
15206TIP3    H167033   2.519   0.815   2.358 -0.6598  1.5360 -0.5712
15206TIP3    H267034   2.393   0.731   2.364 -0.1696  0.7770 -0.7896
15207TIP3   OH267035   1.525   5.985  16.925  0.2198  0.7300  0.0723
15207TIP3    H167036   1.466   6.008  16.853  2.0926 -1.9854 -2.4599
15207TIP3    H267037   1.484   5.908  16.965  1.6110 -0.7045 -1.2139
15208TIP3   OH267038   4.259   5.499  10.799  0.0531  0.0926  0.7557
15208TIP3    H167039   4.354   5.500  10.797  0.0777 -0.1350  1.6733
15208TIP3    H267040   4.234   5.440  10.728  0.5530  1.2269 -0.3766
15209TIP3   OH267041   2.675   0.073   5.424 -0.6042 -0.1291 -0.7443
15209TIP3    H167042   2.753   0.030   5.389 -0.8025 -2.3958  1.4981
15209TIP3    H267043   2.631   0.108   5.347  0.5426 -2.3524 -2.4720
15210TIP3   OH267044   6.234   6.617  11.913 -0.2585 -0.2495 -0.2275
15210TIP3    H167045   6.277   6.531  11.913  0.6889  0.2181 -1.3052
15210TIP3    H267046   6.253   6.654  11.827 -1.7064  0.5396 -0.2347
15211TIP3   OH267047   4.935   1.818  14.292 -0.3299 -0.6682  0.1027
15211TIP3    H167048   4.954   1.732  14.330 -0.2233 -0.9591 -0.5897
15211TIP3    H267049   4.987   1.820  14.212  1.5808  1.0190  1.3486
15212TIP3   OH267050   2.123   0.121   4.090 -0.4620 -0.2494 -0.0223
15212TIP3    H167051   2.039   0.077   4.075 -0.7821  0.2311  0.3362
15212TIP3    H267052   2.101   0.195   4.147  0.0780  0.3443 -0.5807
15213TIP3   OH267053   5.257   6.118  16.468 -0.3374 -0.4242  0.1844
15213TIP3    H167054   5.223   6.191  16.519  1.4324  0.8732 -0.4448
15213TIP3    H267055   5.274   6.050  16.533 -1.8980 -0.2730  0.7848
15214TIP3   OH267056   1.076   2.293  15.807  0.5747  0.2638  0.1948
15214TIP3    H167057   1.111   2.249  15.730 -0.1482 -0.3250  0.2003
15214TIP3    H267058   1.017   2.359  15.772  0.4387  0.1654  0.2418
15215TIP3   OH267059   1.050   5.355   5.220  0.4126 -0.3134 -0.1591
15215TIP3    H167060   1.047   5.261   5.203  0.4749 -1.0530  3.4923
15215TIP3    H267061   1.138   5.381   5.194  1.1837 -1.7579  0.9013
15216TIP3   OH267062   4.620   4.661   1.336  0.5760  0.0592 -0.1537
15216TIP3    H167063   4.622   4.654   1.431 -0.6231 -0.6175 -0.1639
15216TIP3    H267064   4.604   4.572   1.305 -0.0971  0.4402 -0.9344
15217TIP3   OH267065   1.742   4.339   3.644  0.2542  0.3979  0.0226
15217TIP3    H167066   1.830   4.376   3.653  0.2521  0.1620  1.1295
15217TIP3    H267067   1.752   4.247   3.667 -0.2944  0.3864  0.2230
15218TIP3   OH267068   6.636   5.966  12.234  0.0159 -0.2272 -0.1083
15218TIP3    H167069   6.593   5.882  12.250 -1.0129 -0.0570 -1.7844
15218TIP3    H267070   6.611   5.988  12.144  3.8473 -0.2668 -1.3013
15219TIP3   OH267071   0.859   3.287  12.915 -0.5376  0.0134  0.2695
15219TIP3    H167072   0.766   3.272  12.930 -0.7143  0.6355 -0.2066
15219TIP3    H267073   0.865   3.378  12.887  0.0731 -0.3723 -0.8862
15220TIP3   OH267074   0.278   0.090   3.284  0.5645 -0.5284 -0.6589
15220TIP3    H167075   0.356   0.068   3.335 -0.0114 -2.1798 -0.4693
15220TIP3    H267076   0.214   0.119   3.348 -0.1742 -2.6462 -0.4034
15221TIP3   OH267077   3.511   0.408  13.987  0.0765  0.5326  0.5067
15221TIP3    H167078   3.517   0.476  13.920 -0.8059 -0.2681 -0.3861
15221TIP3    H267079   3.500   0.326  13.939  0.5471 -0.1932  1.5940
15222TIP3   OH267080   6.619   3.922  17.165  0.2110  0.3512  0.0585
15222TIP3    H167081   6.592   3.840  17.123 -0.6394  0.7298 -0.1508
15222TIP3    H267082   6.707   3.904  17.198  0.2556 -0.4669 -0.4774
15223TIP3   OH267083   3.957   1.317   1.674  0.0465 -1.0393  0.2782
15223TIP3    H167084   3.889   1.314   1.607  0.2989 -0.9082  0.0153
15223TIP3    H267085   3.990   1.227   1.679  0.4960 -0.9050 -0.2576
15224TIP3   OH267086   6.494   6.772   1.943 -0.0783 -0.0170 -0.0834
15224TIP3    H167087   6.436   6.696   1.932 -3.0561  2.1279 -0.0016
15224TIP3    H267088   6.571   6.737   1.987 -1.7799 -2.8380  0.8196
15225TIP3   OH267089   3.982   6.289   2.716  0.4068  0.4784 -0.3830
15225TIP3    H167090   4.027   6.369   2.742  2.6492 -0.9151  0.1618
15225TIP3    H267091   3.967   6.242   2.798  0.6383 -0.4380 -0.8568
15226TIP3   OH267092   1.751   2.126  16.195  0.6165  0.1389  0.3382
15226TIP3    H167093   1.693   2.193  16.159  0.3235 -0.0360  0.4828
15226TIP3    H267094   1.791   2.167  16.272  1.5732  0.6633 -0.4253
15227TIP3   OH267095   5.096   5.298  16.233  0.2754  0.6974  0.5672
15227TIP3    H167096   5.111   5.250  16.314  2.5310  1.4948  0.6540
15227TIP3    H267097   5.072   5.231  16.169  1.9674 -0.3756  1.0284
15228TIP3   OH267098   1.233   5.209  15.490 -0.2442 -0.1044 -0.7101
15228TIP3    H167099   1.311   5.265  15.490  0.8161 -1.5696 -0.0893
15228TIP3    H267100   1.161   5.269  15.509  1.0153  0.8820  1.0991
15229TIP3   OH267101   1.289   4.652   5.214 -0.8557 -0.0029  0.5321
15229TIP3    H167102   1.274   4.717   5.281  0.2239 -0.6614  1.4312
15229TIP3    H267103   1.203   4.635   5.176 -0.7732  4.1630 -1.8539
15230TIP3   OH267104   4.261   5.523  11.241  0.3306  0.6490  0.0118
15230TIP3    H167105   4.282   5.463  11.170 -1.8251  0.3910 -0.4334
15230TIP3    H267106   4.346   5.546  11.279  1.5029  0.7525 -2.5956
15231TIP3   OH267107   3.564   3.200   4.644 -0.2082 -0.1942 -0.4549
15231TIP3    H167108   3.505   3.166   4.576  0.6102 -0.5274 -1.0076
15231TIP3    H267109   3.538   3.291   4.655 -1.3750 -0.5539 -0.1028
15232TIP3   OH267110   4.442   2.902   0.333 -0.0627  0.6376 -1.0423
15232TIP3    H167111   4.510   2.933   0.272 -0.2115 -0.8642 -2.0015
15232TIP3    H267112   4.415   2.818   0.297  0.4726 -0.7107  1.6058
15233TIP3   OH267113   5.802   1.579   0.934  0.1196 -0.0114  0.0555
15233TIP3    H167114   5.783   1.624   0.852  0.3856  1.7661  0.9420
15233TIP3    H267115   5.873   1.518   0.914 -1.7230 -1.6856 -1.6756
15234TIP3   OH267116   3.612   3.654  13.595  0.1943  0.5167 -0.3371
15234TIP3    H167117   3.620   3.560  13.577  0.8327  0.4303  0.3785
15234TIP3    H267118   3.615   3.660  13.691 -1.0473  1.1632 -0.3285
15235TIP3   OH267119   3.777   0.013  14.085 -0.3633  0.4186 -0.3528
15235TIP3    H167120   3.738   0.090  14.042  1.0581  0.7385 -1.1169
15235TIP3    H267121   3.723  -0.060  14.056  0.8824  0.5465 -3.1868
15236TIP3   OH267122   6.750   5.512  12.572  0.1107  0.2792  0.2609
15236TIP3    H167123   6.803   5.458  12.513  1.1045  1.3698  0.1541
15236TIP3    H267124   6.681   5.548  12.516  0.1752  0.1245  0.0825
15237TIP3   OH267125   1.106   5.715  11.911 -0.4313 -0.4349 -0.2094
15237TIP3    H167126   1.179   5.773  11.932 -0.1496 -1.3946  1.4973
15237TIP3    H267127   1.135   5.667  11.834  0.3957 -0.2242 -0.0326
15238TIP3   OH267128   3.696   2.863   4.780 -0.0986  0.1871  0.0932
15238TIP3    H167129   3.695   2.897   4.869 -1.3282  0.8342 -0.1619
15238TIP3    H267130   3.789   2.858   4.758  0.1464  2.5979  0.4389
15239TIP3   OH267131   2.111   2.671  13.637 -0.0363 -0.1114  0.2972
15239TIP3    H167132   2.197   2.676  13.596  1.0567 -0.2596  2.5253
15239TIP3    H267133   2.106   2.749  13.693 -2.1984  1.0138 -1.3902
15240TIP3   OH267134   1.486   6.114  17.188  0.3542 -0.2083 -0.3003
15240TIP3    H167135   1.569   6.105  17.236 -0.1992 -0.4947  0.6129
15240TIP3    H267136   1.512   6.110  17.096  1.4905  0.8219 -0.0441
15241TIP3   OH267137   4.378   1.166  15.379 -0.1496 -0.4099  0.1480
15241TIP3    H167138   4.327   1.103  15.431 -1.4823 -0.6772 -1.4349
15241TIP3    H267139   4.465   1.126  15.371 -0.3368 -0.9977  1.0167
15242TIP3   OH267140   4.442   3.541  14.699  0.1849  0.5644 -0.2323
15242TIP3    H167141   4.430   3.611  14.635 -0.8702  0.2738 -0.3565
15242TIP3    H267142   4.381   3.561  14.770 -0.3147 -0.3711 -0.3936
15243TIP3   OH267143   1.437   3.254   2.898 -0.0750 -0.0662  0.0516
15243TIP3    H167144   1.476   3.279   2.982 -1.2873  0.2193  0.5398
15243TIP3    H267145   1.359   3.308   2.891 -0.8458 -1.2370 -0.5270
15244TIP3   OH267146   0.218   3.284  12.090 -0.5404  0.1721 -0.4028
15244TIP3    H167147   0.292   3.254  12.037  0.0114 -0.1306  0.5335
15244TIP3    H267148   0.182   3.358  12.041 -0.0909 -0.1644 -1.2453
15245TIP3   OH267149   3.217   6.347   3.410 -0.3296 -0.0405 -0.1278
15245TIP3    H167150   3.142   6.311   3.363 -1.2401  0.1411  1.1290
15245TIP3    H267151   3.199   6.441   3.415  0.0407  0.0220  0.0743
15246TIP3   OH267152   3.516   0.742  13.489 -0.5275  0.3435  0.3498
15246TIP3    H167153   3.425   0.739  13.517 -0.3301 -0.8366  0.9044
15246TIP3    H267154   3.514   0.713  13.398 -0.7868  1.0647  0.1184
15247TIP3   OH267155   0.214   0.885   5.593  0.8118  0.4169  0.9611
15247TIP3    H167156   0.201   0.957   5.655 -0.5272 -0.1488  1.3474
15247TIP3    H267157   0.180   0.808   5.638  0.6432 -0.1540 -0.1309
15248TIP3   OH267158   4.099   2.423   6.404 -0.3829  0.1524  0.0246
15248TIP3    H167159   4.191   2.399   6.415 -0.1079  1.4401  0.6517
15248TIP3    H267160   4.102   2.512   6.368 -1.3818  0.5260  0.8393
15249TIP3   OH267161   6.042   4.612  13.185 -0.0795 -0.2078 -0.3574
15249TIP3    H167162   6.020   4.704  13.171  1.0751  0.2614  0.8716
15249TIP3    H267163   6.050   4.603  13.280 -0.3619 -1.6269 -0.4504
15250TIP3   OH267164   3.955   1.955  16.193  0.0915 -0.0997 -0.3236
15250TIP3    H167165   3.879   1.940  16.250  0.4122  0.2200  0.1793
15250TIP3    H267166   3.936   1.902  16.115  0.6667 -2.2762  0.9740
15251TIP3   OH267167   3.793   0.265   5.103  0.2756  0.3976 -0.0980
15251TIP3    H167168   3.798   0.186   5.157  0.7212  0.3945 -0.1412
15251TIP3    H267169   3.811   0.234   5.014 -1.5011  0.2289 -0.4191
15252TIP3   OH267170   2.801   4.602  14.655  0.1192 -0.0934 -0.7340
15252TIP3    H167171   2.847   4.534  14.607 -1.1906  0.5123 -2.9766
15252TIP3    H267172   2.853   4.681  14.641 -0.6695  0.2490 -1.9092
15253TIP3   OH267173   4.119   0.403  16.424  0.0161 -0.5593  0.0581
15253TIP3    H167174   4.076   0.361  16.499  0.5090 -0.5958  0.3203
15253TIP3    H267175   4.091   0.351  16.349  0.2504 -1.0740  0.3237
15254TIP3   OH267176   5.552   5.138   5.676 -0.0260  0.6750  0.1605
15254TIP3    H167177   5.458   5.121   5.677  0.4126 -1.9307 -0.4259
15254TIP3    H267178   5.570   5.166   5.586 -0.0065 -0.3325 -0.1578
15255TIP3   OH267179   0.138   2.712  11.533 -0.2290  0.2014 -0.4715
15255TIP3    H167180   0.152   2.627  11.490 -1.2304 -0.0873 -0.2394
15255TIP3    H267181   0.128   2.690  11.626  0.8254  0.7129 -0.2371
15256TIP3   OH267182   2.987   2.086   4.536  0.2292 -0.7800  0.0394
15256TIP3    H167183   3.071   2.131   4.545  0.2465 -0.5556 -1.1446
15256TIP3    H267184   2.982   2.063   4.443 -0.3120 -2.1826  0.4085
15257TIP3   OH267185   6.463   6.147  17.226  0.5071 -0.3920  0.6708
15257TIP3    H167186   6.503   6.153  17.139 -1.4165 -1.7714 -0.3297
15257TIP3    H267187   6.442   6.237  17.249  3.7741  0.3572  1.0711
15258TIP3   OH267188   6.580   0.608  10.777 -0.2512 -0.1526 -0.3707
15258TIP3    H167189   6.639   0.543  10.814 -0.3793  0.1619  0.3929
15258TIP3    H267190   6.499   0.560  10.759 -0.0626 -0.3880 -0.5959
15259TIP3   OH267191   4.926   4.816   0.520  0.0547  0.1464  0.4664
15259TIP3    H167192   4.924   4.911   0.520 -0.6496  0.1409 -0.4536
15259TIP3    H267193   4.954   4.793   0.431  0.1845 -0.5036  0.6732
15260TIP3   OH267194   2.258   5.009   6.135  0.0799 -0.4342 -0.5061
15260TIP3    H167195   2.185   5.028   6.075  0.2274  1.1963 -0.2032
15260TIP3    H267196   2.335   5.012   6.079  0.1798  0.7218 -0.3362
15261TIP3   OH267197   5.193   3.764  11.887 -0.2382  0.1393  0.1242
15261TIP3    H167198   5.263   3.828  11.877  0.3283 -0.5037 -0.0925
15261TIP3    H267199   5.228   3.684  11.847 -0.9417 -0.2970  0.3722
15262TIP3   OH267200   4.832   3.810  13.499 -0.3179  0.1854 -0.4254
15262TIP3    H167201   4.927   3.816  13.492 -0.3532 -1.3823 -2.7340
15262TIP3    H267202   4.805   3.898  13.526  1.6837  1.0028 -0.9565
15263TIP3   OH267203   0.487   2.172   4.259  0.1005  0.2919 -0.2287
15263TIP3    H167204   0.478   2.114   4.184 -0.7707 -1.6658  1.3380
15263TIP3    H267205   0.565   2.225   4.240  0.2174 -0.5786 -2.2245
15264TIP3   OH267206   6.408   0.403   1.207  0.4878  0.2718  0.3964
15264TIP3    H167207   6.459   0.463   1.262  2.1595  1.4734 -2.3339
15264TIP3    H267208   6.340   0.457   1.169  0.3048 -0.1816  0.0737
15265TIP3   OH267209   0.065   3.781  14.863 -0.2908 -0.5337 -0.1570
15265TIP3    H167210   0.014   3.700  14.871 -0.5716 -0.4484 -1.0285
15265TIP3    H267211   0.082   3.807  14.954 -0.3112 -1.4954  0.1278
15266TIP3   OH267212   2.131   5.422  15.469  0.2510 -0.4959 -0.4506
15266TIP3    H167213   2.058   5.362  15.483  0.0494 -0.0263  0.5152
15266TIP3    H267214   2.122   5.450  15.378 -0.1395 -1.2733 -0.6532
15267TIP3   OH267215   1.702   2.838   5.672 -0.1732  0.1200 -0.7665
15267TIP3    H167216   1.763   2.881   5.612 -0.2497 -1.1967 -1.8028
15267TIP3    H267217   1.706   2.746   5.649 -2.3442 -0.0347 -0.6656
15268TIP3   OH267218   3.640   4.003   4.207 -0.2722 -0.2459  0.1183
15268TIP3    H167219   3.621   4.028   4.117 -1.9568 -0.7070  0.3132
15268TIP3    H267220   3.574   3.937   4.227  2.7095 -3.2847  0.3279
15269TIP3   OH267221   3.783   2.002   1.160 -0.9283  0.1892  0.6417
15269TIP3    H167222   3.744   1.962   1.082 -1.2159 -1.0002  1.3781
15269TIP3    H267223   3.876   2.006   1.141 -0.9251 -0.6396  0.4736
15270TIP3   OH267224   0.144   4.942   5.853 -0.3237 -0.4351 -0.1415
15270TIP3    H167225   0.054   4.965   5.831  0.0994  1.5914  0.1473
15270TIP3    H267226   0.188   5.026   5.866  1.2338 -1.4250  1.2498
15271TIP3   OH267227   2.738   1.749  15.777 -0.1760  0.1390 -0.0541
15271TIP3    H167228   2.713   1.690  15.848 -0.0054  0.2420  0.0898
15271TIP3    H267229   2.833   1.759  15.785  0.0690 -1.0683 -1.2349
15272TIP3   OH267230   1.129   2.199   2.437  0.3869 -0.0273  0.0660
15272TIP3    H167231   1.039   2.166   2.445  0.4596  0.0778  1.4729
15272TIP3    H267232   1.149   2.233   2.524  1.2810  1.2596 -0.6336
15273TIP3   OH267233   2.929   6.141   5.182 -0.2784  0.4931  0.5918
15273TIP3    H167234   2.885   6.222   5.209 -2.6931 -0.4078 -0.4388
15273TIP3    H267235   2.975   6.164   5.101  0.2142  1.1686  1.0596
15274TIP3   OH267236   6.613   2.084  15.762 -0.0257 -0.2294  0.0825
15274TIP3    H167237   6.548   2.153  15.750  1.3171  1.0995  0.2191
15274TIP3    H267238   6.577   2.027  15.829 -1.3723  0.0683 -0.3757
15275TIP3   OH267239   3.634   2.017   5.288  0.2751  0.0219  0.0582
15275TIP3    H167240   3.614   1.927   5.265 -0.9683  0.3196 -0.0409
15275TIP3    H267241   3.562   2.044   5.345  1.1391  0.6433  0.8753
15276TIP3   OH267242   0.131   3.394  14.041 -0.4848  0.2287  0.1485
15276TIP3    H167243   0.170   3.381  14.127  0.6200 -1.2889 -0.5369
15276TIP3    H267244   0.064   3.326  14.034  0.8383 -1.0107 -0.9501
15277TIP3   OH267245   5.793   0.346   3.173 -0.1843 -1.1519  0.1557
15277TIP3    H167246   5.769   0.430   3.211  1.3687 -1.3752  1.6992
15277TIP3    H267247   5.729   0.285   3.209  0.5531 -1.1513  1.4980
15278TIP3   OH267248   1.537   5.064   0.273 -0.8644 -0.9278  0.3905
15278TIP3    H167249   1.475   5.135   0.259  0.3005 -0.1801 -1.2040
15278TIP3    H267250   1.605   5.102   0.328 -0.2046 -0.7725 -0.5224
15279TIP3   OH267251   5.089   2.760   0.385 -0.3829  0.1090 -0.7250
15279TIP3    H167252   5.063   2.673   0.415 -1.0256  0.3959 -0.4575
15279TIP3    H267253   5.009   2.799   0.351 -0.3949  1.1354  0.4588
15280TIP3   OH267254   4.025   0.173   0.775  0.5517 -0.0068  0.3067
15280TIP3    H167255   3.936   0.185   0.743  0.1608 -3.8423 -0.2727
15280TIP3    H267256   4.061   0.261   0.780 -2.7032  1.4698 -1.0690
15281TIP3   OH267257   6.309   3.098   4.848  0.0886  0.1569 -0.1029
15281TIP3    H167258   6.282   3.007   4.835  0.4900 -0.2340  1.6898
15281TIP3    H267259   6.389   3.093   4.899 -0.2524  1.5397  0.6119
15282TIP3   OH267260   0.473   0.756  15.241  0.8266  0.6462 -0.2746
15282TIP3    H167261   0.555   0.799  15.267  0.1081  1.3697  0.8120
15282TIP3    H267262   0.429   0.737  15.324 -0.0402  0.1110 -0.8570
15283TIP3   OH267263   0.483   6.046  13.092  0.9449  0.1663  0.3152
15283TIP3    H167264   0.482   5.951  13.088 -0.2039  0.1782  0.1493
15283TIP3    H267265   0.397   6.070  13.126  1.7133  1.0929  1.6354
15284TIP3   OH267266   2.255   5.980   5.799 -0.1138  0.4519 -0.4967
15284TIP3    H167267   2.269   5.928   5.879  1.0494 -0.5141 -1.3242
15284TIP3    H267268   2.187   6.043   5.824  0.2564  0.1862  1.2736
15285TIP3   OH267269   5.700   2.909  13.583  0.4205 -0.3911 -0.2046
15285TIP3    H167270   5.793   2.930  13.583  0.1374  0.9057  0.2583
15285TIP3    H267271   5.677   2.898  13.675  0.4151 -2.1866 -0.3889
15286TIP3   OH267272   2.166   4.269  15.525 -0.1332 -0.0879 -0.0765
15286TIP3    H167273   2.118   4.212  15.466  0.4020 -0.3355 -0.2810
15286TIP3    H267274   2.107   4.283  15.599 -0.8111  0.2398 -0.6728
15287TIP3   OH267275   0.769   5.342  12.902  0.0257  0.2783  0.3659
15287TIP3    H167276   0.801   5.429  12.876 -0.3062  0.2957  0.0089
15287TIP3    H267277   0.744   5.301  12.819  2.4501 -1.0761  0.2482
15288TIP3   OH267278   4.951   5.299   1.568  0.4917  0.3178 -0.0867
15288TIP3    H167279   4.942   5.383   1.523 -1.6938 -0.1262 -0.5198
15288TIP3    H267280   4.923   5.234   1.504  2.1542 -0.7711  0.2526
15289TIP3   OH267281   2.174   4.722   4.653 -0.1254 -0.1117 -0.2072
15289TIP3    H167282   2.096   4.759   4.610 -0.8673 -1.9805 -0.5567
15289TIP3    H267283   2.229   4.693   4.580  0.2936  0.0341  0.0547
15290TIP3   OH267284   0.987   1.999  15.940  0.1344  0.2695 -0.5678
15290TIP3    H167285   0.975   1.947  15.861 -1.0676 -0.0802 -0.1637
15290TIP3    H267286   0.898   2.017  15.971  0.5810 -1.2579  1.7748
15291TIP3   OH267287   5.338   3.808   1.285  0.3948  0.7613 -0.0585
15291TIP3    H167288   5.323   3.899   1.311 -0.2202  0.6722 -0.0991
15291TIP3    H267289   5.316   3.756   1.363  0.3435  0.6214 -0.1658
15292TIP3   OH267290   3.095   2.197   4.918  0.2151  0.1106 -0.1201
15292TIP3    H167291   3.048   2.131   4.868  1.1891 -0.1674 -0.6818
15292TIP3    H267292   3.146   2.146   4.982 -0.4120  0.4184  0.6284
15293TIP3   OH267293   6.409   6.421   3.511 -0.0166  0.0662  0.0050
15293TIP3    H167294   6.465   6.344   3.523  1.1110  0.8588 -0.1179
15293TIP3    H267295   6.341   6.412   3.578  0.8793 -0.3435  0.8686
15294TIP3   OH267296   5.681   5.183  14.031 -0.3937  0.0673  0.1859
15294TIP3    H167297   5.761   5.233  14.046 -0.8365  1.4894 -1.9853
15294TIP3    H267298   5.694   5.102  14.081  0.3000  2.3353  3.8792
15295TIP3   OH267299   6.288   3.169  11.116  0.0907  0.0855  0.7479
15295TIP3    H167300   6.293   3.225  11.039  0.1604 -0.7566  0.1358
15295TIP3    H267301   6.194   3.164  11.136  0.2149  2.0024  1.9913
15296TIP3   OH267302   5.881   4.821   5.153  0.1422 -0.3265  0.1547
15296TIP3    H167303   5.806   4.837   5.211  0.6876 -2.2953  1.4483
15296TIP3    H267304   5.849   4.846   5.066 -1.1744  1.2660  1.0487
15297TIP3   OH267305   1.580   5.112   5.869 -0.3634 -0.0532  0.1982
15297TIP3    H167306   1.650   5.072   5.921 -0.4015 -0.2019  0.1370
15297TIP3    H267307   1.601   5.087   5.779 -0.5862 -0.2334  0.1966
15298TIP3   OH267308   6.592   3.191  13.363  1.1048  0.0108 -0.5053
15298TIP3    H167309   6.568   3.217  13.273 -1.7067  0.7864  0.4064
15298TIP3    H267310   6.590   3.096  13.362  1.7625  0.0062 -1.4547
15299TIP3   OH267311   2.759   4.132  16.394 -0.0590 -0.5768  0.5868
15299TIP3    H167312   2.854   4.125  16.381 -0.3003 -0.1446 -1.7382
15299TIP3    H267313   2.747   4.218  16.434  0.4525 -0.0862 -0.2838
15300TIP3   OH267314   2.437   0.235   0.627  0.3898 -0.1818 -0.1593
15300TIP3    H167315   2.525   0.245   0.592  0.3363  1.4780  0.1615
15300TIP3    H267316   2.451   0.213   0.720  0.4888 -2.5380 -0.6915
15301TIP3   OH267317   3.990   3.147  11.626  0.1004  0.6538  0.1223
15301TIP3    H167318   4.002   3.221  11.685 -0.6697 -0.4512  1.7155
15301TIP3    H267319   3.899   3.151  11.600 -0.3737 -0.6209  1.4932
15302TIP3   OH267320   0.643   5.070  12.042  0.0511 -0.1267  0.2664
15302TIP3    H167321   0.634   5.157  12.004 -1.4397  0.3636  1.6809
15302TIP3    H267322   0.587   5.014  11.988 -0.5565  0.1898  0.5658
15303TIP3   OH267323   6.603   5.289   0.639 -0.4579  0.1394 -0.2251
15303TIP3    H167324   6.625   5.327   0.724 -0.0837 -1.2318  0.3139
15303TIP3    H267325   6.681   5.305   0.585 -0.3207  0.1661 -0.0184
15304TIP3   OH267326   4.777   4.063  14.776  0.2147  0.3133  0.0837
15304TIP3    H167327   4.774   4.137  14.715 -0.0858 -0.1621 -0.4762
15304TIP3    H267328   4.820   4.099  14.854  1.1722  0.7419 -0.6381
15305TIP3   OH267329   4.923   3.940  12.905  0.3352  0.0322 -0.2881
15305TIP3    H167330   4.937   3.845  12.914  0.4110  0.0256 -0.4745
15305TIP3    H267331   4.871   3.949  12.826 -3.2768 -0.1676  1.9338
15306TIP3   OH267332   0.286   3.630  11.477 -0.2488 -0.0308  0.5114
15306TIP3    H167333   0.282   3.724  11.497  2.3313  0.3259 -0.5053
15306TIP3    H267334   0.352   3.595  11.537  1.5870 -0.4655 -1.7081
15307TIP3   OH267335   4.324   3.958   2.028 -0.3539 -0.3298 -0.5624
15307TIP3    H167336   4.333   3.886   1.966  2.7553 -0.2507 -0.2660
15307TIP3    H267337   4.356   3.923   2.111  0.0526  1.0113 -0.1381
15308TIP3   OH267338   2.446   6.491  11.574 -0.3045  0.9098 -0.4601
15308TIP3    H167339   2.469   6.527  11.660 -0.1797  1.1834 -0.6065
15308TIP3    H267340   2.496   6.544  11.512  0.0986  0.2978 -0.6567
15309TIP3   OH267341   3.567   4.468   0.691  0.2962  0.1132  0.0571
15309TIP3    H167342   3.545   4.529   0.761 -1.7255 -0.9096  0.3729
15309TIP3    H267343   3.616   4.398   0.735  2.1650  1.2222 -0.2159
15310TIP3   OH267344   4.523   2.477  13.765  0.8060  0.2936  0.0633
15310TIP3    H167345   4.506   2.389  13.798 -0.2958  0.7900  0.8555
15310TIP3    H267346   4.488   2.535  13.833  2.7624  1.3542  0.1946
15311TIP3   OH267347   5.197   1.765  15.713 -0.1172  0.1631  0.2646
15311TIP3    H167348   5.197   1.841  15.656 -1.8434  0.1700  0.2412
15311TIP3    H267349   5.268   1.709  15.680  1.0599  1.6797  0.2020
15312TIP3   OH267350   3.723   4.283  16.296 -0.1763 -0.3129  0.1782
15312TIP3    H167351   3.777   4.214  16.336  0.1649  0.1570  0.5418
15312TIP3    H267352   3.664   4.237  16.237  1.0103 -0.7989 -0.6574
15313TIP3   OH267353   0.413   5.511  12.015  0.7005 -0.0679 -0.0523
15313TIP3    H167354   0.480   5.490  11.950  0.0337  0.0998 -0.8101
15313TIP3    H267355   0.332   5.516  11.964  0.1358 -0.1402  0.8314
15314TIP3   OH267356   0.250   6.681  14.940 -0.4067 -0.0313  0.2771
15314TIP3    H167357   0.319   6.681  14.874  0.5217  0.2319  1.2212
15314TIP3    H267358   0.184   6.622  14.906  0.4096 -0.4907 -0.5357
15315TIP3   OH267359   1.523   4.597   1.265 -0.2016 -0.1917 -0.2014
15315TIP3    H167360   1.487   4.681   1.293  1.0932  1.0318 -2.0970
15315TIP3    H267361   1.574   4.567   1.340  1.5079  2.0198 -0.4057
15316TIP3   OH267362   3.143   5.527  16.748 -0.2810  0.3134 -0.0397
15316TIP3    H167363   3.064   5.508  16.698 -1.8820  1.1334  2.1312
15316TIP3    H267364   3.206   5.557  16.683 -2.4812  1.8338 -1.5226
15317TIP3   OH267365   6.422   2.717   6.428  0.1623 -0.1264  0.1408
15317TIP3    H167366   6.387   2.640   6.473 -0.7946 -0.2098 -0.7090
15317TIP3    H267367   6.354   2.783   6.437 -1.0001 -0.7995 -2.9229
15318TIP3   OH267368   5.885   0.801   3.525  0.1742 -0.2555 -0.8023
15318TIP3    H167369   5.936   0.879   3.548 -0.5729 -0.1674  0.6161
15318TIP3    H267370   5.864   0.813   3.432  1.1945  0.5787 -0.9377
15319TIP3   OH267371   5.000   2.325   5.803  0.4369  0.5843 -0.5505
15319TIP3    H167372   4.934   2.260   5.780 -0.5448  1.2399  0.4157
15319TIP3    H267373   5.074   2.306   5.744  0.6019 -2.0989  0.4766
15320TIP3   OH267374   5.384   5.408  16.220  0.0044 -0.3457 -0.1176
15320TIP3    H167375   5.307   5.352  16.214 -1.0637  1.1478 -0.5667
15320TIP3    H267376   5.400   5.417  16.314 -1.0701  0.3053  0.0002
15321TIP3   OH267377   0.784   6.686   5.476  0.2942 -0.6919 -0.4643
15321TIP3    H167378   0.694   6.663   5.502 -0.1648  0.4720 -0.9945
15321TIP3    H267379   0.834   6.606   5.491 -1.0936 -1.7729 -1.4230
15322TIP3   OH267380   1.159   3.994  17.080 -0.4671 -0.5359 -0.9196
15322TIP3    H167381   1.199   3.924  17.028  2.4119 -0.4047  0.9737
15322TIP3    H267382   1.090   4.029  17.024 -0.7083 -3.6034 -2.6705
15323TIP3   OH267383   5.183   4.986   5.062  0.0496  0.0013  0.3961
15323TIP3    H167384   5.255   4.934   5.027 -2.1054 -2.2214 -0.8083
15323TIP3    H267385   5.127   4.923   5.106 -1.8593  1.5272  0.1976
15324TIP3   OH267386   0.782   1.862   0.673 -0.0201 -0.6772 -0.5194
15324TIP3    H167387   0.845   1.830   0.608  1.3742  1.4660 -0.2588
15324TIP3    H267388   0.787   1.957   0.667 -2.3196 -0.4725  0.4203
15325TIP3   OH267389   6.390   4.533  16.412  0.3154 -0.1301  0.4894
15325TIP3    H167390   6.482   4.549  16.431  0.6155 -1.0376 -0.1963
15325TIP3    H267391   6.385   4.440  16.392 -0.3926  0.3117 -1.4896
15326TIP3   OH267392   1.065   0.112   5.436  0.3607 -0.1773  0.5475
15326TIP3    H167393   1.089   0.084   5.348  1.5040 -1.3788  1.2138
15326TIP3    H267394   1.148   0.142   5.475 -0.5159  2.4889  0.4722
15327TIP3   OH267395   4.846   5.481  16.573  0.5358 -0.0421  0.3551
15327TIP3    H167396   4.808   5.559  16.614  1.5524  0.0216  1.1925
15327TIP3    H267397   4.774   5.442  16.525 -0.0096  1.3782 -0.0066
15328TIP3   OH267398   2.735   4.389   5.525 -0.3575  0.0193 -0.1194
15328TIP3    H167399   2.752   4.304   5.484  0.9709 -0.1427  0.7570
15328TIP3    H267400   2.806   4.400   5.588 -0.0381  2.1625 -0.8232
15329TIP3   OH267401   1.009   4.648   1.107 -0.5212 -0.2614  0.0182
15329TIP3    H167402   0.998   4.572   1.050 -1.5855 -1.4230  1.7022
15329TIP3    H267403   0.931   4.701   1.092 -1.1587 -0.9295  0.8843
15330TIP3   OH267404   2.992   4.287   5.160 -0.4199 -0.2984  0.0861
15330TIP3    H167405   2.926   4.300   5.092 -0.1003  0.3200 -0.1108
15330TIP3    H267406   3.065   4.343   5.134 -0.3953  0.1456  1.0746
15331TIP3   OH267407   5.989   4.591   0.808 -0.0871 -0.3181 -0.0410
15331TIP3    H167408   5.969   4.622   0.719 -2.1130  0.7384  0.7359
15331TIP3    H267409   5.932   4.515   0.820 -0.2609 -0.0965  0.5555
15332TIP3   OH267410   0.587   3.247  15.212 -0.0789 -0.3105  0.0709
15332TIP3    H167411   0.643   3.314  15.174 -1.5870  2.5629  2.6508
15332TIP3    H267412   0.647   3.182  15.248  1.5288  1.3166  0.3983
15333TIP3   OH267413   5.470   1.981   2.019  0.3058  0.2985  0.2847
15333TIP3    H167414   5.447   1.961   2.109 -0.1268  0.0186  0.1091
15333TIP3    H267415   5.447   2.073   2.008  0.3219  0.3219  0.4458
15334TIP3   OH267416   3.738   3.569   5.141 -0.4295  0.1672  0.8423
15334TIP3    H167417   3.797   3.549   5.068 -0.5714 -0.4340  0.8928
15334TIP3    H267418   3.786   3.541   5.219 -0.4370  0.4571  0.9525
15335TIP3   OH267419   3.444   6.549   1.296  0.3468  0.2473  0.3753
15335TIP3    H167420   3.536   6.524   1.285  0.5085 -0.1971  2.5121
15335TIP3    H267421   3.444   6.604   1.374 -1.0805  1.0261 -0.1669
15336TIP3   OH267422   3.596   1.057  13.966  0.2320 -0.4245 -0.2143
15336TIP3    H167423   3.627   1.128  13.910 -0.1133 -0.0817  0.0284
15336TIP3    H267424   3.533   1.099  14.026 -0.5116 -1.0641 -0.5403
15337TIP3   OH267425   2.314   3.177  11.582  0.4297  1.2673 -0.2845
15337TIP3    H167426   2.302   3.247  11.646 -1.8405  2.2509 -1.7253
15337TIP3    H267427   2.259   3.105  11.615  2.0262  0.4667  0.6970
15338TIP3   OH267428   6.514   0.466  12.532 -0.1919 -0.1080 -0.1867
15338TIP3    H167429   6.549   0.528  12.597 -0.0405  0.6998 -1.0217
15338TIP3    H267430   6.488   0.390  12.584  0.8309  0.1260  0.7136
15339TIP3   OH267431   1.216   1.549   5.248 -0.0367  0.3206  0.1788
15339TIP3    H167432   1.153   1.504   5.304  0.3350 -0.1281  0.2387
15339TIP3    H267433   1.194   1.519   5.159  0.6077 -0.4841  0.2763
15340TIP3   OH267434   2.795   2.887  13.187 -0.1856  0.4971  0.0335
15340TIP3    H167435   2.706   2.887  13.153  0.1355  2.1491 -0.8716
15340TIP3    H267436   2.844   2.830  13.129 -0.5415 -0.0218  0.2401
15341TIP3   OH267437   1.739   3.635   5.751 -0.2682  0.0437  0.7361
15341TIP3    H167438   1.679   3.625   5.826 -1.0130 -0.2336  0.1082
15341TIP3    H267439   1.704   3.576   5.684 -1.6082  2.8188 -1.0880
15342TIP3   OH267440   3.924   2.367   0.849 -0.3009 -0.0605 -0.3552
15342TIP3    H167441   4.012   2.333   0.831 -0.0936 -0.6254  1.6256
15342TIP3    H267442   3.937   2.461   0.860  0.4625 -0.4019  2.1005
15343TIP3   OH267443   4.333   2.554  15.992  0.4514  0.2073  0.2702
15343TIP3    H167444   4.417   2.509  15.986 -1.3911 -3.2369 -1.6690
15343TIP3    H267445   4.351   2.643  15.963  3.2616 -0.6990 -0.9559
15344TIP3   OH267446   2.484   2.874  14.212  0.3214 -0.2033  0.0594
15344TIP3    H167447   2.422   2.922  14.157  1.8383  2.0901  0.2722
15344TIP3    H267448   2.434   2.851  14.290 -1.1324 -1.2416 -1.1399
15345TIP3   OH267449   5.720   4.200  12.112 -0.2616  0.3507  0.2276
15345TIP3    H167450   5.709   4.260  12.038 -1.7141  2.2224  1.9085
15345TIP3    H267451   5.747   4.117  12.072 -3.3333  0.6441 -2.6322
15346TIP3   OH267452   1.756   2.105  11.695  0.0670  0.5134  0.1899
15346TIP3    H167453   1.807   2.074  11.770 -0.1777  0.5181  0.3597
15346TIP3    H267454   1.775   2.042  11.625  0.6681  0.7811  0.1144
15347TIP3   OH267455   1.767   3.909   2.829 -0.1173  0.0301 -0.6026
15347TIP3    H167456   1.730   3.836   2.780  3.9055 -1.3466 -1.6842
15347TIP3    H267457   1.837   3.943   2.774  1.1850  1.6798  1.9737
15348TIP3   OH267458   1.145   5.681   0.104  0.1271  0.1629 -0.2334
15348TIP3    H167459   1.213   5.744   0.077  1.0019 -0.6791 -0.0075
15348TIP3    H267460   1.177   5.645   0.186  0.2059 -1.4629 -0.9715
15349TIP3   OH267461   5.890   6.740   4.963  0.1294 -0.3628  0.1070
15349TIP3    H167462   5.897   6.650   4.995 -0.1205 -0.1011  0.9091
15349TIP3    H267463   5.969   6.783   4.996 -0.6686  0.1961  1.3351
15350TIP3   OH267464   4.149   4.125  15.435  0.3723 -0.3385 -0.1373
15350TIP3    H167465   4.161   4.159  15.347  1.7161 -1.7392 -0.5129
15350TIP3    H267466   4.182   4.194  15.492 -1.6083  1.0765 -0.6504
15351TIP3   OH267467   4.013   0.690  14.172 -0.0487 -0.0731  0.2716
15351TIP3    H167468   4.073   0.719  14.104  0.2238  0.1934  0.6189
15351TIP3    H267469   3.955   0.765  14.187  1.0656  0.5586  1.6231
15352TIP3   OH267470   6.067   4.256   1.525  0.0017 -0.1324 -0.6478
15352TIP3    H167471   6.111   4.260   1.440 -3.8524  1.7487 -2.6494
15352TIP3    H267472   6.010   4.179   1.519 -0.0058 -0.2096  0.3796
15353TIP3   OH267473   1.236   4.974  12.926 -0.2067  0.9173  0.2267
15353TIP3    H167474   1.192   5.038  12.870  0.9490  0.5830 -1.1091
15353TIP3    H267475   1.327   4.977  12.898  0.3354  0.5202  1.9161
15354TIP3   OH267476   0.150   3.610   1.783 -0.2730  0.1842 -0.5572
15354TIP3    H167477   0.096   3.559   1.844  3.5975 -3.6663 -0.0625
15354TIP3    H267478   0.190   3.678   1.837  0.3145 -0.9478  0.4520
15355TIP3   OH267479   4.799   5.543  15.204  0.3661  0.4920 -0.4038
15355TIP3    H167480   4.716   5.510  15.170  1.7825 -1.6812 -1.9392
15355TIP3    H267481   4.791   5.638  15.199 -1.8837  0.3100 -0.8575
15356TIP3   OH267482   1.422   4.383   1.457 -0.0299 -0.0731 -0.3503
15356TIP3    H167483   1.335   4.377   1.496  0.5131  0.3326  0.9669
15356TIP3    H267484   1.410   4.353   1.367 -1.2231 -1.5096  0.2626
15357TIP3   OH267485   5.697   3.894   4.571 -0.0643  0.0437  0.1265
15357TIP3    H167486   5.652   3.888   4.655  1.4744 -0.4440  0.9270
15357TIP3    H267487   5.671   3.815   4.524 -2.1823  1.0815 -0.5072
15358TIP3   OH267488   2.547   5.953   2.362 -0.8787 -0.1282 -0.1579
15358TIP3    H167489   2.562   5.925   2.453 -1.6315  0.4393  0.1436
15358TIP3    H267490   2.584   5.882   2.309 -0.2355 -0.3605  0.5843
15359TIP3   OH267491   5.476   5.640  15.795 -0.3282  0.0365  0.3293
15359TIP3    H167492   5.506   5.612  15.882  1.5077  0.6078 -0.0844
15359TIP3    H267493   5.452   5.559  15.751 -1.0845 -0.2761  1.3106
15360TIP3   OH267494   1.113   3.220   1.704 -0.0421  0.3841  0.1351
15360TIP3    H167495   1.032   3.221   1.654 -0.4009  0.1052  0.7012
15360TIP3    H267496   1.098   3.156   1.774 -0.1279  1.8835  1.5357
15361TIP3   OH267497   1.317   5.086   5.866 -0.5135  0.2746 -0.5500
15361TIP3    H167498   1.410   5.107   5.878 -0.4625 -0.1359 -0.2070
15361TIP3    H267499   1.279   5.098   5.953 -0.0413 -3.2912  0.2012
15362TIP3   OH267500   4.766   3.805   6.069 -0.4546 -0.3101 -0.0968
15362TIP3    H167501   4.833   3.758   6.118 -0.6651 -0.1530  0.3491
15362TIP3    H267502   4.701   3.829   6.135  0.2422  1.6762 -0.0778
15363TIP3   OH267503   1.861   3.017  10.961  0.1675  0.3502  0.3534
15363TIP3    H167504   1.957   3.012  10.971  0.3484  3.9067  0.9497
15363TIP3    H267505   1.847   3.018  10.867  0.7506  0.2399  0.2592
15364TIP3   OH267506   3.218   1.181   1.031  0.4374  0.3932 -0.4203
15364TIP3    H167507   3.224   1.097   1.077 -0.7108  0.9647  0.8323
15364TIP3    H267508   3.239   1.246   1.098  0.0794  1.1710 -1.0608
15365TIP3   OH267509   4.940   1.071  13.002  0.3190 -0.2048  0.1754
15365TIP3    H167510   4.857   1.111  12.975 -1.1411 -1.5512  2.5533
15365TIP3    H267511   4.937   0.982  12.967  1.7105  0.3936 -1.5183
15366TIP3   OH267512   0.136   2.145  12.852  0.0752 -0.6318  0.0894
15366TIP3    H167513   0.068   2.200  12.814  0.2058 -0.1605  0.5394
15366TIP3    H267514   0.114   2.056  12.822  1.3445 -0.0422 -2.7936
15367TIP3   OH267515   1.665   5.555  12.024 -0.0591 -0.3308 -0.2216
15367TIP3    H167516   1.604   5.627  12.043 -0.0196 -0.3803  0.0959
15367TIP3    H267517   1.658   5.542  11.930 -0.7024 -0.4810 -0.1576
15368TIP3   OH267518   4.775   1.121   4.842 -0.1699  0.1666  0.2952
15368TIP3    H167519   4.754   1.087   4.929 -0.1305 -1.0108 -0.1349
15368TIP3    H267520   4.707   1.084   4.785 -0.3213  1.1004 -0.1328
15369TIP3   OH267521   5.737   6.049  13.076  0.3492  0.4686 -0.5106
15369TIP3    H167522   5.758   5.958  13.095 -1.8472  0.7394  3.6490
15369TIP3    H267523   5.823   6.092  13.072  1.2920 -1.3078 -0.0212
15370TIP3   OH267524   3.621   0.648  11.212 -0.2312  0.0864  0.2805
15370TIP3    H167525   3.686   0.606  11.269  0.0542 -0.2122 -0.2624
15370TIP3    H267526   3.540   0.645  11.263 -0.1683 -0.9487  0.3345
15371TIP3   OH267527   0.901   6.704   1.532 -0.7916  0.2648  0.6929
15371TIP3    H167528   0.995   6.710   1.545 -0.5302 -0.9324 -0.4721
15371TIP3    H267529   0.882   6.767   1.463 -0.3560 -1.6299 -1.1919
15372TIP3   OH267530   5.345   3.409   4.264 -0.4341 -0.4995 -0.0948
15372TIP3    H167531   5.325   3.333   4.211  0.7611  0.5061 -2.0468
15372TIP3    H267532   5.372   3.373   4.349 -3.8331 -2.0753  0.4353
15373TIP3   OH267533   3.671   5.878  12.158  0.0755 -0.4877 -0.0450
15373TIP3    H167534   3.596   5.824  12.179  0.0671 -1.0997 -1.5765
15373TIP3    H267535   3.739   5.817  12.130  1.0310  0.0825  0.9741
15374TIP3   OH267536   2.222   6.731   5.812  0.4765 -0.3881  0.0433
15374TIP3    H167537   2.227   6.768   5.900  0.9967  0.1758 -0.2256
15374TIP3    H267538   2.283   6.657   5.813 -1.3219 -1.9013  0.8933
15375TIP3   OH267539   5.869   3.576   1.830  0.3591  0.5438  0.3211
15375TIP3    H167540   5.822   3.494   1.815 -0.6436  1.4759 -1.8471
15375TIP3    H267541   5.951   3.567   1.781 -1.0978  1.9812 -2.4895
15376TIP3   OH267542   6.258   1.654  16.359 -0.0392  0.1864 -0.0602
15376TIP3    H167543   6.247   1.736  16.311 -1.0212 -0.7505 -1.5118
15376TIP3    H267544   6.173   1.610  16.350  0.3494 -0.8191  1.0326
15377TIP3   OH267545   6.647   2.708  14.311  0.0703 -0.4914 -0.0269
15377TIP3    H167546   6.582   2.697  14.381  1.1310 -2.3251  0.6999
15377TIP3    H267547   6.661   2.620  14.277 -0.0575  0.3105 -2.2599
15378TIP3   OH267548   4.457   5.548   1.221  0.2767  0.3334 -0.3507
15378TIP3    H167549   4.432   5.619   1.163  0.8679  1.1594  0.3904
15378TIP3    H267550   4.553   5.555   1.228  0.0591  1.3236  2.0676
15379TIP3   OH267551   1.993   1.894   0.941  0.1307 -0.2288  0.1124
15379TIP3    H167552   1.978   1.940   0.858 -0.9400 -1.2007 -0.2529
15379TIP3    H267553   1.933   1.937   1.002 -0.2755 -0.5973 -0.0261
15380TIP3   OH267554   0.086   1.272  16.112 -0.3586  0.3644  0.2193
15380TIP3    H167555   0.167   1.318  16.089  0.0542 -0.2369  0.4535
15380TIP3    H267556   0.070   1.214  16.038  0.4025 -0.8156  0.9733
15381TIP3   OH267557   2.015   3.341  16.579  0.2377 -0.0077 -0.3855
15381TIP3    H167558   1.921   3.349  16.595  0.6246  0.9230  1.4558
15381TIP3    H267559   2.049   3.430  16.591  1.7390 -0.8145  1.5561
15382TIP3   OH267560   1.475   4.581   1.668 -0.3045 -0.8235  0.6882
15382TIP3    H167561   1.530   4.594   1.591  0.0547  0.0177  1.0803
15382TIP3    H267562   1.449   4.489   1.664 -0.7642 -0.6350 -0.7496
15383TIP3   OH267563   4.552   1.098  15.058 -0.3038 -0.2785 -0.1689
15383TIP3    H167564   4.503   1.029  15.013 -1.9068  0.5819  0.2353
15383TIP3    H267565   4.492   1.172  15.061  1.5240  1.2873 -0.9531
15384TIP3   OH267566   0.908   5.723   3.494  0.2903  0.0174  0.0460
15384TIP3    H167567   0.987   5.754   3.538  1.5336 -0.0209 -2.1043
15384TIP3    H267568   0.862   5.802   3.467  0.4390  0.0397 -0.1471
15385TIP3   OH267569   1.493   1.481  16.545  0.1178 -0.2194  0.2181
15385TIP3    H167570   1.576   1.496  16.589  0.1886 -1.6918  0.6202
15385TIP3    H267571   1.517   1.455  16.456  0.0663 -0.1778  0.1911
15386TIP3   OH267572   1.605   4.936   1.441 -0.1676 -0.0186 -0.2609
15386TIP3    H167573   1.541   4.944   1.370 -0.2431 -0.3765 -0.2362
15386TIP3    H267574   1.680   4.988   1.413 -0.0548 -0.4557 -0.7607
15387TIP3   OH267575   1.845   5.590   6.258  0.2718 -0.1322  0.0896
15387TIP3    H167576   1.783   5.658   6.283  1.5038  0.9355  0.3431
15387TIP3    H267577   1.912   5.637   6.207  0.0434 -1.5330 -1.5388
15388TIP3   OH267578   2.549   3.722   3.902  0.1651  0.3330  0.0735
15388TIP3    H167579   2.600   3.703   3.823 -0.1410 -0.1634 -0.0014
15388TIP3    H267580   2.616   3.742   3.968  0.4284  0.5870 -0.2640
15389TIP3   OH267581   1.995   5.547  11.797  0.5160  0.1800 -0.1471
15389TIP3    H167582   1.940   5.625  11.783 -0.3836 -0.4657 -0.2780
15389TIP3    H267583   1.932   5.476  11.807  1.2775 -0.2223  1.9511
15390TIP3   OH267584   2.653   5.994  15.269  0.4781  0.0627  0.0717
15390TIP3    H167585   2.619   5.906  15.255 -0.2010  0.1695  0.9559
15390TIP3    H267586   2.748   5.984  15.267  0.4183 -0.2639 -2.3105
15391TIP3   OH267587   2.567   0.903   0.648 -0.6220  0.5104 -0.4301
15391TIP3    H167588   2.603   0.905   0.559  0.0623 -0.2249 -0.1776
15391TIP3    H267589   2.555   0.810   0.667 -1.8047  0.7043 -0.1588
15392TIP3   OH267590   5.903   5.296  14.167  0.0032 -0.3858  0.4275
15392TIP3    H167591   5.983   5.281  14.219  1.7830 -0.3094 -2.2017
15392TIP3    H267592   5.845   5.345  14.226  1.3957 -1.5292  2.8131
15393TIP3   OH267593   3.407   2.680   3.731 -0.3354  0.4596  0.3986
15393TIP3    H167594   3.443   2.624   3.663  0.4272  2.8271 -1.2304
15393TIP3    H267595   3.347   2.739   3.684  0.0374  1.9821  1.7759
15394TIP3   OH267596   0.845   3.465   5.853 -0.1603 -0.2322  0.1152
15394TIP3    H167597   0.840   3.440   5.761 -2.0143  2.2959 -0.5148
15394TIP3    H267598   0.917   3.413   5.888 -1.0220 -3.0758 -2.1560
15395TIP3   OH267599   2.735   4.432  15.767  0.4389  0.1959 -0.2107
15395TIP3    H167600   2.651   4.461  15.803 -0.0819 -1.0248 -0.4167
15395TIP3    H267601   2.774   4.511  15.730 -0.7783  0.7089 -0.4081
15396TIP3   OH267602   0.272   6.182  11.049 -0.0860 -0.1643  0.0063
15396TIP3    H167603   0.194   6.177  11.105  0.5890  1.5768  1.1356
15396TIP3    H267604   0.246   6.138  10.968 -2.2492  0.3960  0.3646
15397TIP3   OH267605   5.729   1.729   4.623  0.2465  0.4130  0.6777
15397TIP3    H167606   5.814   1.730   4.579 -0.0188 -0.7027  0.1167
15397TIP3    H267607   5.718   1.638   4.651 -0.7064  0.5803  0.8545
15398TIP3   OH267608   3.133   3.833   2.318 -0.5833 -0.4815  0.0839
15398TIP3    H167609   3.200   3.889   2.357 -0.3810 -0.1530 -0.7224
15398TIP3    H267610   3.163   3.818   2.229 -1.4133 -0.6150 -0.1788
15399TIP3   OH267611   5.263   1.220  14.439 -0.4652  0.0508 -0.4601
15399TIP3    H167612   5.192   1.158  14.424  0.8926 -1.1843 -1.8793
15399TIP3    H267613   5.291   1.202  14.529 -0.2399 -1.2303 -0.7781
15400TIP3   OH267614   3.043   6.650  11.241 -0.1279  0.0574 -0.3260
15400TIP3    H167615   3.136   6.663  11.261  0.4498 -1.8749 -1.6580
15400TIP3    H267616   3.015   6.580  11.300 -0.1602 -0.9056 -1.4710
15401TIP3   OH267617   3.374   5.084   5.792 -0.2238  0.1046  0.2159
15401TIP3    H167618   3.437   5.110   5.725 -0.2098  0.0972  0.2255
15401TIP3    H267619   3.293   5.066   5.744 -0.6204  1.4645  0.3602
15402TIP3   OH267620   3.162   0.204  13.211  0.3894  0.4307 -0.3585
15402TIP3    H167621   3.082   0.232  13.167 -0.4801 -0.4322  0.6397
15402TIP3    H267622   3.229   0.267  13.183 -0.4927  0.7989 -1.6756
15403TIP3   OH267623   5.273   2.497  16.880  0.0500 -0.4022  0.1874
15403TIP3    H167624   5.357   2.514  16.923 -0.1568 -1.0561  0.8763
15403TIP3    H267625   5.271   2.557  16.806  1.5583 -1.0732 -0.4182
15404TIP3   OH267626   4.481   3.100  17.169  0.2495  0.7887  0.0681
15404TIP3    H167627   4.497   3.151  17.249  0.3986 -0.5252  0.8909
15404TIP3    H267628   4.449   3.015  17.200 -0.1961  0.4401 -1.2917
15405TIP3   OH267629   1.832   5.788   1.044 -0.0662 -0.3647 -0.0851
15405TIP3    H167630   1.804   5.830   1.125 -0.3545 -1.1413  0.2292
15405TIP3    H267631   1.916   5.748   1.066 -0.7268 -1.6455  0.2169
15406TIP3   OH267632   3.733   5.863   4.476 -0.1464  0.1532  0.4066
15406TIP3    H167633   3.706   5.940   4.526  1.2029 -0.4055  2.0228
15406TIP3    H267634   3.768   5.899   4.394 -1.4408  1.1344  0.2706
15407TIP3   OH267635   6.276   6.280   5.034 -0.4597 -0.2208  0.2224
15407TIP3    H167636   6.337   6.330   4.980 -1.8701  0.0793 -1.1262
15407TIP3    H267637   6.262   6.334   5.112  2.6007 -1.2454  1.5627
15408TIP3   OH267638   4.563   2.645   2.620 -0.3939  0.4542 -0.2348
15408TIP3    H167639   4.476   2.672   2.651 -1.1185 -2.2274  0.1814
15408TIP3    H267640   4.554   2.642   2.524 -1.1119 -0.9315 -0.1319
15409TIP3   OH267641   0.136   5.245  14.086 -0.4882  0.4072 -0.1047
15409TIP3    H167642   0.074   5.305  14.045 -0.2199 -0.4091 -1.7339
15409TIP3    H267643   0.147   5.174  14.022 -1.2364 -1.6652  1.9898
15410TIP3   OH267644   3.796   3.982  16.023  0.0049  0.0235  0.5389
15410TIP3    H167645   3.838   3.900  15.996  0.3937  0.3983 -0.0007
15410TIP3    H267646   3.868   4.040  16.046 -0.3229 -0.2686  2.3235
15411TIP3   OH267647   0.115   1.663   6.268 -0.3268  0.2013  0.9706
15411TIP3    H167648   0.165   1.706   6.337  1.0772 -0.8780  0.6445
15411TIP3    H267649   0.177   1.650   6.197 -2.4760  3.9368 -1.7224
15412TIP3   OH267650   0.419   5.996   2.556  0.5328  0.0660 -0.4419
15412TIP3    H167651   0.401   5.939   2.482 -0.0975  1.2457 -1.2172
15412TIP3    H267652   0.500   6.041   2.533  0.4834  0.2313 -0.2962
15413TIP3   OH267653   3.924   1.782   0.743  0.6837  0.1139 -0.3869
15413TIP3    H167654   4.015   1.808   0.728  0.9013  1.8841  3.1723
15413TIP3    H267655   3.873   1.859   0.716  0.6367  0.8287  1.6094
15414TIP3   OH267656   6.131   6.121  10.532 -0.3840 -0.1168 -0.2476
15414TIP3    H167657   6.177   6.205  10.521 -1.4284  0.5206  0.2084
15414TIP3    H267658   6.082   6.109  10.451 -1.4370  0.4691  0.2899
15415TIP3   OH267659   0.083   4.787   2.243  0.1980  0.6515  0.4738
15415TIP3    H167660   0.172   4.812   2.267  0.6115 -1.2829  1.1155
15415TIP3    H267661   0.051   4.738   2.319 -0.8267 -0.0184 -0.3704
15416TIP3   OH267662   1.418   4.812  15.275 -0.4119  0.7736  0.2120
15416TIP3    H167663   1.433   4.822  15.181  1.3170 -1.8600  0.1637
15416TIP3    H267664   1.342   4.867  15.293 -1.6550  0.2081 -2.9850
15417TIP3   OH267665   3.198   4.326  16.265  0.3283  0.0504  0.6048
15417TIP3    H167666   3.136   4.304  16.196  1.9819 -2.4835 -0.1551
15417TIP3    H267667   3.146   4.371  16.332 -2.2937 -2.0145 -0.0046
15418TIP3   OH267668   2.537   5.776  17.188  0.5071 -0.0733 -0.1693
15418TIP3    H167669   2.451   5.777  17.147  1.0998  1.3095 -1.4036
15418TIP3    H267670   2.548   5.685  17.217 -1.1233 -0.3919 -0.4837
15419TIP3   OH267671   4.516   1.332  17.016  0.0991 -0.2532 -0.5011
15419TIP3    H167672   4.530   1.380  16.935 -1.2577  0.2724 -0.4363
15419TIP3    H267673   4.550   1.390  17.084 -0.6254  0.2081 -0.5178
15420TIP3   OH267674   3.816   1.550  10.703 -0.1348  0.0213  0.0882
15420TIP3    H167675   3.778   1.469  10.736 -0.2614  0.5774  1.3188
15420TIP3    H267676   3.901   1.524  10.667 -0.0134 -0.5986  0.8188
15421TIP3   OH267677   2.328   6.623  13.018  0.6064  0.4239 -0.4879
15421TIP3    H167678   2.393   6.587  13.077  0.3279  0.9447  0.1411
15421TIP3    H267679   2.304   6.550  12.961  0.8204 -0.0989  0.0877
15422TIP3   OH267680   2.817   3.151  13.265  0.3146  0.1151 -0.3634
15422TIP3    H167681   2.810   3.057  13.250  1.4683 -0.3483  1.8853
15422TIP3    H267682   2.881   3.181  13.199 -1.2419 -0.3653 -2.1401
15423TIP3   OH267683   1.218   6.186   0.876  0.2341 -0.1023  0.2661
15423TIP3    H167684   1.223   6.147   0.963 -0.5181 -0.1116  0.3064
15423TIP3    H267685   1.307   6.180   0.842  0.3403 -0.9405  0.6768
15424TIP3   OH267686   3.341   4.514   2.271  0.1435  0.1365  0.1662
15424TIP3    H167687   3.374   4.425   2.265  1.9723  0.8248 -0.2775
15424TIP3    H267688   3.413   4.569   2.241 -0.6153  1.8330  1.3412
15425TIP3   OH267689   2.477   6.331  16.749  0.3737  0.1922  0.2818
15425TIP3    H167690   2.414   6.275  16.703  1.1214  0.1867 -0.7659
15425TIP3    H267691   2.495   6.284  16.830  1.2718 -1.3177 -0.7488
15426TIP3   OH267692   3.217   4.674  11.526  0.3397  0.1417 -0.0682
15426TIP3    H167693   3.247   4.643  11.441  0.6552 -0.5942  0.2990
15426TIP3    H267694   3.293   4.663  11.584 -0.3470 -0.9332  0.6712
15427TIP3   OH267695   3.197   4.385  11.132  0.2143  0.1527  0.6985
15427TIP3    H167696   3.251   4.444  11.185 -1.2156  0.7836  1.4850
15427TIP3    H267697   3.235   4.391  11.044  1.5790  0.3763  1.2852
15428TIP3   OH267698   6.322   2.452   4.482  0.4550 -0.0836 -0.8143
15428TIP3    H167699   6.241   2.431   4.437  0.7453  0.0513 -1.3962
15428TIP3    H267700   6.368   2.511   4.423  1.5549 -1.1563 -1.0414
15429TIP3   OH267701   5.001   1.492   0.322  0.2630  0.2873  0.1830
15429TIP3    H167702   5.083   1.512   0.369  1.3701  2.7657 -2.6281
15429TIP3    H267703   5.017   1.407   0.281  1.1501  0.4019  0.2836
15430TIP3   OH267704   1.075   4.980  14.096 -0.0633 -0.1727  0.3311
15430TIP3    H167705   1.066   5.014  14.185  1.6141 -0.5546  0.6505
15430TIP3    H267706   1.153   4.925  14.099 -1.4330 -2.2682 -0.7449
15431TIP3   OH267707   4.561   1.014   4.220  0.3606 -0.0586  0.4397
15431TIP3    H167708   4.554   0.940   4.279  2.7329 -0.7333 -0.0536
15431TIP3    H267709   4.554   0.976   4.132  1.4522  0.2954  0.1878
15432TIP3   OH267710   0.676   1.143  14.405 -0.6208 -0.1749 -0.1683
15432TIP3    H167711   0.721   1.157  14.488  2.0831 -0.7965 -1.4806
15432TIP3    H267712   0.644   1.230  14.380 -1.2736  0.0446  1.4043
15433TIP3   OH267713   2.223   3.426  11.694  0.2346  0.5100  0.4395
15433TIP3    H167714   2.176   3.433  11.611 -0.1240 -0.6828  0.5258
15433TIP3    H267715   2.260   3.513  11.709  1.3619  0.4021 -1.5855
15434TIP3   OH267716   3.787   5.451   3.345  0.5203  0.3183 -0.2507
15434TIP3    H167717   3.778   5.363   3.309  0.8393 -0.2695  1.0749
15434TIP3    H267718   3.813   5.505   3.270 -0.1009 -0.6231 -1.1582
15435TIP3   OH267719   2.998   0.029   4.075 -0.6175 -0.7947 -0.0125
15435TIP3    H167720   2.918   0.063   4.114 -0.2613 -0.1710  0.1846
15435TIP3    H267721   2.967  -0.029   4.005 -1.2440  0.4590 -0.8035
15436TIP3   OH267722   0.256   1.234   0.635 -0.4371 -0.4825  0.1050
15436TIP3    H167723   0.297   1.306   0.683 -1.5451 -1.6248  2.8466
15436TIP3    H267724   0.182   1.275   0.590  0.4965  0.5644 -0.5009
15437TIP3   OH267725   4.071   0.065   5.751  0.1795 -0.2682  1.1079
15437TIP3    H167726   4.040   0.085   5.839 -0.3587  0.8032  0.6754
15437TIP3    H267727   4.133   0.135   5.730 -0.4266  0.0281  0.2550
15438TIP3   OH267728   6.628   0.949   3.767 -0.1361 -0.1134  0.1165
15438TIP3    H167729   6.630   1.044   3.779  2.3175 -0.1649  0.3273
15438TIP3    H267730   6.597   0.936   3.678 -1.5222  0.8399  0.4454
15439TIP3   OH267731   4.734   6.227   3.497  0.1934 -0.1818  0.5036
15439TIP3    H167732   4.808   6.287   3.502 -0.5370  0.5949  2.2594
15439TIP3    H267733   4.688   6.252   3.417  0.9192  0.3849  0.2606
15440TIP3   OH267734   6.216   2.268   4.670  0.3510 -0.9623 -0.4915
15440TIP3    H167735   6.257   2.353   4.652 -1.6124  0.6292  2.2610
15440TIP3    H267736   6.289   2.206   4.669  2.2624  1.1980  0.2965
15441TIP3   OH267737   6.409   1.180  16.463 -0.0112  0.0373 -0.3259
15441TIP3    H167738   6.344   1.219  16.521 -1.5136  1.3249 -2.7942
15441TIP3    H267739   6.489   1.176  16.516 -1.7611 -0.5325  2.3892
15442TIP3   OH267740   2.317   0.946  17.004  0.4423 -0.2593  0.0827
15442TIP3    H167741   2.410   0.926  16.991  1.0898  0.7497  2.9206
15442TIP3    H267742   2.314   1.041  17.018 -1.1228 -0.1774 -0.6339
15443TIP3   OH267743   4.118   0.737   1.257  0.1706  0.0631 -0.5323
15443TIP3    H167744   4.028   0.765   1.272 -0.3243 -1.6586 -0.2961
15443TIP3    H267745   4.111   0.662   1.198  1.5696  1.0519 -2.0214
15444TIP3   OH267746   6.572   6.535  14.899 -0.1619  0.4902 -0.0310
15444TIP3    H167747   6.565   6.446  14.863 -3.4934  0.4483  0.5445
15444TIP3    H267748   6.649   6.572  14.857 -0.0709 -1.8831 -2.0697
15445TIP3   OH267749   4.724   6.545   3.928 -0.2447  0.2919  0.4644
15445TIP3    H167750   4.678   6.464   3.950  1.9210 -1.3087 -0.6292
15445TIP3    H267751   4.804   6.541   3.981  0.4174  1.1425 -0.4690
15446TIP3   OH267752   3.316   0.256  12.542 -0.0349  0.1755 -0.0913
15446TIP3    H167753   3.344   0.179  12.591 -0.9473 -0.3996 -0.4705
15446TIP3    H267754   3.394   0.284  12.494  0.3920 -0.2861  0.3231
15447TIP3   OH267755   2.237   3.161   3.083 -0.2992 -0.0839  0.2969
15447TIP3    H167756   2.305   3.209   3.130  0.4550  0.7861 -1.6292
15447TIP3    H267757   2.155   3.204   3.109  0.1781  0.8603  0.2486
15448TIP3   OH267758   4.488   5.100  11.194  0.4066  0.2144  0.4368
15448TIP3    H167759   4.528   5.072  11.112 -1.2042  1.3953 -0.7883
15448TIP3    H267760   4.425   5.167  11.168 -0.7843 -0.0513  2.5422
15449TIP3   OH267761   3.675   0.942   2.472  0.2595 -0.1171  0.3600
15449TIP3    H167762   3.603   0.914   2.529 -0.9519 -0.3058 -1.2248
15449TIP3    H267763   3.636   1.009   2.416  1.7584  0.9669  0.5765
15450TIP3   OH267764   3.083   4.064   0.538  0.1205  0.1733 -0.0328
15450TIP3    H167765   3.056   4.154   0.524  1.8714  0.5984 -0.8856
15450TIP3    H267766   3.044   4.015   0.466  1.9489  0.8659 -1.5444
15451TIP3   OH267767   4.083   3.202  13.835 -0.3610  0.2844  0.6394
15451TIP3    H167768   4.144   3.128  13.832  0.6772  1.1670 -0.7998
15451TIP3    H267769   4.099   3.243  13.920  0.4838  0.0135  0.6206
15452TIP3   OH267770   5.497   4.811  11.260 -0.0817 -0.0170 -0.1331
15452TIP3    H167771   5.449   4.891  11.281 -0.9769 -0.7051  0.5187
15452TIP3    H267772   5.475   4.792  11.169 -0.7167 -0.1020  0.0381
15453TIP3   OH267773   0.259   0.911   4.184  0.2160 -0.0403 -0.2526
15453TIP3    H167774   0.171   0.936   4.155  0.8442  2.2813 -0.3161
15453TIP3    H267775   0.245   0.859   4.262 -1.2280  0.3714 -0.2224
15454TIP3   OH267776   2.133   4.939   3.336 -0.3105  0.1554 -0.5490
15454TIP3    H167777   2.087   4.965   3.256  0.1949  2.6781 -0.0746
15454TIP3    H267778   2.213   4.992   3.336  1.3200 -2.2022 -0.0092
15455TIP3   OH267779   5.944   0.576   3.971  0.5236 -0.3393 -0.1207
15455TIP3    H167780   5.848   0.573   3.968  0.5575 -1.4604 -0.3995
15455TIP3    H267781   5.971   0.587   3.880  0.5881  3.9619  0.3097
15456TIP3   OH267782   6.738   6.592   0.381  0.2497 -0.5230  0.4991
15456TIP3    H167783   6.792   6.667   0.356 -1.2617  0.1262 -0.9200
15456TIP3    H267784   6.800   6.522   0.397  1.5537  0.3766 -0.4969
15457TIP3   OH267785   3.286   4.712  14.877 -0.0342 -0.0585  0.4334
15457TIP3    H167786   3.339   4.770  14.932  0.2489  1.5291 -1.4583
15457TIP3    H267787   3.349   4.661  14.827 -0.2916 -1.3992  1.4510
15458TIP3   OH267788   3.438   5.808   0.730 -0.5539 -0.2770  0.9587
15458TIP3    H167789   3.364   5.855   0.769 -0.8207 -0.2131  0.3916
15458TIP3    H267790   3.451   5.851   0.645  0.7730  0.3590  1.4751
15459TIP3   OH267791   5.934   1.388   0.726  0.0034 -0.5747 -0.4198
15459TIP3    H167792   5.939   1.355   0.816  0.1260 -0.2052 -0.2890
15459TIP3    H267793   5.840   1.387   0.705  0.0967 -2.1119 -0.8388
15460TIP3   OH267794   3.527   0.255   2.763  0.1481  0.2330 -0.5689
15460TIP3    H167795   3.621   0.264   2.747 -0.0257 -0.5081 -2.1424
15460TIP3    H267796   3.513   0.161   2.774 -0.5490  0.2459 -1.3101
15461TIP3   OH267797   6.713   0.401  17.090 -0.0618  0.5175  0.1442
15461TIP3    H167798   6.738   0.399  16.998  3.1709 -0.4258  0.9905
15461TIP3    H267799   6.714   0.309  17.117  2.5004  1.0405  1.9737
15462TIP3   OH267800   3.088   1.908   6.543  0.0376  0.6723 -0.1826
15462TIP3    H167801   3.146   1.914   6.619 -0.2563  1.5591 -0.0134
15462TIP3    H267802   3.069   1.815   6.535 -0.7876  0.6651  1.5098
15463TIP3   OH267803   3.755   1.444   5.909 -0.6453  0.3643 -0.2012
15463TIP3    H167804   3.671   1.490   5.916 -0.5926  0.1469  2.0217
15463TIP3    H267805   3.734   1.353   5.927  0.1755  0.4160  1.0635
15464TIP3   OH267806   2.908   2.891  12.363 -0.0430  0.4015  0.1058
15464TIP3    H167807   2.836   2.954  12.365 -3.0002 -2.7536 -1.5826
15464TIP3    H267808   2.926   2.872  12.455 -0.7269  1.9025  0.5636
15465TIP3   OH267809   1.463   4.138   0.286 -0.1056  0.6503 -0.1114
15465TIP3    H167810   1.533   4.181   0.336  2.1122 -0.4006 -2.2464
15465TIP3    H267811   1.432   4.206   0.227  1.3399  0.2217 -1.3922
15466TIP3   OH267812   6.443   3.537  13.045  0.0453  0.2631 -0.0985
15466TIP3    H167813   6.378   3.489  12.994  2.4685 -0.4568 -2.6622
15466TIP3    H267814   6.409   3.626  13.053 -2.4580 -0.7511  0.9473
15467TIP3   OH267815   5.702   2.597  15.681 -0.2181 -0.1942  0.0587
15467TIP3    H167816   5.665   2.612  15.594  3.1624  1.3509 -1.2108
15467TIP3    H267817   5.677   2.675  15.731  1.5399  1.0523 -0.9218
15468TIP3   OH267818   3.790   2.624  15.460 -0.2675 -0.6144 -0.0681
15468TIP3    H167819   3.833   2.704  15.430 -0.5652 -0.6099 -0.4800
15468TIP3    H267820   3.740   2.652  15.537 -0.8443 -0.2827 -0.5636
15469TIP3   OH267821   6.078   3.414   4.631  0.0536  0.2221  0.0747
15469TIP3    H167822   6.035   3.339   4.672 -0.4875  0.3671 -0.2173
15469TIP3    H267823   6.023   3.435   4.556 -0.5504  1.7474  0.9290
15470TIP3   OH267824   1.139   0.860   4.730  0.2276  0.8793 -0.2534
15470TIP3    H167825   1.130   0.928   4.798 -0.9867  1.6541 -1.1669
15470TIP3    H267826   1.067   0.800   4.748  0.8021  0.2779  0.0419
15471TIP3   OH267827   0.877   3.887   4.072  0.4946 -0.1556 -0.1937
15471TIP3    H167828   0.792   3.929   4.062  1.3978  1.3804 -1.6978
15471TIP3    H267829   0.866   3.800   4.035 -0.9507 -0.6739  1.4208
15472TIP3   OH267830   2.338   4.473   6.164  0.0446  1.1020  0.4317
15472TIP3    H167831   2.431   4.468   6.187  0.0700 -2.1078 -0.1807
15472TIP3    H267832   2.298   4.520   6.237  1.9235  1.3335  1.3486
15473TIP3   OH267833   0.425   3.872  15.242 -0.0576 -0.0942 -0.3437
15473TIP3    H167834   0.462   3.951  15.202  0.2817  0.4479  0.9725
15473TIP3    H267835   0.502   3.823  15.272 -0.2805 -0.7757 -0.9001
15474TIP3   OH267836   1.893   4.060   6.050  0.4493  0.0829  0.0373
15474TIP3    H167837   1.829   4.050   6.120  0.9108  1.0756  0.6078
15474TIP3    H267838   1.850   4.116   5.986 -0.0098 -0.9054 -0.5293
15475TIP3   OH267839   2.071   4.252   5.143 -0.0858 -0.0403  0.3730
15475TIP3    H167840   2.107   4.168   5.115  0.0264  0.3219 -0.5924
15475TIP3    H267841   1.977   4.236   5.155 -0.2902  0.0318 -1.1334
15476TIP3   OH267842   6.000   6.538  14.867  0.4596 -0.9544 -0.1377
15476TIP3    H167843   6.010   6.532  14.962 -0.0257  0.2366  0.0017
15476TIP3    H267844   5.983   6.631  14.851 -3.9115 -1.8302 -0.9650
15477TIP3   OH267845   5.376   6.361  11.392  0.2209  0.0782 -0.1693
15477TIP3    H167846   5.364   6.280  11.444 -2.7225 -0.4647 -1.5994
15477TIP3    H267847   5.333   6.429  11.444  2.0317  0.6081  0.6649
15478TIP3   OH267848   4.388   5.945   0.912 -0.5895  0.3820 -0.0126
15478TIP3    H167849   4.439   6.013   0.868  0.4168 -0.1556  0.3052
15478TIP3    H267850   4.394   5.870   0.854 -0.9530  0.2944  0.0644
15479TIP3   OH267851   4.425   4.162  16.819 -0.8110  0.4796  0.5697
15479TIP3    H167852   4.515   4.186  16.841 -0.8685  2.5452 -1.2588
15479TIP3    H267853   4.379   4.159  16.902  0.8248 -0.1532  1.4798
15480TIP3   OH267854   2.402   0.833  15.088 -0.7283 -0.3910 -0.4076
15480TIP3    H167855   2.485   0.879  15.076 -0.7259  0.2350  1.7403
15480TIP3    H267856   2.417   0.777  15.164 -2.5211  0.4038  0.5708
15481TIP3   OH267857   3.129   5.050   4.314 -0.1909  0.2302 -0.2135
15481TIP3    H167858   3.179   5.000   4.250  1.2599  0.9101  0.3519
15481TIP3    H267859   3.098   4.985   4.377  0.2561 -0.1700 -0.4063
15482TIP3   OH267860   6.127   3.083  13.973 -0.0816  0.0890  0.4244
15482TIP3    H167861   6.043   3.119  13.947 -0.7753 -1.7882 -0.0523
15482TIP3    H267862   6.146   3.123  14.058 -0.6389  1.7814 -0.2486
15483TIP3   OH267863   5.569   5.614  16.615 -0.0935 -0.1098  0.3106
15483TIP3    H167864   5.658   5.637  16.640 -0.7862 -0.3151  3.1236
15483TIP3    H267865   5.520   5.696  16.623 -0.6201 -0.4931  1.1338
15484TIP3   OH267866   1.062   3.064   1.405  0.3560  0.4271 -0.3480
15484TIP3    H167867   1.013   3.046   1.486  0.7770  1.0190  0.0438
15484TIP3    H267868   1.017   3.139   1.367  1.9944  2.1061  0.9178
15485TIP3   OH267869   3.898   5.024   3.599  0.3914 -0.2375  0.0621
15485TIP3    H167870   3.954   4.965   3.649 -0.6309  0.6320  2.2968
15485TIP3    H267871   3.903   5.107   3.646 -0.9342  0.4881 -1.0481
15486TIP3   OH267872   5.004   6.267  13.600  0.2169 -0.6051  0.5653
15486TIP3    H167873   4.970   6.333  13.661  1.9235 -0.2883  1.1975
15486TIP3    H267874   4.960   6.186  13.626 -2.4937  0.3984 -0.7295
15487TIP3   OH267875   1.948   4.547  14.440 -0.1328  0.3633  0.9926
15487TIP3    H167876   2.008   4.546  14.514  0.7076 -0.9816  0.3135
15487TIP3    H267877   1.862   4.562  14.479  0.4293  0.6115  2.1401
15488TIP3   OH267878   0.538   0.566   1.129 -0.5210 -0.1595 -0.4500
15488TIP3    H167879   0.489   0.618   1.192 -2.0743 -1.3310 -0.6705
15488TIP3    H267880   0.576   0.495   1.181 -0.8390 -0.4755 -0.6554
15489TIP3   OH267881   2.642   0.268  10.792  0.2611 -0.0177 -0.5592
15489TIP3    H167882   2.553   0.275  10.758 -0.2696 -1.2603  0.5230
15489TIP3    H267883   2.631   0.243  10.884  1.7264  0.0511 -0.3435
15490TIP3   OH267884   4.388   2.091  13.311 -0.0515 -0.4267  0.4085
15490TIP3    H167885   4.408   2.152  13.240  1.4958 -1.0168  0.3267
15490TIP3    H267886   4.356   2.147  13.382  4.6046  0.9513  1.6035
15491TIP3   OH267887   3.673   5.464  17.056 -0.8280  0.0984  0.1286
15491TIP3    H167888   3.699   5.379  17.090 -0.8487 -0.0789 -0.2871
15491TIP3    H267889   3.734   5.526  17.096 -0.4249 -0.1859 -0.0398
15492TIP3   OH267890   1.444   2.458   5.941 -0.2008 -0.3607  0.2246
15492TIP3    H167891   1.463   2.372   5.904 -0.9871 -0.6889  0.5719
15492TIP3    H267892   1.387   2.441   6.016 -0.6218  0.4852  0.1108
15493TIP3   OH267893   3.057   2.177  17.168  0.3692  0.4501  0.0145
15493TIP3    H167894   2.977   2.218  17.201  0.7114  0.9047  0.2790
15493TIP3    H267895   3.069   2.216  17.081  0.6922  0.9159  0.2638
15494TIP3   OH267896   3.403   6.539  11.833 -0.5629  0.3340  0.0247
15494TIP3    H167897   3.433   6.588  11.757  0.8425 -1.3938 -0.5784
15494TIP3    H267898   3.461   6.462  11.836 -2.8420 -1.4128  0.7781
15495TIP3   OH267899   5.573   2.985  11.331 -0.2912 -0.2114  0.9774
15495TIP3    H167900   5.659   2.951  11.305  1.0118  1.7043  2.6155
15495TIP3    H267901   5.550   3.048  11.262 -1.2798 -2.0806 -0.4384
15496TIP3   OH267902   2.416   3.419   0.090 -0.3451 -0.7612  0.0388
15496TIP3    H167903   2.404   3.381   0.177  0.1901  0.8059  0.8241
15496TIP3    H267904   2.505   3.455   0.092 -0.3167 -0.7335 -1.1716
15497TIP3   OH267905   4.742   5.815  15.160  0.1403  0.0820 -0.5072
15497TIP3    H167906   4.652   5.818  15.194  0.4494 -3.3516  0.8353
15497TIP3    H267907   4.731   5.810  15.065 -1.1631 -1.4462 -0.3040
15498TIP3   OH267908   3.817   6.736  15.495 -0.0668  0.0490  0.3458
15498TIP3    H167909   3.815   6.648  15.459 -0.4274  0.2590 -0.1561
15498TIP3    H267910   3.742   6.739  15.555  0.3254 -0.1889  0.8497
15499TIP3   OH267911   2.778   4.638  11.352  0.3398  0.2105 -0.0718
15499TIP3    H167912   2.803   4.722  11.391 -1.9056  0.8165  0.1161
15499TIP3    H267913   2.712   4.661  11.286  0.4651 -1.3039 -0.7329
15500TIP3   OH267914   4.929   1.938   2.555 -0.0128  0.0804 -0.0457
15500TIP3    H167915   4.931   2.022   2.508 -1.2151  0.9234  1.3481
15500TIP3    H267916   4.964   1.959   2.641  2.2728 -1.4761 -0.5481
15501TIP3   OH267917   1.544   2.944  13.988 -0.1097  0.1251  0.2148
15501TIP3    H167918   1.636   2.921  13.980  0.4334  1.8217  1.5256
15501TIP3    H267919   1.535   2.980  14.076 -1.8871  0.6419 -0.1577
15502TIP3   OH267920   5.856   2.788  12.809  0.4044 -0.2051 -0.1756
15502TIP3    H167921   5.942   2.830  12.815  0.3617 -0.0653 -0.5008
15502TIP3    H267922   5.855   2.749  12.721  0.8211 -1.7331  0.4753
15503TIP3   OH267923   5.132   5.611  13.379 -0.3731  0.5558 -0.2100
15503TIP3    H167924   5.142   5.614  13.474  2.1248  1.4360 -0.4561
15503TIP3    H267925   5.042   5.580  13.365 -0.7361  0.2988  2.4138
15504TIP3   OH267926   5.621   6.296  15.051 -0.2979 -0.0262  0.3153
15504TIP3    H167927   5.573   6.375  15.024  0.7750  0.6502  0.3552
15504TIP3    H267928   5.569   6.224  15.015 -2.3849  0.5830  1.9514
15505TIP3   OH267929   5.253   2.963   3.762  0.2277 -0.2662  0.0990
15505TIP3    H167930   5.280   2.923   3.679  0.1747  0.6518 -0.3736
15505TIP3    H267931   5.170   3.006   3.742  0.6316  0.6715  0.4073
15506TIP3   OH267932   4.534   2.998  15.412  0.9179  0.1573 -0.3372
15506TIP3    H167933   4.485   3.036  15.339  0.1503 -0.4993 -0.1738
15506TIP3    H267934   4.545   3.071  15.473 -1.0989  0.0162  0.2624
15507TIP3   OH267935   6.696   2.972  15.220  0.2408  0.2008 -0.0594
15507TIP3    H167936   6.712   2.896  15.276  0.1226 -0.1118 -0.4495
15507TIP3    H267937   6.603   2.991  15.232  0.1365 -0.0880 -0.4324
15508TIP3   OH267938   0.709   1.558  15.618 -0.2681  0.5379  0.2200
15508TIP3    H167939   0.718   1.478  15.671  1.8736 -2.1848 -3.9600
15508TIP3    H267940   0.615   1.576  15.619 -0.7961 -1.9356  1.4326
15509TIP3   OH267941   3.737   2.310   0.251  0.2919 -0.0498  0.1268
15509TIP3    H167942   3.761   2.278   0.338 -1.0602  0.3135  0.6362
15509TIP3    H267943   3.815   2.357   0.222  1.0436 -0.8525  0.8057
15510TIP3   OH267944   5.860   4.982  13.594 -0.7451  0.5565 -0.5645
15510TIP3    H167945   5.916   4.994  13.670  0.6667 -2.0089 -1.1377
15510TIP3    H267946   5.775   4.957  13.630 -1.2810  3.4136  0.2707
15511TIP3   OH267947   2.914   4.749  16.195 -0.2393  0.0556  0.3065
15511TIP3    H167948   2.856   4.687  16.239 -0.1516  0.4229  0.9445
15511TIP3    H267949   2.913   4.827  16.251 -0.9858  0.9317 -0.8961
15512TIP3   OH267950   0.509   0.904   0.869 -0.2110 -0.6282  0.1750
15512TIP3    H167951   0.534   0.878   0.780  1.5644  0.3793  0.3373
15512TIP3    H267952   0.535   0.997   0.874 -1.3598 -0.3661  1.3626
15513TIP3   OH267953   1.748   5.460   1.110 -0.3485  0.0346  0.1337
15513TIP3    H167954   1.792   5.523   1.168 -0.4851 -0.3891  0.7104
15513TIP3    H267955   1.761   5.375   1.153  1.6987 -0.6608 -1.7415
15514TIP3   OH267956   5.288   4.400  12.208  0.1939 -0.7149  0.6076
15514TIP3    H167957   5.199   4.368  12.196 -0.0596 -0.0739  0.7555
15514TIP3    H267958   5.304   4.454  12.130  1.5606 -3.2733 -0.9717
15515TIP3   OH267959   0.326   3.502  15.632 -0.1735  0.3990  0.5491
15515TIP3    H167960   0.380   3.472  15.705 -0.2462  0.7611  0.7502
15515TIP3    H267961   0.381   3.489  15.554 -0.4990 -1.0391  0.5280
15516TIP3   OH267962   5.079   3.501   3.466  0.2301 -0.0602  0.2284
15516TIP3    H167963   5.159   3.554   3.474 -0.9656  1.7071  0.6169
15516TIP3    H267964   5.014   3.547   3.518 -1.5794 -0.4537 -1.6179
15517TIP3   OH267965   0.142   0.673   5.239  0.0277 -0.0336 -0.7018
15517TIP3    H167966   0.162   0.761   5.270  3.1384 -0.5836 -0.9802
15517TIP3    H267967   0.186   0.615   5.301  0.5929 -1.3049 -2.2595
15518TIP3   OH267968   0.842   2.363   0.613 -0.6588  0.5102  0.1325
15518TIP3    H167969   0.889   2.443   0.590 -0.7786  0.1506 -1.3837
15518TIP3    H267970   0.750   2.385   0.601 -0.6872  0.1110 -0.3811
15519TIP3   OH267971   2.793   2.937   0.751 -0.1705 -0.6938 -0.0361
15519TIP3    H167972   2.726   2.930   0.683 -1.8664  0.6309  1.4431
15519TIP3    H267973   2.745   2.921   0.833  1.2474  0.6416  1.0872
15520TIP3   OH267974   5.807   1.431   5.458  0.1249  0.8882  0.1375
15520TIP3    H167975   5.729   1.485   5.469 -0.3138 -0.2293  2.8614
15520TIP3    H267976   5.879   1.493   5.461 -0.6021  1.9075 -2.1810
15521TIP3   OH267977   3.779   2.629  16.658  0.0983 -0.0548  0.5489
15521TIP3    H167978   3.768   2.715  16.618  0.6441 -0.3766 -0.3253
15521TIP3    H267979   3.806   2.647  16.748 -2.1529  0.6906  1.0960
15522TIP3   OH267980   5.585   6.341  16.425  0.4478 -0.4571 -0.6357
15522TIP3    H167981   5.502   6.389  16.423  0.8055  0.1462 -1.4057
15522TIP3    H267982   5.637   6.387  16.491  0.6796  0.0370 -1.1578
15523TIP3   OH267983   3.747   1.613   1.440 -0.1427  0.1671 -0.4770
15523TIP3    H167984   3.680   1.681   1.433 -0.3688 -0.0015 -0.0087
15523TIP3    H267985   3.783   1.604   1.352  0.3628  1.3763 -0.3981
15524TIP3   OH267986   4.098   1.836  17.121 -1.0963 -0.2047  0.2501
15524TIP3    H167987   4.143   1.757  17.090 -0.0334  0.7475 -0.6403
15524TIP3    H267988   4.160   1.877  17.180 -2.7138 -1.4548  2.9049
15525TIP3   OH267989   5.306   3.535  11.773  0.4005 -0.2199  0.3763
15525TIP3    H167990   5.240   3.505  11.710  0.0433  0.8261  0.2421
15525TIP3    H267991   5.334   3.455  11.817 -0.6617 -0.7371  0.1520
15526TIP3   OH267992   2.546   1.592  14.823  0.2870  0.4671 -0.6099
15526TIP3    H167993   2.476   1.576  14.760  0.3534  1.0235 -0.8238
15526TIP3    H267994   2.614   1.636  14.772  1.6467 -1.8397 -0.8959
15527TIP3   OH267995   4.531   2.003  16.496  0.2192 -0.2492  0.7088
15527TIP3    H167996   4.616   2.048  16.500  0.1003  0.0545 -0.0470
15527TIP3    H267997   4.519   1.966  16.583  0.8478  0.2301  1.0012
15528TIP3   OH267998   3.644   2.221   5.045  0.2819 -0.5602  0.0948
15528TIP3    H167999   3.710   2.152   5.051  1.0737  0.2398  0.7333
15528TIP3    H268000   3.694   2.302   5.050 -0.7326  0.0616  0.3026
15529TIP3   OH268001   4.263   2.989   2.478  0.5023  0.5032  0.3044
15529TIP3    H168002   4.316   2.924   2.524  2.9189  1.9031 -0.4013
15529TIP3    H268003   4.253   2.954   2.389 -1.4874 -0.6960  0.9669
15530TIP3   OH268004   5.275   0.406  12.181 -0.4030 -0.5977 -0.3794
15530TIP3    H168005   5.367   0.421  12.203 -0.4732 -0.1622 -0.3863
15530TIP3    H268006   5.272   0.414  12.085 -0.2959 -1.4442 -0.4612
15531TIP3   OH268007   3.589   3.469   3.011  0.2246  0.0697  0.5103
15531TIP3    H168008   3.642   3.528   2.958 -0.2308  1.4295  1.5377
15531TIP3    H268009   3.507   3.516   3.026  0.4271 -0.1741  2.6019
15532TIP3   OH268010   4.152   2.210  16.979 -0.1435  0.3370  0.6151
15532TIP3    H168011   4.184   2.120  16.967  0.6766  0.7413 -0.2687
15532TIP3    H268012   4.069   2.199  17.026  0.9254 -0.7644  2.3198
15533TIP3   OH268013   4.429   4.407  15.347  0.0410 -0.3342  0.4680
15533TIP3    H168014   4.481   4.486  15.363 -0.1014  0.0558 -0.9833
15533TIP3    H268015   4.359   4.435  15.289 -0.3104 -1.4276  0.3511
15534TIP3   OH268016   4.013   0.474  15.288 -0.1212 -0.3080  0.3044
15534TIP3    H168017   3.993   0.387  15.324  0.8952 -0.7187 -0.1042
15534TIP3    H268018   3.968   0.535  15.346 -1.5205 -1.1372  0.1314
15535TIP3   OH268019   5.082   1.569  14.359  0.5411  0.5627  0.0662
15535TIP3    H168020   5.178   1.568  14.356  0.5171 -2.0047 -1.5449
15535TIP3    H268021   5.061   1.552  14.451  1.7017 -2.9635 -0.2090
15536TIP3   OH268022   4.009   2.287   4.181  0.1576  0.1866 -0.1830
15536TIP3    H168023   3.985   2.375   4.211 -2.2581  0.4105 -2.5566
15536TIP3    H268024   4.026   2.238   4.261 -0.0171  2.3843  1.2427
15537TIP3   OH268025   5.193   4.210  14.883 -0.0410  0.1590 -0.0724
15537TIP3    H168026   5.223   4.164  14.806  2.0360 -1.5915  1.7178
15537TIP3    H268027   5.253   4.284  14.893  1.2982 -1.0586  1.2372
15538TIP3   OH268028   0.595   1.091   6.151 -0.0931 -0.7273 -0.3359
15538TIP3    H168029   0.672   1.122   6.198  0.4302 -1.0162 -0.9985
15538TIP3    H268030   0.553   1.030   6.211 -0.6438  0.5693  0.6288
15539TIP3   OH268031   1.936   5.177  17.123 -0.3875 -0.0508  0.4791
15539TIP3    H168032   1.850   5.175  17.081 -0.5828 -0.5160  0.8977
15539TIP3    H268033   1.925   5.124  17.202 -0.3336  1.7050  1.6925
15540TIP3   OH268034   0.974   2.704  14.334 -0.4082 -0.3686 -0.1041
15540TIP3    H168035   1.052   2.754  14.312 -2.2033  3.3524  1.5010
15540TIP3    H268036   1.004   2.635  14.393  1.7904  0.3530 -0.3677
15541TIP3   OH268037   6.518   4.955   0.759  0.5298 -0.1646 -0.0937
15541TIP3    H168038   6.524   4.982   0.668  3.2555 -1.3405 -0.3060
15541TIP3    H268039   6.552   4.865   0.760  1.3735  0.1487  2.1946
15542TIP3   OH268040   5.243   0.407   4.657 -0.0271 -0.2503 -0.1058
15542TIP3    H168041   5.312   0.457   4.701  0.4940 -2.3418  1.5780
15542TIP3    H268042   5.174   0.471   4.640  1.4757  1.4573  0.0565
15543TIP3   OH268043   5.937   6.594  11.837 -0.4964 -0.1000  0.6094
15543TIP3    H168044   5.909   6.576  11.927  1.9641 -1.1679  1.2207
15543TIP3    H268045   6.004   6.527  11.820  1.3991  2.0903 -0.8376
15544TIP3   OH268046   0.055   0.414  16.838  0.3014  0.0651 -0.1804
15544TIP3    H168047   0.131   0.469  16.819  2.0221 -1.9779  0.6575
15544TIP3    H268048   0.092   0.331  16.866 -2.2629 -0.9626  0.2504
15545TIP3   OH268049   0.913   4.441  12.987  0.2809 -0.7757  0.5494
15545TIP3    H168050   0.984   4.381  12.963  0.6547 -1.8053  3.9146
15545TIP3    H268051   0.947   4.488  13.064 -1.3406  1.3150  0.0313
15546TIP3   OH268052   0.181   1.847  12.734 -1.0667 -0.1656 -0.1257
15546TIP3    H168053   0.274   1.841  12.709 -0.8665  2.2710 -0.1622
15546TIP3    H268054   0.133   1.834  12.652 -0.7013 -0.1999 -0.3363
15547TIP3   OH268055   3.872   4.375   3.520 -0.0980 -0.2455 -0.7646
15547TIP3    H168056   3.816   4.299   3.528 -1.8514  1.0649 -0.2660
15547TIP3    H268057   3.946   4.357   3.579 -1.3093 -0.8639  0.5866
15548TIP3   OH268058   3.592   4.606   2.738 -0.0405 -0.0254 -0.0808
15548TIP3    H168059   3.537   4.652   2.674 -0.1525 -0.3412 -0.2093
15548TIP3    H268060   3.549   4.622   2.822 -1.2214 -1.5935 -0.3576
15549TIP3   OH268061   6.259   1.074  13.528 -0.5304 -0.0492  0.0722
15549TIP3    H168062   6.258   1.035  13.441 -1.6279  1.7702 -0.7688
15549TIP3    H268063   6.185   1.134  13.528 -1.2383 -0.8442  2.6609
15550TIP3   OH268064   4.697   0.302   0.928  0.4920 -0.1633 -0.1480
15550TIP3    H168065   4.724   0.263   1.011 -1.5087 -1.6516 -0.1551
15550TIP3    H268066   4.757   0.265   0.864  0.0491 -1.4907  0.1886
15551TIP3   OH268067   2.830   5.978   5.581 -0.1900  0.2750  0.3968
15551TIP3    H168068   2.923   5.982   5.561 -0.7201  1.3997 -1.9065
15551TIP3    H268069   2.812   6.059   5.630 -0.2014  0.6356 -0.2034
15552TIP3   OH268070   4.081   2.263  12.388 -0.2511  0.1519  0.0967
15552TIP3    H168071   4.161   2.302  12.422  0.2527 -0.5203 -0.3116
15552TIP3    H268072   4.098   2.252  12.294 -0.9321  0.2837 -0.0428
15553TIP3   OH268073   0.370   4.906   2.808  0.8229  0.2117  0.7902
15553TIP3    H168074   0.442   4.861   2.763  0.1040  0.4275 -0.6124
15553TIP3    H268075   0.362   4.861   2.892  0.5294 -1.8917 -0.3348
15554TIP3   OH268076   1.772   3.108   3.514 -0.2874  0.4500 -0.1650
15554TIP3    H168077   1.725   3.189   3.535  0.4214  0.4292  1.5735
15554TIP3    H268078   1.712   3.038   3.542 -1.0445  0.3422 -1.9773
15555TIP3   OH268079   0.218   0.846   0.411 -0.6467 -0.2701  0.3049
15555TIP3    H168080   0.292   0.896   0.446 -0.5138 -0.9783  1.0583
15555TIP3    H268081   0.258   0.769   0.370 -0.6925  1.2166 -2.6540
15556TIP3   OH268082   4.205   4.347  14.459 -0.0908 -0.5204  0.0120
15556TIP3    H168083   4.123   4.360  14.412 -0.4932  0.2121  0.8860
15556TIP3    H268084   4.222   4.253  14.455 -0.8918 -0.6501 -0.3014
15557TIP3   OH268085   4.502   0.433  12.163 -0.0368 -0.2161 -0.1310
15557TIP3    H168086   4.460   0.349  12.146 -0.1169 -0.0491 -0.7946
15557TIP3    H268087   4.488   0.450  12.256  1.5343 -1.8068  0.4199
15558TIP3   OH268088   5.119   2.279   2.166  0.2872 -0.0591 -0.4711
15558TIP3    H168089   5.130   2.205   2.227 -1.6149  0.0738  0.0565
15558TIP3    H268090   5.087   2.350   2.221  0.1797  0.5633 -1.3420
15559TIP3   OH268091   5.896   1.201  13.668  0.0641  0.1681 -0.1778
15559TIP3    H168092   5.943   1.222  13.748 -0.7688  0.9028  0.1232
15559TIP3    H268093   5.913   1.108  13.654  1.7138  0.4499 -0.1509
15560TIP3   OH268094   2.005   4.531  16.689  0.1112 -0.5560  0.4254
15560TIP3    H168095   2.029   4.446  16.727 -1.2211 -0.0401  2.4526
15560TIP3    H268096   1.946   4.508  16.617  0.1629 -1.3896  0.6376
15561TIP3   OH268097   1.545   6.335  15.672  0.4980  0.1173 -0.3428
15561TIP3    H168098   1.526   6.257  15.723 -0.0143 -1.2832 -2.6003
15561TIP3    H268099   1.627   6.315  15.627  0.5864  1.0410 -0.6022
15562TIP3   OH268100   5.681   5.440   0.290  0.0874  0.3638  0.6421
15562TIP3    H168101   5.740   5.424   0.217  0.3625 -0.0948  0.9650
15562TIP3    H268102   5.662   5.534   0.286  0.2179  0.3639  0.0741
15563TIP3   OH268103   2.449   4.827   1.198 -0.2582  0.3872  0.4002
15563TIP3    H168104   2.507   4.811   1.273  0.7128 -0.0910 -0.4544
15563TIP3    H268105   2.502   4.878   1.137 -0.8172  0.1455 -0.2857
15564TIP3   OH268106   5.749   0.158   0.742 -0.3931 -0.3613  0.4059
15564TIP3    H168107   5.725   0.168   0.834 -0.2947  1.5623  0.2424
15564TIP3    H268108   5.725   0.241   0.702 -1.6957 -1.6357 -1.6105
15565TIP3   OH268109   0.285   0.835  11.886  0.6677  0.1129  0.2726
15565TIP3    H168110   0.256   0.925  11.872  0.4962 -0.0110 -0.1547
15565TIP3    H268111   0.289   0.796  11.799  0.4852 -0.3728  0.4798
15566TIP3   OH268112   0.720   6.427   0.504 -0.3230 -0.2329  0.0202
15566TIP3    H168113   0.784   6.469   0.447 -0.7544 -1.1399 -1.1598
15566TIP3    H268114   0.635   6.451   0.467 -0.5936 -1.2846 -0.0615
15567TIP3   OH268115   3.109   5.499   0.847 -0.2902  0.2121  0.3215
15567TIP3    H168116   3.127   5.405   0.851 -1.7474 -0.0776  0.5425
15567TIP3    H268117   3.126   5.522   0.756 -1.5636 -0.6366 -0.1556
15568TIP3   OH268118   4.424   5.379  16.227  0.0048 -0.0920 -0.0685
15568TIP3    H168119   4.489   5.332  16.175 -0.4670  0.6503 -1.3553
15568TIP3    H268120   4.356   5.315  16.246  1.2159 -0.9446  1.4999
15569TIP3   OH268121   6.529   5.157   0.953 -0.3956 -0.1231  0.3266
15569TIP3    H168122   6.543   5.073   0.909  1.3450 -0.1782  0.9200
15569TIP3    H268123   6.583   5.219   0.904 -2.1482  0.7918 -0.4794
15570TIP3   OH268124   5.425   5.254   5.099 -0.5148  0.3908  0.4886
15570TIP3    H168125   5.428   5.323   5.164 -0.0050  1.5685 -0.7753
15570TIP3    H268126   5.333   5.251   5.072 -0.3490  1.2251 -0.1571
15571TIP3   OH268127   5.133   1.621   2.126 -0.3395  0.2351  0.3831
15571TIP3    H168128   5.066   1.672   2.173  2.1233  3.3267  0.6894
15571TIP3    H268129   5.142   1.666   2.042  0.6189 -0.8175 -0.0824
15572TIP3   OH268130   1.052   3.547   1.126 -0.1413 -0.4452  0.1764
15572TIP3    H168131   1.030   3.611   1.194 -0.8302  1.1122 -1.4509
15572TIP3    H268132   1.146   3.560   1.110  0.2901 -1.6826  1.6976
15573TIP3   OH268133   2.348   2.272  14.387  0.3452  0.5902  0.1840
15573TIP3    H168134   2.353   2.195  14.330  0.6925  0.4936  0.3424
15573TIP3    H268135   2.268   2.260  14.437  2.4949 -1.7816  3.2192
15574TIP3   OH268136   2.352   5.355   0.323  0.1927  0.0684  0.3659
15574TIP3    H168137   2.431   5.336   0.272 -0.3698 -1.2981 -0.0393
15574TIP3    H268138   2.377   5.427   0.381  1.6169 -0.0913 -0.0274
15575TIP3   OH268139   2.841   3.214   0.710  0.0544 -0.3366 -0.0861
15575TIP3    H168140   2.864   3.241   0.622 -1.1698 -1.8487 -0.9168
15575TIP3    H268141   2.848   3.118   0.708  0.4888 -0.3549  1.5916
15576TIP3   OH268142   2.182   1.879   5.173  0.3350  0.2626 -0.3306
15576TIP3    H168143   2.208   1.861   5.083 -0.0886  0.5699 -0.5172
15576TIP3    H268144   2.199   1.797   5.220  0.0086 -0.0800 -0.8103
15577TIP3   OH268145   2.133   0.906   0.043 -0.5547 -1.0954 -0.2404
15577TIP3    H168146   2.100   0.972   0.104  0.1753  0.9662 -2.0242
15577TIP3    H268147   2.221   0.885   0.074 -0.2573 -0.1909 -0.4742
15578TIP3   OH268148   2.947   0.672  10.648 -0.3462  0.7383 -0.0154
15578TIP3    H168149   2.881   0.676  10.579 -1.4627 -1.3321  0.9002
15578TIP3    H268150   2.902   0.706  10.726  0.3360  1.3363  0.1223
15579TIP3   OH268151   0.165   4.444   0.398  0.1039  0.2664 -0.6447
15579TIP3    H168152   0.078   4.427   0.363  1.0668 -1.1635 -2.4455
15579TIP3    H268153   0.170   4.539   0.406 -2.1152  0.2955  0.8649
15580TIP3   OH268154   3.397   6.303   2.813 -0.1619  0.4654 -0.1837
15580TIP3    H168155   3.326   6.295   2.877 -0.4960 -2.9165 -0.9086
15580TIP3    H268156   3.388   6.226   2.757  2.1395  1.6638 -2.3037
15581TIP3   OH268157   0.934   0.029   0.016 -0.3424  0.2329 -0.5672
15581TIP3    H168158   0.904   0.058   0.103 -1.3590 -0.3424 -0.7215
15581TIP3    H268159   0.884   0.083  -0.045 -0.6102 -0.2929 -0.8162
15582TIP3   OH268160   2.994   3.519   4.712  0.3579 -0.1061 -0.1583
15582TIP3    H168161   2.932   3.447   4.721  0.1667  0.2470  1.5506
15582TIP3    H268162   2.967   3.563   4.631 -1.4599 -0.1287  0.4029
15583TIP3   OH268163   3.400   5.569   5.259 -0.5911 -0.2446  0.1000
15583TIP3    H168164   3.478   5.620   5.277 -0.1992 -0.0166 -2.0916
15583TIP3    H268165   3.328   5.631   5.266 -0.5766 -0.4007  1.8686
15584TIP3   OH268166   1.886   2.663  12.174  0.1096  0.6338  0.1216
15584TIP3    H168167   1.808   2.704  12.135  1.3279  1.7681 -1.1911
15584TIP3    H268168   1.957   2.723  12.153  1.4380 -0.6799  0.8003
15585TIP3   OH268169   3.332   5.604  16.567 -0.2700  0.5817 -0.1518
15585TIP3    H168170   3.425   5.583  16.573 -0.3888  0.1253  0.0661
15585TIP3    H268171   3.330   5.698  16.548  0.2349  0.5801 -0.2155
15586TIP3   OH268172   0.026   5.992  16.426  0.0894  0.5687 -0.1324
15586TIP3    H168173  -0.048   6.052  16.438  0.2139  0.5103  0.9558
15586TIP3    H268174   0.069   5.990  16.512  1.7405  1.0979 -0.9289
15587TIP3   OH268175   4.409   4.788   5.341 -0.1294 -0.0139  0.1393
15587TIP3    H168176   4.388   4.865   5.394  0.1284  0.0601  0.1374
15587TIP3    H268177   4.465   4.735   5.399  0.2690  0.1333 -0.1119
15588TIP3   OH268178   4.875   1.587  16.014 -0.3007 -0.5008 -0.0637
15588TIP3    H168179   4.789   1.615  15.982 -0.3810 -1.1002 -0.3657
15588TIP3    H268180   4.867   1.493  16.027  0.2717 -0.5364  0.0419
15589TIP3   OH268181   3.461   6.509  15.272  0.0010 -0.4626 -0.1930
15589TIP3    H168182   3.369   6.503  15.246 -0.5069  0.8033  1.2449
15589TIP3    H268183   3.463   6.577  15.339  2.2574  0.7246 -1.4044
15590TIP3   OH268184   0.746   3.798   4.334 -0.2091 -0.1971 -0.2046
15590TIP3    H168185   0.661   3.793   4.377  0.5429  0.0721  1.3894
15590TIP3    H268186   0.766   3.892   4.332 -0.7214 -0.1224 -2.1591
15591TIP3   OH268187   1.296   5.359  12.370 -1.2226  0.7601 -0.0239
15591TIP3    H168188   1.361   5.398  12.429 -1.8890 -0.5848  1.6622
15591TIP3    H268189   1.303   5.409  12.289  1.3206  1.1859  0.4202
15592TIP3   OH268190   0.405   6.446   4.139  0.3167  0.6030 -0.3453
15592TIP3    H168191   0.339   6.376   4.137 -0.5418  1.3033  1.9083
15592TIP3    H268192   0.482   6.407   4.097 -0.8544 -0.9193 -1.1592
15593TIP3   OH268193   6.291   5.152   4.629 -0.1060 -0.4021 -0.0355
15593TIP3    H168194   6.270   5.091   4.558 -1.5950 -0.6931  0.6235
15593TIP3    H268195   6.285   5.099   4.708  0.7840  0.0964  0.3643
15594TIP3   OH268196   1.569   3.860  13.841 -0.6394 -0.0467 -0.1460
15594TIP3    H168197   1.575   3.872  13.936 -3.4405 -0.4436  0.1428
15594TIP3    H268198   1.480   3.888  13.820 -0.4653 -1.1694 -2.4759
15595TIP3   OH268199   4.846   5.857   2.559 -0.4235 -0.0248  0.1676
15595TIP3    H168200   4.779   5.889   2.498 -2.6474 -1.9283  1.5352
15595TIP3    H268201   4.921   5.914   2.544 -2.3473  2.1821 -1.4140
15596TIP3   OH268202   5.543   0.264   1.612 -0.4821  0.5377  0.4852
15596TIP3    H168203   5.558   0.231   1.700 -0.5810 -1.9275 -0.3781
15596TIP3    H268204   5.626   0.252   1.567 -0.7601  0.7147 -0.0882
15597TIP3   OH268205   5.656   2.879  16.934 -0.5014  0.1822 -0.4590
15597TIP3    H168206   5.619   2.879  16.846  0.2166 -1.7913 -0.7941
15597TIP3    H268207   5.720   2.807  16.932 -2.1017 -1.3974  2.3412
15598TIP3   OH268208   5.996   1.651   3.510  0.4394 -0.4764 -0.3279
15598TIP3    H168209   5.913   1.659   3.556  0.6513 -1.3496  0.2227
15598TIP3    H268210   6.059   1.696   3.566  1.0353 -3.0632  1.1791
15599TIP3   OH268211   5.996   5.926  15.358  0.0747  0.2692  0.2554
15599TIP3    H168212   6.083   5.943  15.322 -0.4760  0.3955 -1.0356
15599TIP3    H268213   5.936   5.939  15.285 -1.0705  0.4930  1.2031
15600TIP3   OH268214   1.961   5.795   2.201 -0.1923 -0.0626 -0.0606
15600TIP3    H168215   2.003   5.869   2.246 -0.4991 -0.7837  1.4457
15600TIP3    H268216   2.014   5.781   2.123  0.0361  1.5824 -0.2196
15601TIP3   OH268217   5.498   3.280   0.452  0.4424 -0.1273 -0.1173
15601TIP3    H168218   5.413   3.289   0.410  1.0947  2.1732 -1.0090
15601TIP3    H268219   5.508   3.360   0.503  1.9853 -0.4777  0.1556
15602TIP3   OH268220   3.873   6.688   3.446  0.0077  0.1086 -0.0295
15602TIP3    H168221   3.924   6.616   3.408  0.3564  0.7213 -0.7390
15602TIP3    H268222   3.862   6.664   3.538  0.6378 -0.5619 -0.1275
15603TIP3   OH268223   4.220   3.454  14.544 -0.4504 -0.7071  0.0109
15603TIP3    H168224   4.307   3.437  14.579 -1.3177  0.0761  2.6449
15603TIP3    H268225   4.200   3.377  14.491  2.0578 -0.6351 -1.1179
15604TIP3   OH268226   6.708   1.437   2.667  0.1911 -0.1482  0.1063
15604TIP3    H168227   6.697   1.347   2.698  0.5633 -0.3838 -0.4373
15604TIP3    H268228   6.684   1.491   2.742  1.8622 -0.7157  1.0857
15605TIP3   OH268229   4.098   5.221  14.699  0.5354  0.1855 -0.4234
15605TIP3    H168230   4.091   5.160  14.773 -0.1132  3.2454  2.1509
15605TIP3    H268231   4.012   5.219  14.658  0.0428  0.4920  0.5826
15606TIP3   OH268232   4.220   5.703  15.286 -0.6210 -0.0652  0.5648
15606TIP3    H168233   4.173   5.682  15.205 -0.4432 -1.5708  0.8392
15606TIP3    H268234   4.158   5.757  15.336 -1.2508 -0.2650  0.0139
15607TIP3   OH268235   2.289   0.823   0.285 -0.0072 -0.5461 -0.0711
15607TIP3    H168236   2.287   0.914   0.255 -0.9790 -0.6475 -0.3544
15607TIP3    H268237   2.295   0.830   0.381 -0.6740 -0.1653 -0.0485
15608TIP3   OH268238   4.445   1.802   1.130 -0.6282  0.0039 -0.0165
15608TIP3    H168239   4.421   1.725   1.180 -1.1676  0.6028  0.6452
15608TIP3    H268240   4.537   1.819   1.154 -0.6199 -0.2183  0.1023
15609TIP3   OH268241   5.046   1.973  16.922  0.9108  0.0135  0.2809
15609TIP3    H168242   5.008   2.058  16.897  0.3125 -0.0127  1.0833
15609TIP3    H268243   5.119   1.996  16.980  0.5911 -0.0328  0.6989
15610TIP3   OH268244   0.499   2.234  16.581 -0.4989  0.4158 -0.2236
15610TIP3    H168245   0.577   2.260  16.630  0.5420  1.9780 -2.6342
15610TIP3    H268246   0.455   2.171  16.638  2.2466 -0.1099  1.4009
15611TIP3   OH268247   2.108   6.762  13.522  0.6557  0.1401  0.0748
15611TIP3    H168248   2.083   6.715  13.443 -2.3404  2.3735 -0.3694
15611TIP3    H268249   2.063   6.715  13.593  1.3035 -0.3195  0.1957
15612TIP3   OH268250   2.642   0.443   6.314 -0.4115 -0.3173  0.5667
15612TIP3    H168251   2.616   0.535   6.318  0.7711  0.3568 -4.3279
15612TIP3    H268252   2.735   0.443   6.334 -0.3753 -0.4655  0.3935
15613TIP3   OH268253   5.970   3.700   4.342 -0.0378 -0.2038 -0.4225
15613TIP3    H168254   5.950   3.768   4.407  0.1817 -2.2335  1.8479
15613TIP3    H268255   5.889   3.688   4.293 -0.8394 -0.0891  0.8544
15614TIP3   OH268256   5.974   6.430   2.620  0.3121 -0.2921  0.2693
15614TIP3    H168257   5.909   6.427   2.690  0.0708 -1.2664  0.0049
15614TIP3    H268258   6.044   6.373   2.649  0.1714 -0.7708 -0.3176
15615TIP3   OH268259   6.144   3.311  14.121  0.3356  0.4348 -0.3176
15615TIP3    H168260   6.058   3.345  14.095  0.0461 -1.6510 -2.2441
15615TIP3    H268261   6.201   3.331  14.046  1.6443  2.0825  1.0693
15616TIP3   OH268262   3.661   3.862   5.089 -0.0915  0.9212  0.8414
15616TIP3    H168263   3.617   3.793   5.038 -1.4585  2.1915  0.2454
15616TIP3    H268264   3.753   3.837   5.088 -0.1626  0.5405 -1.7114
15617TIP3   OH268265   6.302   1.665  14.411  0.0174 -0.3261  0.4251
15617TIP3    H168266   6.312   1.598  14.343 -0.7912 -0.7173  0.6708
15617TIP3    H268267   6.383   1.715  14.409  0.8312 -1.6289  0.5629
15618TIP3   OH268268   3.832   4.676   0.806  0.7205  0.4577 -0.2990
15618TIP3    H168269   3.878   4.758   0.789  2.1738 -0.0926  0.9151
15618TIP3    H268270   3.762   4.701   0.866  0.8784  0.8799 -0.2882
15619TIP3   OH268271   1.989   0.164   3.238  0.0796  0.5119  0.0654
15619TIP3    H168272   1.945   0.122   3.164  1.5350  0.7924 -0.9929
15619TIP3    H268273   1.959   0.255   3.235 -2.5226 -0.2489  1.9271
15620TIP3   OH268274   5.405   1.245   5.831  0.1311  0.2977  0.3835
15620TIP3    H168275   5.381   1.171   5.887  1.5608  0.2418  0.9489
15620TIP3    H268276   5.339   1.312   5.849  0.5197  0.2417  2.0631
15621TIP3   OH268277   5.959   3.994   1.232  0.2183 -0.5187 -0.5269
15621TIP3    H168278   5.972   3.904   1.203  0.0862  0.2631 -3.0854
15621TIP3    H268279   5.951   4.045   1.152 -3.2161  1.2907  0.8201
15622TIP3   OH268280   0.403   3.971   1.077  0.5789 -0.0102  0.9723
15622TIP3    H168281   0.455   3.967   0.997 -0.8144 -0.6896  0.0839
15622TIP3    H268282   0.338   3.902   1.067 -1.1030  1.4182  1.6226
15623TIP3   OH268283   3.264   3.435  16.304 -0.5311 -0.5101  0.5578
15623TIP3    H168284   3.255   3.444  16.398 -0.0999  1.9449  0.4085
15623TIP3    H268285   3.296   3.521  16.275  1.7193 -2.0052 -1.5147
15624TIP3   OH268286   2.362   1.152   1.110 -0.0930 -0.2023 -0.2347
15624TIP3    H168287   2.334   1.098   1.036  0.3990  0.9004 -1.2440
15624TIP3    H268288   2.452   1.124   1.127 -0.4086 -0.8841  0.3609
15625TIP3   OH268289   6.745   4.124  10.867 -0.4590 -1.2885  0.4038
15625TIP3    H168290   6.817   4.084  10.819 -1.0241 -1.0040 -0.6944
15625TIP3    H268291   6.754   4.218  10.849 -0.7288 -1.1873  0.7901
15626TIP3   OH268292   5.043   2.236   4.976 -0.1110 -0.4261  0.3954
15626TIP3    H168293   5.058   2.197   4.890 -0.4635  1.5083 -0.5655
15626TIP3    H268294   5.006   2.322   4.957 -0.0411  0.0831  2.4853
15627TIP3   OH268295   1.892   1.167   1.142  0.0776 -0.0860  0.3803
15627TIP3    H168296   1.822   1.107   1.168  1.4541 -1.0802  1.8610
15627TIP3    H268297   1.914   1.215   1.222 -0.3701  1.7470 -0.5766
15628TIP3   OH268298   3.506   2.438   5.804 -0.0152 -0.1218  0.4708
15628TIP3    H168299   3.449   2.449   5.728 -1.1323 -1.1607  1.1355
15628TIP3    H268300   3.568   2.511   5.798 -1.5213  1.1425 -0.1560
15629TIP3   OH268301   4.752   2.461  17.181 -0.4580  0.0193  0.9458
15629TIP3    H168302   4.777   2.464  17.274 -0.6709 -3.0196  1.1771
15629TIP3    H268303   4.835   2.467  17.134  0.1223 -2.6340  1.5111
15630TIP3   OH268304   5.311   2.611   5.529  0.5794  0.3277 -0.5059
15630TIP3    H168305   5.372   2.677   5.562  0.6856 -0.3607  0.7172
15630TIP3    H268306   5.237   2.661   5.496  1.0959  1.1013 -0.4977
15631TIP3   OH268307   3.701   5.339   4.756 -0.1344  0.5442  0.0400
15631TIP3    H168308   3.616   5.360   4.792 -0.2619  1.6131 -0.8812
15631TIP3    H268309   3.752   5.419   4.765  0.7673 -0.0782  0.5588
15632TIP3   OH268310   2.717   0.732   1.671 -0.0151  0.5288  0.4498
15632TIP3    H168311   2.766   0.680   1.735 -1.2514  0.1634  1.1142
15632TIP3    H268312   2.774   0.808   1.654  0.8364  0.0492  1.0997
15633TIP3   OH268313   4.627   6.378   2.080 -0.0306  0.0157 -0.5762
15633TIP3    H168314   4.655   6.303   2.132  2.3292 -0.0113 -1.8552
15633TIP3    H268315   4.567   6.425   2.138  2.4351 -0.0731  2.1697
15634TIP3   OH268316   2.302   3.456   2.250  0.0683 -0.0721 -1.1531
15634TIP3    H168317   2.270   3.513   2.180  0.3631 -0.1263 -1.3317
15634TIP3    H268318   2.384   3.421   2.217  0.4835  0.3256 -0.5682
15635TIP3   OH268319   2.811   6.346  12.470  0.0370  0.6739 -0.6012
15635TIP3    H168320   2.740   6.334  12.534  1.6648 -0.1143  1.0835
15635TIP3    H268321   2.814   6.441  12.456  0.0284  0.9119  0.9244
15636TIP3   OH268322   2.865   1.095   6.521  0.0960  0.0313  0.3406
15636TIP3    H168323   2.957   1.077   6.541  0.0347 -0.0063  0.5901
15636TIP3    H268324   2.818   1.021   6.560 -0.0111 -0.1082 -0.0540
15637TIP3   OH268325   5.739   2.363  15.207 -0.3999 -0.2645  0.5639
15637TIP3    H168326   5.679   2.308  15.157 -0.8494  0.7004  0.0077
15637TIP3    H268327   5.699   2.450  15.203  0.9710  0.3632  0.2885
15638TIP3   OH268328   5.736   4.442   1.469 -0.4019  0.2275  0.5245
15638TIP3    H168329   5.741   4.349   1.488 -0.0761  0.5011  1.7915
15638TIP3    H268330   5.642   4.460   1.464 -0.4582 -0.2471 -0.1330
15639TIP3   OH268331   2.126   5.084  13.477  0.5138  0.4956 -0.4709
15639TIP3    H168332   2.171   5.002  13.501  1.2475  0.5407 -1.6661
15639TIP3    H268333   2.197   5.145  13.458 -0.0480  0.9004 -1.2738
15640TIP3   OH268334   1.101   1.609   0.635 -0.1331  0.0149 -0.5767
15640TIP3    H168335   1.121   1.700   0.613  2.4456 -0.6011 -0.9410
15640TIP3    H268336   1.142   1.595   0.720 -0.8848 -0.7142 -0.3234
15641TIP3   OH268337   4.669   4.949   2.709  0.5784  0.3992 -0.1380
15641TIP3    H168338   4.659   4.908   2.795  1.2611 -0.9010 -0.6631
15641TIP3    H268339   4.763   4.949   2.694  0.3713 -0.7451 -1.5260
15642TIP3   OH268340   3.905   4.474  16.126  0.1674  0.0102 -0.2833
15642TIP3    H168341   3.838   4.494  16.061  0.3361  1.0121 -0.1572
15642TIP3    H268342   3.928   4.559  16.165 -0.6197 -0.6804  1.7656
15643TIP3   OH268343   6.084   0.722  11.840 -0.3351  0.0364 -0.9966
15643TIP3    H168344   6.080   0.632  11.805 -0.3794 -0.8898  1.3020
15643TIP3    H268345   6.177   0.739  11.850 -0.3898 -1.1030  1.8312
15644TIP3   OH268346   3.320   5.636   4.727 -0.8555  0.4764  0.2773
15644TIP3    H168347   3.239   5.636   4.778 -0.9142 -2.6738  0.2897
15644TIP3    H268348   3.389   5.629   4.793 -0.7919 -0.7760  0.0868
15645TIP3   OH268349   0.057   1.570  15.616 -0.2388 -0.1753  0.0798
15645TIP3    H168350  -0.027   1.581  15.660 -0.3145  0.1150 -0.1259
15645TIP3    H268351   0.046   1.618  15.533 -0.3306 -1.2742 -0.5450
15646TIP3   OH268352   1.331   0.359   3.201 -0.0996 -0.2811 -0.2264
15646TIP3    H168353   1.298   0.448   3.213 -1.8993 -1.0866  1.0514
15646TIP3    H268354   1.303   0.336   3.112 -2.0729 -0.5344  0.4238
15647TIP3   OH268355   0.432   5.024   0.029  0.4267 -0.6612  0.4282
15647TIP3    H168356   0.375   4.988  -0.038 -0.1536 -0.2571  0.6915
15647TIP3    H268357   0.422   4.965   0.104 -0.0375 -0.3127  0.6447
15648TIP3   OH268358   6.349   2.677  11.749  0.2589  0.3731 -0.4648
15648TIP3    H168359   6.333   2.590  11.712 -1.7903  0.8139 -0.6700
15648TIP3    H268360   6.396   2.724  11.680  0.6721 -0.3102 -0.6570
15649TIP3   OH268361   1.874   3.526  15.683 -0.2461  0.6133 -0.5176
15649TIP3    H168362   1.865   3.466  15.757  0.7532 -1.5963 -2.1085
15649TIP3    H268363   1.956   3.573  15.700 -0.3403  0.5691  0.0663
15650TIP3   OH268364   3.211   2.755   2.346  0.0804  0.4780 -0.0757
15650TIP3    H168365   3.162   2.675   2.365 -0.5427  0.0390 -3.2262
15650TIP3    H268366   3.303   2.727   2.349 -0.1382 -0.5118 -1.5353
15651TIP3   OH268367   6.129   4.890  16.645  0.2642 -0.0089  0.0039
15651TIP3    H168368   6.193   4.856  16.707  0.9719  1.2905  0.0271
15651TIP3    H268369   6.169   4.877  16.559  0.2144  0.0802 -0.0320
15652TIP3   OH268370   0.155   0.005  11.938  0.2293 -0.5679  0.4353
15652TIP3    H168371   0.242  -0.018  11.908 -0.2956 -0.4603 -1.2086
15652TIP3    H268372   0.148   0.099  11.925 -0.1337 -0.5741  0.5534
15653TIP3   OH268373   4.096   6.053  13.238  0.4267 -0.4698  0.1244
15653TIP3    H168374   4.130   5.967  13.263  0.6464 -0.7526 -1.1375
15653TIP3    H268375   4.131   6.069  13.151 -1.2011  0.0269 -0.4551
15654TIP3   OH268376   4.556   5.913   4.216  0.4322 -0.5500 -0.3489
15654TIP3    H168377   4.651   5.901   4.222  0.4410 -0.8939 -1.1216
15654TIP3    H268378   4.522   5.881   4.300  0.9881 -0.5263 -0.1142
15655TIP3   OH268379   2.758   0.239  11.979  0.3986  0.3479 -0.1020
15655TIP3    H168380   2.719   0.319  12.013 -0.5555 -0.2989  0.3531
15655TIP3    H268381   2.817   0.268  11.909 -1.3815  1.2974 -1.2302
15656TIP3   OH268382   1.949   4.779   4.516  0.3234 -0.0663  0.2003
15656TIP3    H168383   1.901   4.759   4.436  1.7005 -0.8861 -0.4366
15656TIP3    H268384   1.887   4.762   4.586 -0.0920 -1.8506 -0.5732
15657TIP3   OH268385   5.499   4.101   6.580  0.2066  0.6704 -0.1373
15657TIP3    H168386   5.533   4.169   6.637  2.4447 -0.9569  0.5146
15657TIP3    H268387   5.418   4.072   6.623 -1.4821  3.7366 -1.0930
15658TIP3   OH268388   4.748   1.793  16.580 -0.0451 -0.0132 -0.3813
15658TIP3    H168389   4.793   1.874  16.604 -1.3240  0.3452  0.8846
15658TIP3    H268390   4.720   1.756  16.664 -1.3083 -0.6824 -1.0811
15659TIP3   OH268391   0.219   1.238   3.855 -0.5736 -0.6348 -0.3234
15659TIP3    H168392   0.143   1.255   3.799 -2.4385 -0.3888  2.1967
15659TIP3    H268393   0.224   1.143   3.861  0.2000 -0.6876 -1.6246
15660TIP3   OH268394   3.826   6.038   3.145  0.1588 -0.1835  0.0158
15660TIP3    H168395   3.817   5.952   3.187  0.0037 -0.9537 -1.5185
15660TIP3    H268396   3.751   6.088   3.176  1.1250 -0.0361  2.1775
15661TIP3   OH268397   5.666   4.863   1.618 -0.0366  0.4164  0.2455
15661TIP3    H168398   5.698   4.787   1.668 -1.0659 -0.0598  0.1952
15661TIP3    H268399   5.746   4.906   1.587  0.6083  0.4073  1.8239
15662TIP3   OH268400   0.534   5.187   3.439 -0.1177 -0.1764  0.8391
15662TIP3    H168401   0.588   5.115   3.472 -0.6819 -1.0367 -0.0880
15662TIP3    H268402   0.458   5.144   3.400 -0.0188  0.8558 -0.5353
15663TIP3   OH268403   1.416   3.714  14.810 -0.3227  0.5770  0.5147
15663TIP3    H168404   1.326   3.703  14.839 -0.3940 -0.9535 -0.2133
15663TIP3    H268405   1.412   3.709  14.714  0.3920  1.6129  0.4226
15664TIP3   OH268406   2.315   5.078  12.739  0.0931 -0.3037  0.2389
15664TIP3    H168407   2.389   5.070  12.679 -0.0943  0.0570 -0.0390
15664TIP3    H268408   2.270   4.994  12.733 -0.8712  0.3299 -1.3547
15665TIP3   OH268409   2.543   5.036  17.051  0.0338  0.5234 -0.8118
15665TIP3    H168410   2.624   5.029  17.001  0.4213 -1.7134  0.1144
15665TIP3    H268411   2.572   5.050  17.141 -0.6347  1.3127 -0.7177
15666TIP3   OH268412   0.841   1.523   0.635 -0.1088  0.4878 -0.0496
15666TIP3    H168413   0.796   1.542   0.553  1.6524  1.1431 -0.8900
15666TIP3    H268414   0.933   1.542   0.617  0.4657 -0.4689  1.7351
15667TIP3   OH268415   1.708   6.738   0.629  0.0033 -0.2029 -0.5310
15667TIP3    H168416   1.626   6.767   0.588 -0.0562 -0.7773 -0.8132
15667TIP3    H268417   1.766   6.814   0.621 -0.4565  0.1640 -0.4431
15668TIP3   OH268418   2.865   2.217   1.976 -0.1360  0.2879  0.2741
15668TIP3    H168419   2.796   2.275   2.006 -0.1642  0.6496 -0.4701
15668TIP3    H268420   2.830   2.129   1.988 -1.0546  0.4871 -0.8819
15669TIP3   OH268421   3.001   2.147  14.571 -0.1630 -0.1395  0.6102
15669TIP3    H168422   2.947   2.196  14.509 -0.3986 -0.1784  0.7859
15669TIP3    H268423   2.939   2.094  14.621  0.1792 -1.3991 -0.2786
15670TIP3   OH268424   3.287   3.258   3.614 -0.4785 -0.0278  0.0058
15670TIP3    H168425   3.337   3.230   3.537  2.9103 -0.6162  2.2859
15670TIP3    H268426   3.266   3.350   3.596 -0.2771 -0.3249 -1.8849
15671TIP3   OH268427   2.286   2.807  15.208 -0.3378  0.1612  0.2355
15671TIP3    H168428   2.211   2.788  15.265 -1.4309  0.8607 -0.9351
15671TIP3    H268429   2.298   2.727  15.156 -0.8317  0.3590 -0.1848
15672TIP3   OH268430   2.520   0.615   0.950 -0.3286 -0.2239  0.4001
15672TIP3    H168431   2.608   0.648   0.931  0.4695 -2.3617  0.2657
15672TIP3    H268432   2.466   0.694   0.956  1.7209  1.1676  1.1749
15673TIP3   OH268433   4.614   3.140  16.096 -0.0136  0.0641 -0.0260
15673TIP3    H168434   4.577   3.098  16.174 -0.2758 -1.1482 -0.7953
15673TIP3    H268435   4.543   3.142  16.033  1.1735 -2.2694 -1.5044
15674TIP3   OH268436   4.182   6.153   3.785 -0.1781  0.0762  0.7080
15674TIP3    H168437   4.128   6.121   3.858 -0.2404  2.0809  1.5763
15674TIP3    H268438   4.264   6.180   3.825  0.2917 -0.0271 -0.1669
15675TIP3   OH268439   1.904   4.845  12.515  0.2060  0.4902  0.3075
15675TIP3    H168440   1.837   4.794  12.469  0.5182  1.1052 -0.8408
15675TIP3    H268441   1.878   4.839  12.607 -0.2516 -1.0183  0.1120
15676TIP3   OH268442   0.248   3.445   4.184 -0.3581  0.2068 -0.5508
15676TIP3    H168443   0.164   3.408   4.159  0.3853 -1.4330 -0.6998
15676TIP3    H268444   0.311   3.402   4.127  0.8126 -0.0526  0.8996
15677TIP3   OH268445   6.368   1.146   4.181 -0.5758  0.6811  0.1427
15677TIP3    H168446   6.343   1.227   4.136 -0.7737  0.1242 -0.7509
15677TIP3    H268447   6.460   1.160   4.204 -0.1903  0.5857 -1.3011
15678TIP3   OH268448   4.095   6.623  15.418  0.2369  0.3038  0.1167
15678TIP3    H168449   4.043   6.577  15.352  0.1138  0.4361  0.1215
15678TIP3    H268450   4.072   6.582  15.501 -1.4667  1.7788  0.4023
15679TIP3   OH268451   3.653   6.409   1.859 -0.1228 -0.3061 -0.8944
15679TIP3    H168452   3.682   6.318   1.850  1.3576  0.0830 -0.1502
15679TIP3    H268453   3.715   6.460   1.806 -0.5176  0.3487 -0.7383
15680TIP3   OH268454   2.965   5.841  11.104  0.1618 -0.1390  0.6013
15680TIP3    H168455   2.923   5.862  11.188  1.8299  1.1162  1.1473
15680TIP3    H268456   3.037   5.783  11.128  1.5183  1.3666  0.2143
15681TIP3   OH268457   6.231   5.995   6.097  0.2401 -0.0465 -0.5853
15681TIP3    H168458   6.326   6.004   6.098  0.1220  1.8134 -2.6197
15681TIP3    H268459   6.204   6.006   6.189  1.8725  0.6643 -0.1795
15682TIP3   OH268460   1.050   1.539  16.850 -0.0357 -0.5761  0.2149
15682TIP3    H168461   1.071   1.628  16.878  3.0006 -0.2426 -2.8740
15682TIP3    H268462   1.125   1.511  16.798 -3.0673 -3.1123 -3.0308
15683TIP3   OH268463   5.196   4.445  15.563 -0.3173  0.2773  0.0261
15683TIP3    H168464   5.207   4.509  15.633 -0.2403 -1.3481  1.5405
15683TIP3    H268465   5.102   4.445  15.545 -0.7793 -1.4355  2.2423
15684TIP3   OH268466   5.044   5.903  16.450 -0.1299 -0.4022  0.0652
15684TIP3    H168467   4.995   5.838  16.400 -1.2555 -0.1406  0.7931
15684TIP3    H268468   5.094   5.951  16.385  1.7210 -2.8054 -0.3536
15685TIP3   OH268469   2.401   3.221  17.118  0.8163 -0.8427  0.0853
15685TIP3    H168470   2.454   3.247  17.042  0.3947 -0.4972 -0.0885
15685TIP3    H268471   2.411   3.294  17.180 -1.1749  0.2242 -0.8073
15686TIP3   OH268472   1.188   2.030   2.063  0.0458  0.3708  0.0099
15686TIP3    H168473   1.182   1.978   1.983 -2.1140 -0.7223  0.8429
15686TIP3    H268474   1.098   2.057   2.080  0.6539  1.5167  1.4749
15687TIP3   OH268475   3.958   2.661  13.790  0.0960 -0.1463  0.2486
15687TIP3    H168476   3.936   2.605  13.716 -0.6203  2.0413 -1.2407
15687TIP3    H268477   4.035   2.711  13.760 -1.0304  1.7448  0.4204
15688TIP3   OH268478   6.671   1.465  16.121  0.3049  0.1938 -0.3807
15688TIP3    H168479   6.615   1.455  16.197  0.1341 -1.2234 -0.6760
15688TIP3    H268480   6.753   1.422  16.146  0.5958  0.5818 -0.6511
15689TIP3   OH268481   4.034   3.058  15.961 -0.1051 -0.8354  0.3129
15689TIP3    H168482   4.044   2.976  15.912 -0.9718 -0.7820  0.0355
15689TIP3    H268483   3.997   3.032  16.045 -0.4117 -0.7314  0.2128
15690TIP3   OH268484   3.755   0.115  16.772  0.1511  1.4689 -0.0113
15690TIP3    H168485   3.764   0.198  16.725  1.7790  1.7864  0.8435
15690TIP3    H268486   3.799   0.129  16.855 -0.6410  0.1288  0.6551
15691TIP3   OH268487   3.842   5.825   2.039 -0.0072  0.3135  0.3240
15691TIP3    H168488   3.890   5.773   1.975 -0.9026  0.8676 -0.8274
15691TIP3    H268489   3.851   5.777   2.121  2.7463  0.5646  0.2125
15692TIP3   OH268490   3.137   0.632   2.915  0.2845 -0.2414  0.1524
15692TIP3    H168491   3.081   0.640   2.837 -1.0796 -1.3819  0.9872
15692TIP3    H268492   3.087   0.675   2.984  1.9851  1.7618  0.1960
15693TIP3   OH268493   3.089   1.681   1.226 -0.1574  0.3526 -0.0104
15693TIP3    H168494   3.173   1.726   1.233 -0.9540  1.7739  0.6468
15693TIP3    H268495   3.032   1.726   1.289 -1.6549 -0.0049 -1.0823
15694TIP3   OH268496   1.659   3.941  14.350  0.1752  1.1655  0.1793
15694TIP3    H168497   1.685   3.908  14.437  0.5182  1.2911  0.1234
15694TIP3    H268498   1.679   4.034  14.353 -0.7000  1.3566  0.2987
15695TIP3   OH268499   6.490   4.372   1.790  0.2689  0.2671 -0.0338
15695TIP3    H168500   6.523   4.315   1.859  0.3263  1.6572  1.1169
15695TIP3    H268501   6.460   4.312   1.721  0.9094 -1.1122  0.8698
15696TIP3   OH268502   6.617   6.536  15.619  0.0358  0.2398 -0.8599
15696TIP3    H168503   6.645   6.550  15.710 -0.0275  0.7139 -0.9140
15696TIP3    H268504   6.571   6.617  15.595  0.1119  0.1424 -1.3371
15697TIP3   OH268505   3.487   2.835   3.940  0.4582  0.0846 -0.5489
15697TIP3    H168506   3.532   2.900   3.886 -0.3852  0.8652 -0.3338
15697TIP3    H268507   3.428   2.790   3.880 -1.9204  2.2958  0.0845
15698TIP3   OH268508   0.100   2.977   2.558  0.6118  0.1399 -0.4183
15698TIP3    H168509   0.129   3.012   2.474  2.8210  1.3574  0.8192
15698TIP3    H268510   0.014   3.017   2.573  2.1318  3.3915 -0.0561
15699TIP3   OH268511   6.593   0.588   3.467  0.3050 -0.6358 -0.3222
15699TIP3    H168512   6.628   0.578   3.555 -0.5556 -2.3596 -0.1631
15699TIP3    H268513   6.506   0.626   3.480  0.6336  0.1909 -0.5050
15700TIP3   OH268514   3.129   6.219  13.475  0.1505 -0.6583  1.0045
15700TIP3    H168515   3.204   6.223  13.534  0.6909  0.5835  0.2507
15700TIP3    H268516   3.135   6.299  13.423 -2.2722  0.0086  1.6636
15701TIP3   OH268517   5.000   4.693  11.619  0.0154 -0.3156 -0.2296
15701TIP3    H168518   5.033   4.678  11.530 -0.1049  0.7784 -0.4781
15701TIP3    H268519   5.032   4.781  11.641  0.1637 -0.6346  0.8649
15702TIP3   OH268520   1.030   3.178  13.071 -0.1772 -0.1479 -0.5224
15702TIP3    H168521   0.978   3.228  13.009  1.2133 -0.3638 -1.8908
15702TIP3    H268522   1.052   3.097  13.025 -0.5442 -1.0678  0.8681
15703TIP3   OH268523   0.172   4.727   4.164 -0.6300 -0.4894 -0.1382
15703TIP3    H168524   0.128   4.668   4.102 -0.6143  0.9224 -1.5144
15703TIP3    H268525   0.127   4.810   4.154 -1.2997 -0.5137  2.5403
15704TIP3   OH268526   3.192   0.357   0.565 -0.1051  0.6598 -0.1515
15704TIP3    H168527   3.247   0.290   0.525  1.1494  2.7925 -2.0912
15704TIP3    H268528   3.204   0.344   0.660  0.7644 -1.2847 -0.4952
15705TIP3   OH268529   5.122   2.726  14.737  0.0989 -0.3542  0.0539
15705TIP3    H168530   5.211   2.706  14.707 -0.2337  0.3650 -1.4946
15705TIP3    H268531   5.118   2.692  14.826  2.3185  0.7189  0.5819
15706TIP3   OH268532   3.772   2.208  12.173  0.1754 -0.4554  0.7149
15706TIP3    H168533   3.848   2.176  12.123 -0.7350  0.3717 -1.2898
15706TIP3    H268534   3.801   2.293  12.207  0.0969 -0.0356 -0.2351
15707TIP3   OH268535   2.114   4.575   2.798  0.6741 -0.3086  0.4735
15707TIP3    H168536   2.065   4.494   2.784 -0.6860  0.2027  2.1704
15707TIP3    H268537   2.053   4.645   2.774  1.6105  0.2528 -0.3177
15708TIP3   OH268538   6.318   4.466   0.689 -0.7117  0.0523 -0.1781
15708TIP3    H168539   6.305   4.557   0.713 -0.5156 -0.2958  1.3181
15708TIP3    H268540   6.243   4.420   0.728 -0.4613 -0.5183 -0.3588
15709TIP3   OH268541   6.346   3.969   3.102 -0.1118 -0.3249  0.1459
15709TIP3    H168542   6.406   4.002   3.168 -0.2688  1.3498 -0.5364
15709TIP3    H268543   6.263   3.958   3.148  0.0119 -0.0311  0.4394
15710TIP3   OH268544   2.050   0.423  16.214  0.9110 -0.4336  0.1777
15710TIP3    H168545   2.057   0.445  16.121 -1.8969  2.7422  0.6094
15710TIP3    H268546   2.116   0.476  16.257  1.6793 -1.3180  0.1101
15711TIP3   OH268547   6.394   1.277   5.139  1.0298  0.0783  0.0954
15711TIP3    H168548   6.355   1.263   5.225  1.1397 -0.8009  0.0071
15711TIP3    H268549   6.438   1.361   5.146  0.7503  0.1681  0.7950
15712TIP3   OH268550   5.809   0.665   5.540 -0.0603 -0.3117  0.0177
15712TIP3    H168551   5.727   0.702   5.572  1.5077  1.7095  1.8941
15712TIP3    H268552   5.792   0.572   5.531 -2.2776 -0.0672  1.3777
15713TIP3   OH268553   0.881   5.483   4.178 -0.5273  0.1540 -0.0596
15713TIP3    H168554   0.961   5.468   4.127 -1.2173 -0.9697 -0.8153
15713TIP3    H268555   0.892   5.428   4.256  0.1500  1.2387  0.6359
15714TIP3   OH268556   5.212   6.325  17.231 -0.6592 -0.0209 -0.2627
15714TIP3    H168557   5.158   6.279  17.294  0.6925  0.0210  0.9592
15714TIP3    H268558   5.213   6.269  17.153 -1.6224 -0.4867  0.0552
15715TIP3   OH268559   5.729   6.002  13.590 -0.3570 -0.0374  0.0614
15715TIP3    H168560   5.765   6.082  13.550 -0.7640  0.0450 -0.1431
15715TIP3    H268561   5.678   5.961  13.520 -0.1082 -0.5055  0.1514
15716TIP3   OH268562   0.671   4.268   4.507  0.0412  0.1829  0.2404
15716TIP3    H168563   0.755   4.313   4.501  0.3050 -0.0002  2.1497
15716TIP3    H268564   0.609   4.337   4.532 -0.5002  0.4257 -1.7014
15717TIP3   OH268565   3.015   3.781   0.619 -0.5199  0.0227  0.1210
15717TIP3    H168566   3.005   3.782   0.524 -1.7390  0.3114  0.2496
15717TIP3    H268567   3.022   3.873   0.644 -3.5056  0.1572  0.6355
15718TIP3   OH268568   0.095   2.179   1.103 -0.2715  0.3076 -0.2778
15718TIP3    H168569   0.048   2.119   1.045 -1.0929  0.2405  0.4518
15718TIP3    H268570   0.161   2.220   1.047 -0.9645  0.1329 -1.2187
15719TIP3   OH268571   6.734   0.154  15.194  0.0595  0.0162 -0.2558
15719TIP3    H168572   6.730   0.189  15.283  0.9773  1.3041 -0.7098
15719TIP3    H268573   6.803   0.087  15.197 -0.1399 -0.1766  0.0691
15720TIP3   OH268574   3.826   3.585   2.921 -0.3559  0.1269  0.0236
15720TIP3    H168575   3.834   3.641   2.844  1.4696  0.8730  0.7361
15720TIP3    H268576   3.857   3.499   2.892  2.5691  0.9858  0.5421
15721TIP3   OH268577   6.089   2.763  12.106  0.1787 -0.0808 -0.5449
15721TIP3    H168578   6.064   2.673  12.083 -0.7809 -0.2323  0.9763
15721TIP3    H268579   6.006   2.805  12.131  0.9254  0.5183  1.0273
15722TIP3   OH268580   2.849   1.207  16.382 -0.0706 -0.5416 -0.3622
15722TIP3    H168581   2.786   1.204  16.311  0.2024 -0.4423 -0.6078
15722TIP3    H268582   2.915   1.142  16.359  0.6468  0.3423 -0.8001
15723TIP3   OH268583   3.712   0.347   0.397  0.4090 -0.3040 -0.3550
15723TIP3    H168584   3.644   0.408   0.428  0.0197 -0.6418 -0.5355
15723TIP3    H268585   3.794   0.388   0.423  0.0922 -0.5550  1.1224
15724TIP3   OH268586   2.502   6.668  13.962 -0.3629 -0.4946 -0.7525
15724TIP3    H168587   2.491   6.576  13.939 -1.8729 -0.3002 -0.8765
15724TIP3    H268588   2.538   6.666  14.051 -1.4816 -1.1979 -0.3128
15725TIP3   OH268589   4.627   4.741  11.270  0.1424  0.0082 -0.0195
15725TIP3    H168590   4.691   4.811  11.282 -0.7290  0.6387  1.0250
15725TIP3    H268591   4.542   4.784  11.281 -0.3817 -1.4862  2.1258
15726TIP3   OH268592   5.721   2.429   2.150  0.2292 -0.0309  0.0685
15726TIP3    H168593   5.629   2.410   2.135  0.4393 -2.3434  1.6158
15726TIP3    H268594   5.727   2.450   2.243  1.4205 -0.9626  0.2194
15727TIP3   OH268595   3.809   6.559   1.715 -0.2332 -0.4079 -0.3940
15727TIP3    H168596   3.893   6.588   1.752  0.0588 -1.1937 -0.4339
15727TIP3    H268597   3.794   6.619   1.642 -0.0605  0.1872  0.0448
15728TIP3   OH268598   3.645   2.775   1.677 -0.3761  0.2399 -0.7090
15728TIP3    H168599   3.592   2.742   1.605  0.0152  0.0855 -0.9299
15728TIP3    H268600   3.598   2.749   1.756  0.5310 -1.9227 -0.8454
15729TIP3   OH268601   1.761   5.177   1.013  0.5187 -0.0625  0.1103
15729TIP3    H168602   1.755   5.106   0.950  2.3006  0.9995 -1.3083
15729TIP3    H268603   1.694   5.240   0.985 -0.1755 -0.5856  0.5916
15730TIP3   OH268604   0.048   1.893  13.406  0.3606 -0.0365 -0.0451
15730TIP3    H168605   0.080   1.840  13.478  0.5361 -0.9015 -0.7546
15730TIP3    H268606  -0.013   1.836  13.360 -0.1619  0.6969 -0.2657
15731TIP3   OH268607   2.126   3.735  16.070 -0.0004 -0.0522  0.0512
15731TIP3    H168608   2.095   3.710  15.983  1.4612  0.3888 -0.6152
15731TIP3    H268609   2.165   3.822  16.058  0.9192 -0.3229  0.9738
15732TIP3   OH268610   5.921   4.839   6.059  0.2951  0.2335  0.3446
15732TIP3    H168611   5.937   4.886   5.977 -0.3854  1.8067  1.1068
15732TIP3    H268612   5.855   4.773   6.036  0.9453 -0.0905 -0.6272
15733TIP3   OH268613   3.261   0.016   0.170 -0.5451  0.2438 -0.0642
15733TIP3    H168614   3.300  -0.072   0.175  0.5301  0.7789  1.4443
15733TIP3    H268615   3.264   0.039   0.078 -1.0210 -1.3878 -0.5060
15734TIP3   OH268616   6.774   1.605  16.856 -0.0235 -0.6757  0.5489
15734TIP3    H168617   6.826   1.528  16.879  2.1925  0.8887  0.9959
15734TIP3    H268618   6.839   1.676  16.849 -2.0848  1.2903  0.8925
15735TIP3   OH268619   4.476   0.606  16.834 -0.0727 -0.1972  0.3544
15735TIP3    H168620   4.529   0.686  16.842 -0.6047  0.1381  0.5744
15735TIP3    H268621   4.441   0.592  16.922  0.7451 -1.1893  0.5255
15736TIP3   OH268622   0.549   5.346   0.407  0.3260  0.4739 -0.0919
15736TIP3    H168623   0.569   5.430   0.364  1.0843  0.0564 -0.5763
15736TIP3    H268624   0.603   5.347   0.486  0.8561  0.1573 -0.4436
15737TIP3   OH268625   1.421   2.615  11.945 -0.6477 -0.2239 -0.5672
15737TIP3    H168626   1.476   2.569  12.009 -0.9742 -2.7615 -2.0133
15737TIP3    H268627   1.414   2.553  11.872 -1.5222  1.9999 -2.4128
15738TIP3   OH268628   2.800   3.293  15.298  0.2065  0.7935  0.3218
15738TIP3    H168629   2.876   3.284  15.241 -1.4817 -0.2607 -1.8750
15738TIP3    H268630   2.745   3.358  15.254 -2.2031 -1.7363 -0.5875
15739TIP3   OH268631   4.688   1.298  15.315 -0.3422  0.2885 -0.0195
15739TIP3    H168632   4.705   1.207  15.340 -0.4786  0.2314 -0.1302
15739TIP3    H268633   4.621   1.291  15.247 -0.7689  0.5065  0.3801
15740TIP3   OH268634   0.202   4.948  15.739  0.5299 -0.0215 -0.4268
15740TIP3    H168635   0.146   5.008  15.788 -0.0640 -1.1718  0.3509
15740TIP3    H268636   0.141   4.898  15.684  0.9813 -0.1011 -0.8619
15741TIP3   OH268637   3.331   6.436  13.608 -0.1582 -0.2155 -0.0112
15741TIP3    H168638   3.395   6.497  13.644 -0.9379  0.1393  0.7724
15741TIP3    H268639   3.358   6.425  13.517 -1.7499  3.6630 -1.0453
15742TIP3   OH268640   5.938   3.682   3.414 -0.0745  0.0189 -0.2107
15742TIP3    H168641   5.980   3.767   3.400 -1.6633  0.7565 -0.6150
15742TIP3    H268642   5.930   3.645   3.326 -0.5211  0.0155 -0.1710
15743TIP3   OH268643   1.796   1.629   3.875 -0.1200  0.6678 -0.3998
15743TIP3    H168644   1.703   1.626   3.901 -0.4676  3.1768 -1.1779
15743TIP3    H268645   1.809   1.550   3.823 -1.5168 -0.2935  0.6426
15744TIP3   OH268646   0.497   2.534  15.221  0.6092 -0.0178 -0.5126
15744TIP3    H168647   0.448   2.477  15.162  0.8931  0.0577 -0.8231
15744TIP3    H268648   0.495   2.619  15.178  0.1636  0.2209 -0.0367
15745TIP3   OH268649   4.971   1.828   0.444 -0.7888 -0.0042 -0.0344
15745TIP3    H168650   4.893   1.858   0.491 -0.3216  1.9337 -0.4656
15745TIP3    H268651   4.998   1.903   0.391  1.2549 -0.7299 -0.0583
15746TIP3   OH268652   6.178   5.828  16.160  0.4907 -0.6564 -0.2182
15746TIP3    H168653   6.166   5.882  16.238  0.7166 -0.8030 -0.0834
15746TIP3    H268654   6.219   5.886  16.096  0.3453 -0.5490 -0.2160
15747TIP3   OH268655   2.185   2.304   0.538  0.4974  0.0899 -0.1351
15747TIP3    H168656   2.265   2.276   0.582 -0.4551 -2.0486  0.2693
15747TIP3    H268657   2.163   2.233   0.478  0.1080  1.6459 -1.8987
15748TIP3   OH268658   1.379   5.048   5.254  0.2284 -0.1427 -0.3529
15748TIP3    H168659   1.376   5.010   5.167  0.6992 -1.1370  0.0652
15748TIP3    H268660   1.435   5.125   5.245 -0.3746  0.2067 -1.1019
15749TIP3   OH268661   2.994   1.710  13.875 -0.6138  0.7461  0.2747
15749TIP3    H168662   2.990   1.767  13.952 -0.7236 -1.0614  1.6121
15749TIP3    H268663   2.903   1.687  13.858 -0.3271 -1.3857  1.5168
15750TIP3   OH268664   6.758   0.689   3.716  0.0484 -0.4457 -0.1676
15750TIP3    H168665   6.665   0.671   3.726  0.0987 -0.7448 -0.2419
15750TIP3    H268666   6.770   0.776   3.755 -0.2705 -0.3827 -0.2127
15751TIP3   OH268667   5.249   1.286  11.169  0.1632 -0.2840 -0.3337
15751TIP3    H168668   5.271   1.295  11.262  0.4396  1.2051 -0.5299
15751TIP3    H268669   5.195   1.363  11.149 -0.1903 -0.7779 -1.3190
15752TIP3   OH268670   1.631   2.130  14.287 -0.4092  0.4241 -0.0493
15752TIP3    H168671   1.535   2.121  14.287 -0.5636  1.8408  0.5987
15752TIP3    H268672   1.651   2.173  14.204 -0.3271 -0.0413 -0.2658
15753TIP3   OH268673   4.373   2.093  17.149 -0.0241  0.1828  0.0082
15753TIP3    H168674   4.373   1.999  17.131  0.0349  0.3381 -0.8125
15753TIP3    H268675   4.390   2.134  17.064 -2.1599  1.0186 -0.0510
15754TIP3   OH268676   3.079   5.423  13.367 -0.0855  0.1654  0.4392
15754TIP3    H168677   3.112   5.472  13.291  0.3205  0.2954  0.6925
15754TIP3    H268678   2.999   5.469  13.393 -0.1102  0.2473  0.2154
15755TIP3   OH268679   0.604   0.002  14.260  0.0600 -0.5579 -0.1100
15755TIP3    H168680   0.689  -0.005  14.302 -0.5775  0.0716  1.3099
15755TIP3    H268681   0.587   0.096  14.256 -1.4685 -0.7362  1.4901
15756TIP3   OH268682   1.997   6.604  11.609 -0.6954 -0.0113 -0.3717
15756TIP3    H168683   1.945   6.538  11.655 -1.3690  0.1180 -0.9509
15756TIP3    H268684   1.946   6.685  11.617  0.6208  0.6985  1.2501
15757TIP3   OH268685   2.242   4.184  11.785 -0.1782 -0.2952  0.0027
15757TIP3    H168686   2.229   4.106  11.731 -0.7032 -0.1420 -0.0948
15757TIP3    H268687   2.245   4.151  11.875 -0.2734 -0.4402 -0.0494
15758TIP3   OH268688   6.392   2.351   0.168  0.4046 -0.0943 -0.0301
15758TIP3    H168689   6.365   2.351   0.077  0.8250  0.7631 -0.1607
15758TIP3    H268690   6.311   2.359   0.218  0.1124 -1.3903 -0.3055
15759TIP3   OH268691   5.142   2.802   2.765  0.0993 -0.1206  0.0694
15759TIP3    H168692   5.070   2.865   2.757 -0.3460 -0.3175  2.1639
15759TIP3    H268693   5.189   2.830   2.843  0.6825 -1.5968  0.2561
15760TIP3   OH268694   2.865   6.224  11.338  0.2334 -0.4895  0.0152
15760TIP3    H168695   2.771   6.231  11.356 -0.1037  0.3829 -1.8968
15760TIP3    H268696   2.906   6.280  11.403 -0.6282 -0.3662  0.4610
15761TIP3   OH268697   5.626   0.415  13.786 -0.0866  0.3003  0.5985
15761TIP3    H168698   5.636   0.488  13.725 -0.1262 -0.5123 -0.4083
15761TIP3    H268699   5.671   0.443  13.866  4.1703 -0.4795 -1.3965
15762TIP3   OH268700   3.766   2.824   0.586 -0.4573  0.1465  0.5428
15762TIP3    H168701   3.730   2.862   0.666 -0.4566 -2.3828  1.8159
15762TIP3    H268702   3.692   2.776   0.547  0.3501 -1.3705  0.8147
15763TIP3   OH268703   1.350   2.367   3.811 -0.2848 -0.0875  0.0456
15763TIP3    H168704   1.264   2.327   3.802 -0.3191 -0.3319  1.4866
15763TIP3    H268705   1.358   2.388   3.904  1.2483 -0.1577 -0.0579
15764TIP3   OH268706   2.562   3.158   0.560 -0.2185 -0.8151  0.1401
15764TIP3    H168707   2.592   3.071   0.534  1.2033 -0.0417 -0.8982
15764TIP3    H268708   2.611   3.178   0.640 -0.8404 -1.1233  0.6024
15765TIP3   OH268709   3.677   0.369  13.470  0.3475 -0.3554  0.0658
15765TIP3    H168710   3.754   0.426  13.464 -0.6267  0.9861  0.0489
15765TIP3    H268711   3.617   0.404  13.404 -0.0537 -1.7472 -0.3091
15766TIP3   OH268712   1.305   5.889  11.422  0.2272  0.1981  0.5141
15766TIP3    H168713   1.360   5.910  11.497  0.0989  1.0275  0.3721
15766TIP3    H268714   1.249   5.817  11.452  0.1683  0.5406  1.2083
15767TIP3   OH268715   5.616   2.260   0.489  0.1838 -0.3490  0.0037
15767TIP3    H168716   5.573   2.288   0.570 -0.3172 -0.1283 -0.3403
15767TIP3    H268717   5.559   2.192   0.453  0.4636 -0.5264 -0.1068
15768TIP3   OH268718   2.518   5.023   0.300  0.1510  0.2151  0.3882
15768TIP3    H168719   2.502   5.020   0.206 -0.3451  1.7069  0.4254
15768TIP3    H268720   2.483   4.940   0.332 -2.7604  1.1417 -0.2788
15769TIP3   OH268721   1.056   1.662  15.076  0.3596 -0.2340 -0.2840
15769TIP3    H168722   1.050   1.598  15.148  0.6800 -0.0708 -0.1133
15769TIP3    H268723   0.987   1.635  15.015 -0.3055 -0.0284  0.3656
15770TIP3   OH268724   2.798   4.707  16.592  0.2879  0.7744  0.4557
15770TIP3    H168725   2.785   4.647  16.519 -2.4371  0.7916  0.9041
15770TIP3    H268726   2.807   4.651  16.669  1.7965  0.8131  0.3282
15771TIP3   OH268727   5.238   5.867   1.895 -0.7790 -0.2016 -0.0108
15771TIP3    H168728   5.259   5.889   1.986  0.3573  0.0491 -0.3183
15771TIP3    H268729   5.173   5.932   1.869 -1.2189 -0.3661  0.6689
15772TIP3   OH268730   0.529   5.138   2.768  0.5700 -0.2873 -0.0400
15772TIP3    H168731   0.460   5.103   2.824 -0.3364 -1.7816 -2.0241
15772TIP3    H268732   0.501   5.228   2.748  0.0235 -0.3386  0.4867
15773TIP3   OH268733   2.103   3.142  14.906  0.5701 -0.3260  0.3476
15773TIP3    H168734   2.023   3.112  14.949  0.0137  0.4975 -0.1173
15773TIP3    H268735   2.128   3.069  14.849 -0.0174 -0.4547  0.2534
15774TIP3   OH268736   2.759   1.973   2.057  0.3577 -0.3264  0.0473
15774TIP3    H168737   2.838   1.940   2.101  0.8202 -1.5106 -1.6085
15774TIP3    H268738   2.724   1.897   2.010 -1.6341  0.2614  0.5417
15775TIP3   OH268739   5.540   4.700  16.816  0.0764  0.2033 -0.5263
15775TIP3    H168740   5.485   4.737  16.885 -1.3213 -1.7663 -0.5224
15775TIP3    H268741   5.561   4.774  16.760 -1.4527  1.2634  0.2369
15776TIP3   OH268742   3.096   5.825  16.637  0.4333  0.2474 -0.0979
15776TIP3    H168743   3.120   5.747  16.587 -0.2405 -0.1997  0.2631
15776TIP3    H268744   3.010   5.850  16.603  0.6867  0.8941 -0.2761
15777TIP3   OH268745   2.448   1.540  15.680  0.4548 -0.2612 -0.5015
15777TIP3    H168746   2.472   1.500  15.764  1.1561  1.6248  0.2343
15777TIP3    H268747   2.407   1.623  15.705  2.1509  1.0902 -2.0746
15778TIP3   OH268748   4.561   4.178   3.110 -0.0151 -0.5501  0.3132
15778TIP3    H168749   4.637   4.126   3.084  0.5797 -0.1726  1.2741
15778TIP3    H268750   4.499   4.115   3.145 -0.5999 -0.9957 -1.4660
15779TIP3   OH268751   3.339   3.578   3.709  0.2336 -0.7755 -0.2634
15779TIP3    H168752   3.264   3.590   3.767  0.4964 -2.4078  0.4476
15779TIP3    H268753   3.301   3.568   3.622 -0.1501  2.0299 -0.4570
15780TIP3   OH268754   1.783   4.761   1.883 -0.0634  0.1972  0.1841
15780TIP3    H168755   1.771   4.681   1.934  1.3081 -0.3350 -0.2890
15780TIP3    H268756   1.766   4.734   1.792  0.9273  0.2886 -0.0416
15781TIP3   OH268757   2.430   3.066   1.552  0.5177  0.2041 -0.4225
15781TIP3    H168758   2.372   2.991   1.537  0.1241  0.4582 -0.1851
15781TIP3    H268759   2.492   3.063   1.480 -0.0486  0.1677 -0.9110
15782TIP3   OH268760   3.513   2.893   5.727 -0.4090 -0.6039  0.6271
15782TIP3    H168761   3.452   2.842   5.674  0.9657  0.3653 -2.0090
15782TIP3    H268762   3.587   2.834   5.741  0.7211  0.2138 -1.5331
15783TIP3   OH268763   5.941   5.668  13.305  0.1586 -0.8742 -0.5398
15783TIP3    H168764   5.861   5.713  13.277  0.4987 -0.4333 -0.8033
15783TIP3    H268765   5.940   5.585  13.256 -0.6764 -1.3409  0.2596
15784TIP3   OH268766   4.648   4.491   0.441  0.0354  0.1212 -0.3235
15784TIP3    H168767   4.601   4.415   0.408  0.4799  0.5071 -1.8838
15784TIP3    H268768   4.740   4.470   0.428  0.2732 -0.0300  1.4026
15785TIP3   OH268769   1.287   0.764  12.100 -0.2681 -0.1271 -0.2800
15785TIP3    H168770   1.342   0.825  12.051 -0.1313  0.0756  0.1230
15785TIP3    H268771   1.214   0.818  12.131  1.4623  0.5636  2.7796
15786TIP3   OH268772   6.015   3.976   0.625 -0.3524  0.4172 -0.2062
15786TIP3    H168773   5.996   3.888   0.656 -0.2165 -0.8336 -3.5333
15786TIP3    H268774   5.934   4.025   0.643 -1.2734 -0.9761 -0.4735
15787TIP3   OH268775   4.104   4.978  14.075  0.4107 -0.5349 -0.1371
15787TIP3    H168776   4.113   4.897  14.125  0.3810 -0.4432  0.0179
15787TIP3    H268777   4.030   5.023  14.117  0.0777 -0.6792 -0.5652
15788TIP3   OH268778   3.898   3.727   2.610  0.2404  0.4006  0.3631
15788TIP3    H168779   3.958   3.734   2.684  1.4385 -1.6648 -0.3528
15788TIP3    H268780   3.936   3.782   2.542  0.5065  0.3060  0.4350
15789TIP3   OH268781   2.933   5.698  12.269 -0.4245 -0.3043  0.3708
15789TIP3    H168782   2.998   5.725  12.204 -0.5279 -0.7671  0.0734
15789TIP3    H268783   2.882   5.777  12.287 -0.7518 -0.3107 -0.5229
15790TIP3   OH268784   1.528   2.414   2.467 -0.2518 -0.0154  0.4395
15790TIP3    H168785   1.470   2.341   2.488 -0.2446 -0.5052 -1.1655
15790TIP3    H268786   1.490   2.455   2.389  0.7387  0.5675  0.2401
15791TIP3   OH268787   1.795   3.054  11.989 -0.1302 -0.5007 -0.2701
15791TIP3    H168788   1.726   2.987  11.988 -0.5011 -0.1202 -0.2987
15791TIP3    H268789   1.843   3.040  11.907 -0.6781 -0.2453 -0.6348
15792TIP3   OH268790   5.571   1.597  12.179  0.4471 -0.0340  0.3621
15792TIP3    H168791   5.535   1.510  12.197 -0.6303  0.4749  0.6514
15792TIP3    H268792   5.657   1.579  12.141 -0.1780 -1.2464 -0.4994
15793TIP3   OH268793   4.111   1.632   1.066 -0.2376 -0.3005 -0.6798
15793TIP3    H168794   4.179   1.690   1.100  1.0152 -1.4195 -1.1958
15793TIP3    H268795   4.064   1.685   1.001 -0.3654  0.7243  0.2348
15794TIP3   OH268796   5.990   6.522  10.791  0.1217  0.2731 -0.4251
15794TIP3    H168797   6.035   6.572  10.722 -1.3800  2.2262 -0.0393
15794TIP3    H268798   5.941   6.454  10.744  0.5751  0.4320 -1.1286
15795TIP3   OH268799   2.648   5.583  14.033 -0.0134 -0.2265 -0.5089
15795TIP3    H168800   2.722   5.549  13.982  0.5484 -0.0984  0.2050
15795TIP3    H268801   2.571   5.561  13.982  0.5662  0.2165 -1.5953
15796TIP3   OH268802   2.951   2.673   6.012  0.2649  0.1807  0.5478
15796TIP3    H168803   3.026   2.660   5.954 -1.1535  0.4145 -1.4164
15796TIP3    H268804   2.898   2.594   6.001 -0.4167  0.5817  0.9085
15797TIP3   OH268805   2.687   4.124   5.421  0.1594 -0.0822 -0.0047
15797TIP3    H168806   2.658   4.142   5.332  0.4771 -0.5494 -0.2071
15797TIP3    H268807   2.756   4.058   5.411 -0.6466 -1.0482  0.6713
15798TIP3   OH268808   5.865   2.405  14.373 -0.0160  0.1666 -0.2311
15798TIP3    H168809   5.839   2.480  14.427  1.9759 -0.8933  2.3517
15798TIP3    H268810   5.914   2.443  14.301  1.9771  1.3584  1.6682
15799TIP3   OH268811   0.238   1.917  12.318  0.2895  0.6188 -0.8138
15799TIP3    H168812   0.200   1.927  12.231 -0.9145 -0.0795 -0.3805
15799TIP3    H268813   0.206   1.993  12.367  1.6236  1.4387 -1.2107
15800TIP3   OH268814   1.373   2.418  11.726 -0.2110 -0.2450 -0.4751
15800TIP3    H168815   1.308   2.351  11.708  0.4951 -0.6667 -1.4774
15800TIP3    H268816   1.447   2.370  11.764 -0.0822  0.0940 -0.2931
15801TIP3   OH268817   6.325   4.254  16.353 -0.7926  0.4307  0.1216
15801TIP3    H168818   6.248   4.220  16.399  0.1028 -0.5070  0.9566
15801TIP3    H268819   6.393   4.258  16.420  0.9249 -2.2570 -1.3514
15802TIP3   OH268820   3.653   5.604   1.853 -0.1846  0.2106  0.0297
15802TIP3    H168821   3.627   5.588   1.943 -0.3423 -0.6753 -0.1643
15802TIP3    H268822   3.588   5.666   1.819 -2.2145 -2.1136 -0.5065
15803TIP3   OH268823   4.624   1.061   2.461 -0.5577 -0.2799  0.6164
15803TIP3    H168824   4.643   1.082   2.369 -1.5902  2.1735  0.9105
15803TIP3    H268825   4.541   1.013   2.458 -0.4847 -0.3843  0.2511
15804TIP3   OH268826   0.386   3.189  15.399 -0.3677 -0.3936  0.2124
15804TIP3    H168827   0.441   3.181  15.321  0.6956 -0.2794  0.9398
15804TIP3    H268828   0.337   3.270  15.385 -2.0344 -1.6604 -1.4789
15805TIP3   OH268829   4.014   3.994   0.953 -0.0100 -0.1505  0.5312
15805TIP3    H168830   4.049   3.970   1.039 -0.6545 -0.4987  0.7008
15805TIP3    H268831   3.962   3.918   0.926 -0.8932  0.4791  0.4256
15806TIP3   OH268832   0.016   5.642  11.717  0.5087 -0.1783 -0.3101
15806TIP3    H168833  -0.040   5.629  11.641 -0.2172  0.2245  0.1483
15806TIP3    H268834   0.105   5.638  11.683  0.1865 -0.0784 -1.1628
15807TIP3   OH268835   4.554   3.989  14.927  0.6254 -0.1212  0.6261
15807TIP3    H168836   4.598   4.027  14.851  1.4684  0.8288  1.5829
15807TIP3    H268837   4.617   3.924  14.960 -0.2106 -1.3461 -0.1471
15808TIP3   OH268838   3.886   5.796   0.563  0.3428 -0.0722 -0.3774
15808TIP3    H168839   3.941   5.758   0.494  1.0102  0.6791 -0.2733
15808TIP3    H268840   3.855   5.721   0.613 -0.9808 -0.7166 -2.1071
15809TIP3   OH268841   4.860   0.259   0.399 -0.4357  0.0249 -0.0889
15809TIP3    H168842   4.808   0.329   0.439 -2.0088  0.4566 -2.7677
15809TIP3    H268843   4.951   0.282   0.417 -1.0481  0.8639  2.0718
15810TIP3   OH268844   6.635   2.022  14.880  0.2503 -0.3453 -0.2636
15810TIP3    H168845   6.659   2.088  14.944  0.5985  0.3403 -1.0993
15810TIP3    H268846   6.586   1.957  14.930 -3.2520  2.3216 -0.0466
15811TIP3   OH268847   6.413   2.326  11.996  0.2793 -0.4277  0.4935
15811TIP3    H168848   6.346   2.393  12.005 -0.4596 -1.0076 -0.4929
15811TIP3    H268849   6.385   2.255  12.054  0.2647 -0.4945  0.4047
15812TIP3   OH268850   6.569   0.780   3.217  0.3929  0.1593  0.5412
15812TIP3    H168851   6.540   0.800   3.129  0.9286  0.7617  0.4941
15812TIP3    H268852   6.580   0.865   3.259  0.6658 -0.1034  1.0140
15813TIP3   OH268853   5.711   3.296  17.200 -0.1571 -0.4723 -0.1629
15813TIP3    H168854   5.722   3.387  17.228  0.0874 -0.6497  0.3442
15813TIP3    H268855   5.650   3.259  17.264 -0.7542 -0.4937 -0.7462
15814TIP3   OH268856   5.743   5.604  17.113 -0.0331 -0.4834 -0.2444
15814TIP3    H168857   5.789   5.534  17.159  1.2934  0.4062 -0.1752
15814TIP3    H268858   5.809   5.672  17.102 -1.1235  0.4813 -0.9102
15815TIP3   OH268859   3.138   4.804  15.515  0.5396 -0.3297 -0.8377
15815TIP3    H168860   3.170   4.802  15.606 -2.8275  0.9843  0.4432
15815TIP3    H268861   3.162   4.718  15.480  2.5644 -0.5781  1.0468
15816TIP3   OH268862   5.724   1.625   5.199 -0.1394  0.6258 -0.0814
15816TIP3    H168863   5.715   1.718   5.217 -0.8307  0.6549 -0.5790
15816TIP3    H268864   5.819   1.611   5.193 -0.0773  1.5211 -1.2099
15817TIP3   OH268865   5.892   0.389   1.095 -0.2122 -0.6348 -0.1676
15817TIP3    H168866   5.858   0.371   1.008  0.0391  1.1391 -0.6652
15817TIP3    H268867   5.830   0.452   1.132 -0.5082 -1.6362  1.0821
15818TIP3   OH268868   0.922   4.919  15.863 -0.3960  0.6570 -0.6509
15818TIP3    H168869   0.934   4.966  15.945  0.9349  0.5290 -0.7594
15818TIP3    H268870   0.836   4.878  15.871  0.6157 -1.1408  1.5862
15819TIP3   OH268871   1.258   2.974  13.005 -0.0739 -0.0969 -0.9235
15819TIP3    H168872   1.321   3.018  12.948 -2.9898  1.7615 -2.8409
15819TIP3    H268873   1.280   3.006  13.093  3.0794 -1.2903 -1.2295
15820TIP3   OH268874   6.415   0.235  11.576 -0.9972 -0.3187  0.5964
15820TIP3    H168875   6.458   0.320  11.587  0.7338 -1.0910 -0.1323
15820TIP3    H268876   6.364   0.245  11.495  1.0463 -0.6951 -0.7852
15821TIP3   OH268877   0.324   3.339   3.476 -0.5359  0.0640  0.0129
15821TIP3    H168878   0.360   3.288   3.403 -1.0607  1.3341 -1.1515
15821TIP3    H268879   0.331   3.430   3.448 -2.1663  0.4849  0.8895
15822TIP3   OH268880   0.876   3.556  16.415  0.6668  0.7669 -0.9174
15822TIP3    H168881   0.890   3.617  16.488  0.0432 -1.6830  1.3409
15822TIP3    H268882   0.962   3.518  16.399  0.4708  0.0379 -0.2683
15823TIP3   OH268883   4.610   4.557  16.835 -0.0475  0.2394  0.0306
15823TIP3    H168884   4.684   4.617  16.825  1.1260 -0.6250  2.9459
15823TIP3    H268885   4.534   4.613  16.850  0.5331  1.0507 -0.0869
15824TIP3   OH268886   0.845   4.743  15.479  0.1593 -0.4223  0.0034
15824TIP3    H168887   0.915   4.796  15.517 -0.8176  0.3267  0.7638
15824TIP3    H268888   0.803   4.701  15.554  0.0629 -1.2224 -0.4872
15825TIP3   OH268889   1.151   0.817   5.449  0.1014  0.3453 -0.0237
15825TIP3    H168890   1.226   0.836   5.393 -0.1990  0.8640 -0.2612
15825TIP3    H268891   1.087   0.776   5.391 -0.4435  1.4277 -0.2103
15826TIP3   OH268892   4.202   6.385  13.143 -0.3194  0.0652  0.3934
15826TIP3    H168893   4.179   6.472  13.175  0.5411  0.8322 -1.0660
15826TIP3    H268894   4.248   6.344  13.217 -2.0656  0.2503  1.6336
15827TIP3   OH268895   4.533   2.312   4.082  0.2038 -0.6171  0.0073
15827TIP3    H168896   4.514   2.304   3.989  0.9860 -0.9310 -0.1309
15827TIP3    H268897   4.606   2.251   4.097  0.2602 -0.3711  0.7679
15828TIP3   OH268898   1.606   3.640  12.336  0.4341 -0.5201  0.3134
15828TIP3    H168899   1.561   3.596  12.264  2.4309  0.9559 -1.9104
15828TIP3    H268900   1.696   3.607  12.331  1.2159  1.5254  0.4940
15829TIP3   OH268901   0.703   5.656   2.562 -1.1151 -0.5500  0.4270
15829TIP3    H168902   0.783   5.624   2.521 -1.2797 -1.8224  1.0912
15829TIP3    H268903   0.633   5.611   2.516 -1.3928 -0.4036  0.7094
15830TIP3   OH268904   3.146   3.585   6.283  0.2658  0.2615 -0.4852
15830TIP3    H168905   3.216   3.585   6.349  2.3685 -0.2193 -2.6310
15830TIP3    H268906   3.102   3.501   6.294  0.1608  0.4713  0.7530
15831TIP3   OH268907   3.456   5.997   3.191 -0.4718  0.0481  0.4339
15831TIP3    H168908   3.496   5.910   3.189  1.0408  0.6676  2.5009
15831TIP3    H268909   3.397   5.994   3.267 -2.6634 -0.0959 -1.2166
15832TIP3   OH268910   3.886   0.870   2.644 -0.3984  0.2371 -0.1354
15832TIP3    H168911   3.929   0.955   2.634 -1.3129  0.7171 -0.0781
15832TIP3    H268912   3.799   0.883   2.607 -0.7567 -0.5048  0.4245
15833TIP3   OH268913   4.739   0.271  14.043 -0.5298  0.7499 -0.3090
15833TIP3    H168914   4.799   0.277  13.969 -0.6504  1.7517 -0.3342
15833TIP3    H268915   4.788   0.222  14.110  0.3151  1.5461 -0.3354
15834TIP3   OH268916   2.556   1.282   1.480 -0.2837  0.3135 -0.4680
15834TIP3    H168917   2.631   1.327   1.440  0.8000  0.0960  1.2890
15834TIP3    H268918   2.583   1.191   1.486 -0.6475  0.2496  0.2794
15835TIP3   OH268919   0.298   4.402   3.917  0.0328 -0.2060 -0.4847
15835TIP3    H168920   0.302   4.497   3.907 -5.1534  0.1517 -0.9240
15835TIP3    H268921   0.299   4.388   4.012  0.7656  0.2934 -0.4183
15836TIP3   OH268922   5.295   6.599  16.170  0.3862 -0.2740  0.4332
15836TIP3    H168923   5.271   6.669  16.110  0.0373  0.9589  1.9970
15836TIP3    H268924   5.243   6.524  16.141  1.4324 -0.1980 -1.8205
15837TIP3   OH268925   2.164   5.688   4.337  0.2687 -0.7400 -0.5382
15837TIP3    H168926   2.160   5.723   4.248 -1.1237  1.0286  0.2036
15837TIP3    H268927   2.164   5.593   4.325 -0.3581 -0.5210 -2.4284
15838TIP3   OH268928   0.680   5.452  12.135 -0.3580 -0.1346 -0.1278
15838TIP3    H168929   0.725   5.406  12.065  1.0958  1.6397 -0.4061
15838TIP3    H268930   0.627   5.518  12.090 -0.1932  0.3572  0.3887
15839TIP3   OH268931   5.545   5.713   2.100 -0.1144 -0.2283 -0.3386
15839TIP3    H168932   5.598   5.770   2.155 -1.1743  1.0783 -0.6534
15839TIP3    H268933   5.529   5.635   2.154  0.9181 -0.0292  0.2732
15840TIP3   OH268934   2.239   0.090   1.013  0.3611  0.2471  0.7020
15840TIP3    H168935   2.198   0.176   1.003 -0.9471 -0.1985  1.8621
15840TIP3    H268936   2.190   0.033   0.953  1.2683  0.3209 -0.1145
15841TIP3   OH268937   4.236   5.527  12.874  0.3304 -0.0403 -0.5611
15841TIP3    H168938   4.142   5.540  12.885  0.7560  1.5641  1.3173
15841TIP3    H268939   4.267   5.608  12.834  1.4832  0.9606  2.2746
15842TIP3   OH268940   1.034   2.184  13.741 -0.0603 -0.6305 -0.3055
15842TIP3    H168941   1.078   2.238  13.675 -1.9261 -0.8467 -1.7559
15842TIP3    H268942   1.000   2.109  13.693 -3.9144  0.5799  0.3319
15843TIP3   OH268943   5.491   4.225  10.966  0.6466  0.1641 -0.2350
15843TIP3    H168944   5.408   4.213  11.012  1.8840 -1.3057  1.7103
15843TIP3    H268945   5.532   4.299  11.010  1.1252 -0.2377  0.0054
15844TIP3   OH268946   6.368   4.696  11.072 -0.1917 -0.1133  0.7907
15844TIP3    H168947   6.362   4.730  11.162 -0.3409 -0.7643  1.0282
15844TIP3    H268948   6.289   4.729  11.029 -0.4797 -0.3948  1.1016
15845TIP3   OH268949   4.551   6.164   3.723 -0.7559 -0.2174  0.2584
15845TIP3    H168950   4.616   6.210   3.671 -1.8482  0.6751 -0.3310
15845TIP3    H268951   4.599   6.131   3.798 -0.0673  2.3002  0.9445
15846TIP3   OH268952   2.463   0.454   4.208  0.0949 -0.0669  0.2332
15846TIP3    H168953   2.501   0.385   4.154 -0.0122  1.0714 -1.3450
15846TIP3    H268954   2.538   0.507   4.235  0.0851 -0.2757  0.6574
15847TIP3   OH268955   1.825   0.046  11.627 -0.1059  0.4480 -0.4904
15847TIP3    H168956   1.807   0.067  11.535 -1.0331  0.7007 -0.2515
15847TIP3    H268957   1.856   0.129  11.664  1.9569 -0.0760 -0.9917
15848TIP3   OH268958   3.784   1.411   3.127 -0.0137  0.2634  0.2557
15848TIP3    H168959   3.726   1.339   3.102 -0.4557  0.5887  0.3393
15848TIP3    H268960   3.725   1.482   3.151  0.4290  1.0300 -0.9126
15849TIP3   OH268961   1.700   1.496  16.745 -0.2595 -0.3908  0.3210
15849TIP3    H168962   1.709   1.590  16.760 -0.5830 -0.4596  0.9493
15849TIP3    H268963   1.697   1.457  16.833  0.6466 -1.0682  0.0650
15850TIP3   OH268964   3.132   1.757   4.409 -0.5565  0.2018  0.0715
15850TIP3    H168965   3.048   1.782   4.447 -1.0957  0.3222 -1.1756
15850TIP3    H268966   3.172   1.840   4.382  0.9068  0.3403  2.5434
15851TIP3   OH268967   4.347   5.778  14.662  0.1424 -0.0925  0.5370
15851TIP3    H168968   4.273   5.717  14.667 -0.7250  0.8979 -0.0153
15851TIP3    H268969   4.422   5.723  14.639 -0.1928 -1.2801  2.2288
15852TIP3   OH268970   6.683   5.267   1.483 -0.3060  0.1103  0.1437
15852TIP3    H168971   6.681   5.258   1.578  1.0878 -0.3566  0.1362
15852TIP3    H268972   6.596   5.238   1.454 -0.6461  0.0087  1.2472
15853TIP3   OH268973   0.737   6.624   5.167 -0.4817  0.2575  0.8669
15853TIP3    H168974   0.730   6.715   5.139 -2.5841  0.6386  2.4921
15853TIP3    H268975   0.743   6.629   5.263 -2.1108 -1.3549  1.0751
15854TIP3   OH268976   3.106   3.047   0.431 -0.7608  1.0614 -0.0969
15854TIP3    H168977   3.128   3.076   0.520 -1.2977  1.9310 -0.2383
15854TIP3    H268978   3.088   2.953   0.440 -0.0449  0.9868  0.5706
15855TIP3   OH268979   0.185   4.464  13.522 -0.1353 -0.2544  0.1222
15855TIP3    H168980   0.280   4.476  13.529 -0.1233 -0.0970 -0.3094
15855TIP3    H268981   0.155   4.540  13.473 -0.3873 -0.6899 -0.4002
15856TIP3   OH268982   4.741   4.772  11.651 -0.3411  0.1943  0.4930
15856TIP3    H168983   4.834   4.761  11.630 -0.4426 -1.0096  0.6375
15856TIP3    H268984   4.725   4.866  11.640  0.7179  0.3005 -0.2391
15857TIP3   OH268985   5.595   2.997  15.471  0.2551  0.2595  0.3507
15857TIP3    H168986   5.636   2.912  15.487  1.4045  0.7267 -0.0086
15857TIP3    H268987   5.535   2.981  15.398  1.2935 -0.0119 -0.4561
15858TIP3   OH268988   1.846   6.301   0.046 -0.3200 -0.2457  0.2780
15858TIP3    H168989   1.761   6.346   0.048  0.0796  0.5150  0.3912
15858TIP3    H268990   1.824   6.208   0.049 -1.2306 -0.1198 -1.6230
15859TIP3   OH268991   5.978   5.667  11.495  0.2505  0.4613  0.2163
15859TIP3    H168992   5.969   5.711  11.410  0.7515  0.2904  0.0748
15859TIP3    H268993   5.981   5.574  11.474  0.3952  0.4190  0.4206
15860TIP3   OH268994   4.393   6.660   2.996 -0.5227  0.0342  0.0527
15860TIP3    H168995   4.388   6.571   3.031  1.5961  0.2459  1.0020
15860TIP3    H268996   4.480   6.665   2.955 -0.6954  1.5913 -0.1598
15861TIP3   OH268997   4.756   4.966   0.709  0.4275 -0.1448 -0.1013
15861TIP3    H168998   4.676   4.926   0.743 -0.5681  0.5056 -1.5887
15861TIP3    H268999   4.795   4.899   0.653  0.3372 -0.0789 -0.2436
15862TIP3   OH269000   5.390   2.168  15.222 -0.4623  0.1266 -0.2236
15862TIP3    H169001   5.470   2.136  15.264 -0.7463 -0.7036 -0.3115
15862TIP3    H269002   5.327   2.097  15.234 -0.7569  0.1825 -1.4434
15863TIP3   OH269003   1.713   6.617   1.820  0.2682 -0.5155  0.0868
15863TIP3    H169004   1.685   6.538   1.773  1.2935 -0.7308 -0.1706
15863TIP3    H269005   1.678   6.606   1.908  1.2253 -1.7311  0.3340
15864TIP3   OH269006   4.626   0.183   2.934  0.6731 -0.3117 -0.0551
15864TIP3    H169007   4.671   0.198   3.017  1.0555  0.3873 -0.3831
15864TIP3    H269008   4.601   0.091   2.937  0.2373 -0.1699  1.0469
15865TIP3   OH269009   6.738   2.056   3.785 -0.0343 -0.5852  0.6337
15865TIP3    H169010   6.821   2.104   3.789 -1.3796  1.8048  0.5539
15865TIP3    H269011   6.727   2.036   3.692 -0.8126  1.4400  0.2602
15866TIP3   OH269012   4.679   0.668  12.247 -0.3390  0.5403 -0.0525
15866TIP3    H169013   4.610   0.606  12.273 -0.2227  0.6050  0.4140
15866TIP3    H269014   4.681   0.732  12.318 -0.1509  0.8278 -0.3187
15867TIP3   OH269015   0.943   1.153  12.866  0.7528 -0.0638 -0.0339
15867TIP3    H169016   0.868   1.194  12.822 -0.6632 -1.0362  1.4106
15867TIP3    H269017   0.974   1.220  12.927  0.4006 -0.0528  0.1300
15868TIP3   OH269018   4.623   3.891   3.666 -0.0349  0.1040  0.6293
15868TIP3    H169019   4.547   3.905   3.610 -0.1210 -0.3910  0.6194
15868TIP3    H269020   4.654   3.803   3.643  0.9302  0.5601  0.1664
15869TIP3   OH269021   0.549   5.730  13.322 -0.3112  0.0843 -0.5063
15869TIP3    H169022   0.635   5.766  13.344 -0.3289  1.2055 -2.1434
15869TIP3    H269023   0.556   5.707  13.229 -2.5016  2.4511 -1.3190
15870TIP3   OH269024   5.125   5.445   4.894 -0.1748 -0.2088 -0.2858
15870TIP3    H169025   5.213   5.445   4.858 -0.1163 -0.8574 -0.1584
15870TIP3    H269026   5.131   5.389   4.971 -0.2560  1.2770  0.8302
15871TIP3   OH269027   5.966   3.984  12.101  0.1119 -0.2740  1.0027
15871TIP3    H169028   6.004   4.063  12.140  1.0615 -0.7711  1.1093
15871TIP3    H269029   5.915   3.943  12.171 -1.1761  0.7420  0.6776
15872TIP3   OH269030   3.731   2.100   3.860  0.4734  0.2857 -0.5507
15872TIP3    H169031   3.676   2.154   3.803 -0.1637 -0.6815 -0.8620
15872TIP3    H269032   3.671   2.035   3.896  0.8519  0.9431  1.3057
15873TIP3   OH269033   3.603   6.093   5.009 -0.5934 -0.4149 -0.4285
15873TIP3    H169034   3.621   6.131   5.095  0.7327 -1.0027 -0.4344
15873TIP3    H269035   3.509   6.108   4.995 -0.5840  0.6598  0.6303
15874TIP3   OH269036   2.250   3.584   2.505 -0.0940  0.1236  0.1141
15874TIP3    H169037   2.342   3.604   2.518  0.0731 -0.6407  0.1245
15874TIP3    H269038   2.237   3.589   2.410  0.4032 -1.6155 -0.0725
15875TIP3   OH269039   5.042   0.279  12.917  0.1331  0.4221  0.1781
15875TIP3    H169040   4.957   0.322  12.927  0.6000  0.9695  1.9038
15875TIP3    H269041   5.102   0.349  12.894  0.4044  0.2645  0.4024
15876TIP3   OH269042   2.514   4.861   5.181  0.2748 -0.2653  0.4718
15876TIP3    H169043   2.434   4.810   5.167 -0.4164  0.9486 -0.0641
15876TIP3    H269044   2.582   4.795   5.198 -1.0501 -1.2727  2.0325
15877TIP3   OH269045   3.501   3.934   0.578 -0.1328  0.2231 -0.1439
15877TIP3    H169046   3.449   3.857   0.604  0.1492  0.1522  0.2027
15877TIP3    H269047   3.465   4.006   0.630 -0.0547  0.2253 -0.0932
15878TIP3   OH269048   5.845   6.563  13.679  0.0808  0.0087  0.2062
15878TIP3    H169049   5.831   6.634  13.617  1.1805 -0.2454 -0.3539
15878TIP3    H269050   5.930   6.527  13.654 -0.2950 -1.2490  0.7325
15879TIP3   OH269051   5.416   5.083  13.748 -0.1598 -0.3862 -0.3671
15879TIP3    H169052   5.325   5.095  13.720 -0.2619  1.3379  0.5815
15879TIP3    H269053   5.410   5.036  13.831 -0.4345  2.4665  1.3204
15880TIP3   OH269054   0.531   5.425   2.735  0.3410  0.3707  0.1946
15880TIP3    H169055   0.555   5.446   2.644  1.0686  0.0075  0.2987
15880TIP3    H269056   0.594   5.473   2.788  2.1988 -2.1987  0.4350
15881TIP3   OH269057   5.003   3.397  15.786  0.3968  0.0822  0.1628
15881TIP3    H169058   4.983   3.304  15.803 -0.8776  0.3860  0.3902
15881TIP3    H269059   4.977   3.442  15.867 -0.3334  0.8132 -0.4740
15882TIP3   OH269060   4.328   2.187  14.341  0.1746 -0.4548 -0.6773
15882TIP3    H169061   4.390   2.114  14.333  0.2023 -0.6063  0.8327
15882TIP3    H269062   4.276   2.166  14.418 -2.0302 -0.5019 -2.1335
15883TIP3   OH269063   0.448   6.304   1.909  0.0717 -0.5069 -0.4445
15883TIP3    H169064   0.382   6.245   1.945 -0.0458 -0.2383 -0.2128
15883TIP3    H269065   0.485   6.257   1.834  1.0992 -1.5402  0.6925
15884TIP3   OH269066   2.265   2.659  13.262 -0.5725  0.3672 -0.3180
15884TIP3    H169067   2.277   2.747  13.298  1.6627  0.5276 -1.3222
15884TIP3    H269068   2.179   2.662  13.220 -0.4321  2.1649 -0.5353
15885TIP3   OH269069   0.078   6.672   4.612  0.4069 -0.0164 -0.2156
15885TIP3    H169070   0.086   6.675   4.707 -0.9011  0.3534 -0.0971
15885TIP3    H269071   0.048   6.584   4.592 -1.6528  0.6267 -0.0630
15886TIP3   OH269072   2.557   4.764   6.805  0.2461 -0.0880 -0.2503
15886TIP3    H169073   2.533   4.690   6.749 -1.9596  1.4916 -1.4979
15886TIP3    H269074   2.476   4.786   6.852  0.7471  1.7153 -0.1784
15887TIP3   OH269075   3.353   1.006  11.526  0.0423 -0.1618 -0.1814
15887TIP3    H169076   3.437   0.978  11.563  0.6706  0.9936 -0.7219
15887TIP3    H269077   3.369   1.013  11.432 -0.9868 -1.0559 -0.4402
15888TIP3   OH269078   3.965   5.933  16.003 -0.3141  0.1389  0.4313
15888TIP3    H169079   4.050   5.915  15.963  0.0425  2.7265 -0.1185
15888TIP3    H269080   3.969   6.026  16.026 -3.4912  0.6782 -0.9018
15889TIP3   OH269081   1.129   1.743   1.105  0.1302 -0.1084 -0.3382
15889TIP3    H169082   1.077   1.815   1.069  0.5173 -0.4078 -1.5375
15889TIP3    H269083   1.093   1.729   1.192 -1.4346  0.0460 -0.9378
15890TIP3   OH269084   0.274   6.197  14.085  0.3641 -0.2724 -0.0485
15890TIP3    H169085   0.352   6.195  14.140  1.5884  0.3698 -1.6999
15890TIP3    H269086   0.263   6.106  14.056  0.6809 -0.3075 -0.0588
15891TIP3   OH269087   2.694   3.255   1.532  0.3189  0.0682  0.4153
15891TIP3    H169088   2.677   3.182   1.473 -1.2993  0.2974  0.5710
15891TIP3    H269089   2.711   3.215   1.617 -1.6965 -0.1084  0.7596
15892TIP3   OH269090   3.643   6.670  12.720 -0.0185  0.3482  0.4150
15892TIP3    H169091   3.657   6.582  12.686 -1.5242  1.2061 -2.5836
15892TIP3    H269092   3.722   6.719  12.696 -0.6872  0.7113 -1.0872
15893TIP3   OH269093   4.818   6.676  16.869 -0.2085  0.4829  0.4934
15893TIP3    H169094   4.824   6.769  16.847  0.0455  0.6354  1.2126
15893TIP3    H269095   4.724   6.656  16.864 -0.0738  0.2752 -1.7081
15894TIP3   OH269096   1.084   5.225  12.919 -0.2419 -0.3433  0.4808
15894TIP3    H169097   1.078   5.301  12.861  1.2274 -0.4618  0.1306
15894TIP3    H269098   1.167   5.237  12.965 -2.1792  0.6294  3.8851
15895TIP3   OH269099   0.862   1.817   3.549  0.2535  0.0369  0.1202
15895TIP3    H169100   0.810   1.758   3.494  0.3288  0.6112 -0.5746
15895TIP3    H269101   0.798   1.879   3.584  0.1613 -0.5156  0.9192
15896TIP3   OH269102   6.302   4.731  15.342  0.1048  0.0268  0.0777
15896TIP3    H169103   6.294   4.688  15.427  3.8002 -0.5945  0.1862
15896TIP3    H269104   6.301   4.660  15.279  0.6747  0.2296 -0.1584
15897TIP3   OH269105   0.918   2.862   4.740 -0.0698 -0.2998  0.4030
15897TIP3    H169106   0.881   2.944   4.773 -0.0405 -0.6737  1.3999
15897TIP3    H269107   0.890   2.796   4.804 -1.7524 -1.4063 -1.4123
15898TIP3   OH269108   1.154   4.741   2.136 -0.1067 -0.2320  0.0684
15898TIP3    H169109   1.172   4.810   2.072  2.2725 -1.4082 -0.5892
15898TIP3    H269110   1.150   4.660   2.084 -0.9219 -0.8444  1.0599
15899TIP3   OH269111   2.881   2.870   2.080  0.4443 -0.5087  0.3049
15899TIP3    H169112   2.973   2.895   2.083  0.0005  1.2462 -0.4054
15899TIP3    H269113   2.866   2.842   1.990  0.0225  0.1989  0.1570
15900TIP3   OH269114   5.562   6.522   3.798  0.6190 -0.4470 -0.0096
15900TIP3    H169115   5.536   6.551   3.885 -1.5168 -0.8435 -0.5052
15900TIP3    H269116   5.656   6.504   3.806  0.8218  1.2003  1.7391
15901TIP3   OH269117   3.800   2.445   5.086  0.9519 -0.0761  0.0774
15901TIP3    H169118   3.866   2.444   5.155 -0.0494  0.0180  1.0616
15901TIP3    H269119   3.841   2.493   5.014  1.4531  1.1970  1.1813
15902TIP3   OH269120   0.147   5.101   2.006  0.0367 -0.2348 -0.0983
15902TIP3    H169121   0.230   5.053   2.012  0.3339  0.2362 -0.4358
15902TIP3    H269122   0.092   5.045   1.950 -0.1665 -0.9579  0.8146
15903TIP3   OH269123   1.804   4.074   5.177 -0.0815 -0.3614  0.0704
15903TIP3    H169124   1.827   3.982   5.191  1.5352 -0.2273 -1.4170
15903TIP3    H269125   1.828   4.118   5.259 -0.0127 -1.1275  0.4618
15904TIP3   OH269126   5.162   6.572   5.115  0.0805 -0.2048  0.9227
15904TIP3    H169127   5.165   6.484   5.078 -0.3258  0.0007  0.3905
15904TIP3    H269128   5.174   6.630   5.040 -1.2461  0.2292  1.0363
15905TIP3   OH269129   0.123   3.108  14.828 -0.0910 -0.1151  0.0951
15905TIP3    H169130   0.123   3.013  14.833 -2.2698 -0.1596 -0.2883
15905TIP3    H269131   0.115   3.137  14.919  1.4956 -0.2791  0.2875
15906TIP3   OH269132   5.736   0.622  12.256  0.3904 -0.1843  0.3107
15906TIP3    H169133   5.806   0.655  12.313  2.2079  1.5555 -2.7559
15906TIP3    H269134   5.657   0.668  12.287  1.0212 -0.3897  2.3200
15907TIP3   OH269135   4.524   2.879   0.606 -0.1772 -0.1741 -0.3672
15907TIP3    H169136   4.493   2.876   0.516 -0.0280  1.8855 -0.5302
15907TIP3    H269137   4.620   2.884   0.598 -0.1448 -0.3336 -0.0889
15908TIP3   OH269138   6.755   6.549   3.921 -0.0151  0.5368  0.2989
15908TIP3    H169139   6.718   6.637   3.927 -1.6097 -0.0574 -0.5739
15908TIP3    H269140   6.702   6.505   3.855  0.0812 -1.4316  1.4992
15909TIP3   OH269141   6.381   5.787  11.965 -0.1431  0.7836 -0.5523
15909TIP3    H169142   6.456   5.801  11.907  1.0245  1.4688  1.0768
15909TIP3    H269143   6.414   5.730  12.034 -1.6047 -0.2841 -0.7114
15910TIP3   OH269144   0.642   1.379   3.583  0.1296  0.1528  0.0856
15910TIP3    H169145   0.554   1.415   3.593 -0.0299 -0.2007 -0.0387
15910TIP3    H269146   0.673   1.366   3.673 -1.0577 -2.4227  0.1702
15911TIP3   OH269147   1.113   4.155  16.790  0.1636 -0.3819  0.4084
15911TIP3    H169148   1.061   4.192  16.718  0.6338  0.0325  0.2813
15911TIP3    H269149   1.054   4.157  16.865  0.0911  0.3980  0.3429
15912TIP3   OH269150   4.953   5.167  12.184  0.1987 -0.0841 -0.6343
15912TIP3    H169151   5.036   5.121  12.176 -0.8899 -2.1270 -0.6385
15912TIP3    H269152   4.970   5.255  12.150  2.3497 -0.4495 -0.5498
15913TIP3   OH269153   1.831   3.139  16.070  0.8376  0.0097 -0.2099
15913TIP3    H169154   1.736   3.134  16.067  0.8505 -1.1637  0.7933
15913TIP3    H269155   1.852   3.130  16.163  1.9031  0.8396 -0.3639
15914TIP3   OH269156   6.116   0.578  13.277  0.0301  0.0346  0.3302
15914TIP3    H169157   6.155   0.644  13.219  0.3672  1.4627  2.1330
15914TIP3    H269158   6.172   0.501  13.266  1.1547  0.8667  0.1046
15915TIP3   OH269159   0.839   0.711  14.958 -0.4364  0.0761 -0.1390
15915TIP3    H169160   0.788   0.634  14.984 -0.2806 -0.6291 -1.8696
15915TIP3    H269161   0.854   0.758  15.040 -0.6328 -1.6746  0.9285
15916TIP3   OH269162   5.238   4.876   3.442  0.4355 -0.0093 -0.3016
15916TIP3    H169163   5.228   4.828   3.525 -1.2163 -0.7012 -0.8651
15916TIP3    H269164   5.197   4.818   3.377 -0.7957  1.7801 -1.1432
15917TIP3   OH269165   1.827   1.683  12.128 -0.9265 -0.0753 -0.1118
15917TIP3    H169166   1.859   1.758  12.078 -1.5788  0.1658 -0.1731
15917TIP3    H269167   1.760   1.719  12.185  1.3787  0.0620  2.6035
15918TIP3   OH269168   3.288   4.807   2.586 -0.2558 -0.2354  0.5563
15918TIP3    H169169   3.291   4.878   2.650  0.4344 -0.8104  1.1705
15918TIP3    H269170   3.201   4.815   2.546 -0.2986  0.7610  0.8327
15919TIP3   OH269171   3.425   5.267   4.189 -0.7315 -0.4144  0.3249
15919TIP3    H169172   3.348   5.310   4.227 -0.9911  0.5412 -1.2558
15919TIP3    H269173   3.423   5.291   4.097  1.9047  0.2691  0.4141
15920TIP3   OH269174   0.429   0.955  16.491  0.2218  0.5189 -0.6294
15920TIP3    H169175   0.477   0.965  16.409 -0.3618 -0.5964 -1.1234
15920TIP3    H269176   0.491   0.981  16.559  1.3189 -0.3108 -1.2985
15921TIP3   OH269177   2.871   2.352  11.414 -0.3682  0.1304 -0.3283
15921TIP3    H169178   2.795   2.313  11.371  1.4721 -1.1230 -2.5433
15921TIP3    H269179   2.887   2.432  11.365  1.5022 -1.1102 -1.8303
15922TIP3   OH269180   0.886   4.578   2.082  0.1526 -0.5393  0.1703
15922TIP3    H169181   0.866   4.637   2.009 -2.2679 -0.1146  1.1124
15922TIP3    H269182   0.937   4.631   2.143  0.2915 -0.2257 -0.2155
15923TIP3   OH269183   5.850   2.419  12.588  0.5137  0.1587  0.0243
15923TIP3    H169184   5.837   2.325  12.601  0.8908 -0.0648 -1.1375
15923TIP3    H269185   5.771   2.459  12.624 -0.3853 -0.7257 -0.9193
15924TIP3   OH269186   4.759   0.508   3.107  0.2786  0.0733  0.2515
15924TIP3    H169187   4.848   0.537   3.084  0.6481  0.0122  1.5963
15924TIP3    H269188   4.772   0.446   3.178 -0.9505  1.1592  1.4375
15925TIP3   OH269189   1.564   0.847  15.443 -0.0892  0.0148 -0.2315
15925TIP3    H169190   1.572   0.815  15.533 -0.4023  0.6418  0.0221
15925TIP3    H269191   1.641   0.813  15.398 -0.4735 -1.1994  0.0031
15926TIP3   OH269192   4.225   1.011   4.584 -0.8464  0.2098  0.0044
15926TIP3    H169193   4.155   1.044   4.641 -1.3242  0.0541 -0.4800
15926TIP3    H269194   4.220   0.916   4.592  1.4417  0.2472  2.4748
15927TIP3   OH269195   2.469   0.422  13.895 -0.0079  0.2974  0.3329
15927TIP3    H169196   2.535   0.413  13.827 -0.4857 -0.4517 -0.0393
15927TIP3    H269197   2.488   0.352  13.957 -0.2368  0.3059  0.4142
15928TIP3   OH269198   4.346   3.453  13.839 -0.2979  0.4242 -0.3958
15928TIP3    H169199   4.307   3.457  13.751 -0.6173 -0.7473 -0.3196
15928TIP3    H269200   4.295   3.516  13.891 -0.5130  0.6639 -0.8968
15929TIP3   OH269201   1.482   0.632  14.772  0.1184  0.4183  0.3208
15929TIP3    H169202   1.548   0.566  14.794  0.2070  0.2209 -0.5133
15929TIP3    H269203   1.414   0.583  14.726  0.4365  0.9974 -0.7845
15930TIP3   OH269204   3.355   1.181   5.342 -0.1383  0.6811  0.2701
15930TIP3    H169205   3.356   1.222   5.255  1.6358 -1.9442 -1.0293
15930TIP3    H269206   3.275   1.128   5.342  1.0996 -1.2654 -0.7889
15931TIP3   OH269207   0.014   0.460  10.864 -0.4296  0.2930 -0.1615
15931TIP3    H169208   0.052   0.464  10.776  0.3969 -1.9452  0.0615
15931TIP3    H269209   0.051   0.536  10.909  0.4076  0.5568 -1.2529
15932TIP3   OH269210   2.961   5.928  15.540 -0.2006 -0.0741 -0.1619
15932TIP3    H169211   2.869   5.906  15.523 -0.0158 -0.6537 -0.4208
15932TIP3    H269212   2.962   5.962  15.629 -0.7459  0.3820 -0.3263
15933TIP3   OH269213   3.695   1.812   4.942  0.2297  0.0266  0.8314
15933TIP3    H169214   3.617   1.830   4.890 -0.0341 -2.2944  0.3746
15933TIP3    H269215   3.661   1.793   5.030  0.5536  2.2190  1.4748
15934TIP3   OH269216   6.711   0.206  15.463  0.4461 -0.2756 -0.5730
15934TIP3    H169217   6.675   0.282  15.507 -0.5130 -0.1111 -1.6266
15934TIP3    H269218   6.654   0.134  15.489  0.6853 -0.4294 -0.4703
15935TIP3   OH269219   6.540   5.792  15.255  0.5049 -0.1786  0.3881
15935TIP3    H169220   6.630   5.766  15.275  0.3976 -0.6414  0.2787
15935TIP3    H269221   6.527   5.767  15.164  0.1510 -0.4437  0.5056
15936TIP3   OH269222   2.378   0.593   3.940 -0.5770 -0.0784 -0.0086
15936TIP3    H169223   2.380   0.560   4.030 -1.0793  0.8183  0.3400
15936TIP3    H269224   2.285   0.596   3.918 -0.5888  1.5001  0.1383
15937TIP3   OH269225   5.554   3.707   5.531 -0.0819  0.5340  0.0337
15937TIP3    H169226   5.609   3.784   5.550 -0.0129  0.7225 -0.8837
15937TIP3    H269227   5.565   3.651   5.607 -0.8984  1.8702  1.1601
15938TIP3   OH269228   2.472   5.579   1.285  0.6291 -0.3294  0.2320
15938TIP3    H169229   2.506   5.489   1.290 -0.5486 -0.7989  0.0466
15938TIP3    H269230   2.453   5.592   1.192 -0.4046 -0.3578  0.4284
15939TIP3   OH269231   1.696   6.144  16.243 -0.2253  0.3616 -0.2071
15939TIP3    H169232   1.783   6.114  16.217 -0.8245 -0.8904 -0.7908
15939TIP3    H269233   1.710   6.187  16.327  0.9044 -0.0749 -0.1633
15940TIP3   OH269234   1.507   4.567  13.930  0.1127 -1.1174  0.1523
15940TIP3    H169235   1.437   4.604  13.876  1.9500 -0.1558 -1.6377
15940TIP3    H269236   1.531   4.638  13.990  0.3786 -1.0282 -0.0585
15941TIP3   OH269237   2.547   3.762  14.792  0.4163 -0.3360  0.0595
15941TIP3    H169238   2.506   3.720  14.868 -2.5480  1.3290 -0.5575
15941TIP3    H269239   2.493   3.737  14.718  1.0950  1.1168 -0.9412
15942TIP3   OH269240   3.513   6.488  12.107 -0.1227  0.0004  0.0620
15942TIP3    H169241   3.520   6.485  12.203 -1.3014 -0.6464  0.1411
15942TIP3    H269242   3.604   6.490  12.076  0.2609  0.9276  1.2116
15943TIP3   OH269243   0.532   2.884   2.896  0.1137 -0.8070  0.3030
15943TIP3    H169244   0.503   2.856   2.983  0.4774  1.0702  1.0637
15943TIP3    H269245   0.628   2.879   2.901  0.1915  0.8599  0.5648
15944TIP3   OH269246   3.346   3.987   2.378  0.0905  0.2368 -0.5678
15944TIP3    H169247   3.294   4.065   2.395 -1.2724 -0.8896  0.5793
15944TIP3    H269248   3.393   3.970   2.460  0.6232  0.0233 -0.9107
15945TIP3   OH269249   3.595   1.482   2.215 -0.1215 -0.0929  0.2548
15945TIP3    H169250   3.568   1.569   2.185  2.4463  0.0804 -1.8069
15945TIP3    H269251   3.690   1.487   2.218  0.0266 -2.6816  0.6211
15946TIP3   OH269252   1.003   6.307  14.515  0.3020 -0.3276  0.0383
15946TIP3    H169253   1.088   6.340  14.485  0.5224 -1.0941 -0.1926
15946TIP3    H269254   0.963   6.270  14.436  0.5470 -1.6396  0.5173
15947TIP3   OH269255   3.995   4.523  13.865 -0.3737 -0.0780  0.7351
15947TIP3    H169256   3.997   4.428  13.855 -2.1037 -0.0898  0.3290
15947TIP3    H269257   4.025   4.557  13.780 -1.5245 -0.2717  0.2340
15948TIP3   OH269258   3.164   1.151   6.773  0.1993  0.3210 -0.0489
15948TIP3    H169259   3.135   1.116   6.689 -0.6233  0.2243  0.2638
15948TIP3    H269260   3.259   1.155   6.767  0.2296 -1.0245 -0.4472
15949TIP3   OH269261   5.663   2.554   6.001  0.4346 -0.2823 -0.1456
15949TIP3    H169262   5.721   2.488   6.040  0.8009 -0.6942 -1.3621
15949TIP3    H269263   5.650   2.619   6.070  2.1611 -0.3030  0.2054
15950TIP3   OH269264   4.451   3.167   2.369 -0.3614  0.1724 -0.2279
15950TIP3    H169265   4.453   3.207   2.282 -1.7125 -0.7975 -0.7416
15950TIP3    H269266   4.364   3.127   2.374  0.0300 -0.5254  1.2307
15951TIP3   OH269267   6.526   2.949   0.671 -0.0495 -0.5474 -0.0944
15951TIP3    H169268   6.611   2.905   0.665  0.5125  0.6711 -1.3653
15951TIP3    H269269   6.490   2.920   0.755  1.5018 -1.2887  0.3375
15952TIP3   OH269270   3.199   0.118   1.952 -0.4235 -0.0631 -0.0751
15952TIP3    H169271   3.209   0.096   2.045  1.3259  0.5842 -0.0916
15952TIP3    H269272   3.234   0.207   1.945  1.6782 -0.9818 -1.7550
15953TIP3   OH269273   1.362   1.954  14.295 -0.5829 -0.7485  0.0969
15953TIP3    H169274   1.349   1.992  14.382 -2.4455 -2.2144  0.5098
15953TIP3    H269275   1.273   1.938  14.263  0.1123 -1.8632 -1.3346
15954TIP3   OH269276   1.196   3.612  11.399 -0.0158  0.0001  0.6071
15954TIP3    H169277   1.197   3.658  11.483  1.6626  0.2122  0.4753
15954TIP3    H269278   1.288   3.593  11.380 -0.0733  2.3712 -2.4889
15955TIP3   OH269279   0.508   6.079   0.591  0.0266  0.0066 -0.3561
15955TIP3    H169280   0.445   6.059   0.661 -1.2191  2.5202 -0.6839
15955TIP3    H269281   0.575   6.133   0.634 -0.0455  0.4477 -0.7879
15956TIP3   OH269282   3.388   3.341  13.642 -0.0485  0.0486 -0.4350
15956TIP3    H169283   3.370   3.326  13.549  0.5474 -1.0734 -0.3807
15956TIP3    H269284   3.324   3.286  13.687  0.3457 -0.2081 -0.1922
15957TIP3   OH269285   2.772   0.108   0.711  0.2649 -0.1989  0.0491
15957TIP3    H169286   2.733   0.077   0.793  1.6133 -1.7268  0.1304
15957TIP3    H269287   2.715   0.074   0.643 -3.4436  4.7140  0.3784
15958TIP3   OH269288   5.160   4.832  11.364 -0.0089 -0.3527  0.4756
15958TIP3    H169289   5.212   4.847  11.285  1.2802 -1.6175  1.0603
15958TIP3    H269290   5.205   4.880  11.433 -0.0930 -0.7409  0.8085
15959TIP3   OH269291   5.724   1.859   1.510 -0.1481  0.4791 -0.3440
15959TIP3    H169292   5.690   1.804   1.440  1.0754 -0.4895 -0.2110
15959TIP3    H269293   5.678   1.828   1.589 -2.0017  2.0101 -0.7962
15960TIP3   OH269294   1.990   4.729   1.142  0.3400  0.7118  0.0416
15960TIP3    H169295   2.000   4.715   1.048  0.9512  3.4439 -0.3496
15960TIP3    H269296   2.043   4.661   1.182 -0.3021 -0.7741 -1.5638
15961TIP3   OH269297   1.770   2.661  16.289  0.6116 -0.1103 -0.1635
15961TIP3    H169298   1.758   2.743  16.337 -1.4688 -0.1094 -0.6273
15961TIP3    H269299   1.682   2.622  16.287  1.2779 -1.5826 -1.2977
15962TIP3   OH269300   3.999   5.806  15.413  0.0258 -0.1327 -0.5800
15962TIP3    H169301   3.943   5.730  15.399 -0.0608 -0.1838  0.0489
15962TIP3    H269302   4.011   5.811  15.508  0.5282  0.2809 -0.6616
15963TIP3   OH269303   0.328   0.642   3.991  0.1483  0.7695 -0.0933
15963TIP3    H169304   0.260   0.708   4.002  1.1057  2.2146 -2.5185
15963TIP3    H269305   0.408   0.684   4.022  0.0531 -0.8503  2.5438
15964TIP3   OH269306   1.718   6.756  12.317 -0.1375  0.5323  0.7597
15964TIP3    H169307   1.788   6.818  12.298  0.3333 -0.2802 -0.2180
15964TIP3    H269308   1.642   6.810  12.337  0.4383  1.4167  0.5579
15965TIP3   OH269309   0.571   0.232   1.995  0.3446 -0.0409  0.6386
15965TIP3    H169310   0.542   0.199   2.080  1.1874  1.3400  1.4854
15965TIP3    H269311   0.592   0.154   1.945 -1.3332 -0.9177  1.2710
15966TIP3   OH269312   0.528   5.460   2.464 -0.2719  0.0819 -0.5364
15966TIP3    H169313   0.512   5.505   2.381 -1.6002  0.0759 -0.2944
15966TIP3    H269314   0.589   5.390   2.443  1.0017  1.3368 -1.1210
15967TIP3   OH269315   3.871   0.130   1.586  0.8267  0.2848 -0.1788
15967TIP3    H169316   3.910   0.086   1.662 -0.3715  0.4282  0.5377
15967TIP3    H269317   3.813   0.064   1.548  0.7401  0.5115 -0.4386
15968TIP3   OH269318   0.807   3.059  13.813 -0.0013 -0.2096  1.2803
15968TIP3    H169319   0.879   3.025  13.759  0.7349  0.3637  1.9006
15968TIP3    H269320   0.835   3.044  13.903 -1.6195 -1.9814  1.5262
15969TIP3   OH269321   2.103   4.414   5.503  0.5046  0.2762  0.0100
15969TIP3    H169322   2.183   4.464   5.488  1.3988 -0.7924  1.2041
15969TIP3    H269323   2.133   4.327   5.528 -1.0368 -0.1186  0.5214
15970TIP3   OH269324   4.317   4.883  14.830  0.1846 -0.6872  0.6837
15970TIP3    H169325   4.356   4.797  14.846  0.0247 -0.7427  0.7737
15970TIP3    H269326   4.381   4.945  14.865  1.0478 -0.7009 -0.8564
15971TIP3   OH269327   5.738   4.432  16.692  0.5534 -0.1581  0.4854
15971TIP3    H169328   5.648   4.402  16.705  0.8980 -1.0540  0.8891
15971TIP3    H269329   5.734   4.490  16.616 -0.0377 -1.7423 -0.7181
15972TIP3   OH269330   1.725   0.196   6.127  0.0867  0.5765 -0.5773
15972TIP3    H169331   1.692   0.120   6.175 -2.4926  2.1721  0.2238
15972TIP3    H269332   1.795   0.160   6.073 -0.2270 -2.1506  0.7154
15973TIP3   OH269333   5.925   4.729   1.024  0.0038 -0.0886  0.5237
15973TIP3    H169334   5.862   4.675   1.071  1.3151 -2.1242 -0.0042
15973TIP3    H269335   5.940   4.682   0.942  0.2557  1.7197 -0.4876
15974TIP3   OH269336   0.655   1.222  14.719  0.2746  0.0022 -0.1586
15974TIP3    H169337   0.704   1.171  14.784 -1.5976  0.0096  1.3118
15974TIP3    H269338   0.722   1.259  14.661  1.9002 -0.9886  1.0498
15975TIP3   OH269339   4.884   6.155   2.878 -0.2099  0.2215 -0.4486
15975TIP3    H169340   4.791   6.166   2.899 -0.2806 -0.1595 -0.5672
15975TIP3    H269341   4.893   6.191   2.790 -0.0851  1.0074 -0.1210
15976TIP3   OH269342   4.079   5.709  10.781 -0.3876  0.2208  0.3756
15976TIP3    H169343   4.009   5.660  10.739  0.5235  0.2738 -1.2329
15976TIP3    H269344   4.148   5.644  10.797  1.3277  1.1671 -2.8952
15977TIP3   OH269345   4.783   4.774  12.514  0.3117  0.6188 -0.0785
15977TIP3    H169346   4.773   4.832  12.438 -0.8400 -0.9103 -1.1143
15977TIP3    H269347   4.694   4.759  12.545  0.4393 -1.9671 -0.8636
15978TIP3   OH269348   5.645   0.156   1.006 -0.8807 -0.3781 -0.4645
15978TIP3    H169349   5.610   0.215   1.073  0.7743  1.5271 -1.2527
15978TIP3    H269350   5.658   0.073   1.052  1.3932  1.2410  1.9263
15979TIP3   OH269351   0.202   2.051   6.398  0.0008  0.3744 -0.2839
15979TIP3    H169352   0.232   1.961   6.413 -0.0880  0.5580  1.1082
15979TIP3    H269353   0.114   2.053   6.437 -0.3963  0.8066 -1.1825
15980TIP3   OH269354   4.945   4.930   3.313 -0.5209  0.3476 -0.2846
15980TIP3    H169355   4.970   4.991   3.384 -2.2321  0.5316  0.1708
15980TIP3    H269356   4.873   4.879   3.349  0.7083 -1.8002 -0.7687
15981TIP3   OH269357   1.611   2.441   2.045  0.1988 -0.1557 -0.5089
15981TIP3    H169358   1.621   2.347   2.029  0.1564 -0.3641  0.6404
15981TIP3    H269359   1.701   2.473   2.056  0.1306 -0.3681  0.7362
15982TIP3   OH269360   1.417   4.402  13.093 -0.0663 -0.0520 -0.0028
15982TIP3    H169361   1.379   4.449  13.018  1.3737 -2.4987 -2.3488
15982TIP3    H269362   1.348   4.404  13.159 -1.9420  0.9477 -1.9142
15983TIP3   OH269363   3.915   2.771  12.822  0.1873  0.4698  0.1272
15983TIP3    H169364   3.880   2.748  12.908  1.2604  1.5412  0.8560
15983TIP3    H269365   3.897   2.864  12.812 -0.3517  0.2551 -1.0135
15984TIP3   OH269366   2.259   1.652  16.520 -0.1216 -0.0164 -0.1900
15984TIP3    H169367   2.168   1.649  16.551  0.8888 -1.5016  2.8173
15984TIP3    H269368   2.290   1.740  16.544 -0.6552  0.3746 -0.9195
15985TIP3   OH269369   1.487   2.879   3.827 -0.1204  0.1771 -0.1548
15985TIP3    H169370   1.424   2.881   3.900  0.2860  1.3256  0.1769
15985TIP3    H269371   1.557   2.937   3.856  2.5974 -3.4547  0.8277
15986TIP3   OH269372   0.610   1.804   2.134 -0.1710  0.0400  0.1170
15986TIP3    H169373   0.651   1.718   2.122  0.4006  0.2017  0.8879
15986TIP3    H269374   0.537   1.787   2.195 -0.5785 -0.0458 -0.3882
15987TIP3   OH269375   4.750   1.262   1.183  0.3238 -0.8510  0.8084
15987TIP3    H169376   4.797   1.200   1.239  0.6088 -1.2610  0.1197
15987TIP3    H269377   4.775   1.348   1.216  2.2556 -1.0412 -0.0944
15988TIP3   OH269378   4.262   3.289   4.756 -0.7767  0.1519  0.0677
15988TIP3    H169379   4.325   3.356   4.729 -1.7002  1.8042  1.9315
15988TIP3    H269380   4.179   3.317   4.718 -0.8930 -0.6825 -0.2987
15989TIP3   OH269381   0.564   5.931   0.382  0.5631 -0.3924 -0.1170
15989TIP3    H169382   0.504   5.959   0.312 -0.0371 -0.4647  0.3650
15989TIP3    H269383   0.526   5.968   0.462  0.0311 -2.1771  0.4740
15990TIP3   OH269384   2.094   2.806  12.081  0.0939 -0.2691 -0.4939
15990TIP3    H169385   2.121   2.812  11.990  0.6044 -0.3248 -0.3515
15990TIP3    H269386   2.142   2.876  12.125  0.3778 -0.6734 -0.1490
15991TIP3   OH269387   3.057   4.850   4.477  0.1549  0.6098 -0.8043
15991TIP3    H169388   2.974   4.803   4.469  1.3786 -1.4342 -1.8657
15991TIP3    H269389   3.107   4.799   4.540  1.6446  0.2751 -2.2437
15992TIP3   OH269390   4.283   5.388   1.837 -0.0492  0.6968 -0.0186
15992TIP3    H169391   4.212   5.364   1.776 -0.0684 -0.1312  0.3271
15992TIP3    H269392   4.245   5.457   1.891 -0.1335  1.2324 -0.7492
15993TIP3   OH269393   1.120   3.716  15.112 -0.6145 -0.0007  1.0101
15993TIP3    H169394   1.138   3.714  15.018  1.7574 -0.5048  1.4463
15993TIP3    H269395   1.041   3.663  15.122 -0.2483 -0.8862 -0.5814
15994TIP3   OH269396   3.074   5.726   4.017 -0.7827 -0.6508  0.7629
15994TIP3    H169397   3.006   5.674   4.061 -2.2521  0.3140 -0.2826
15994TIP3    H269398   3.087   5.801   4.074 -1.3230 -0.3418  0.4845
15995TIP3   OH269399   6.079   3.608   2.390  0.2643 -0.0572  0.6245
15995TIP3    H169400   6.041   3.625   2.304 -0.2562 -1.0145  0.6566
15995TIP3    H269401   6.088   3.695   2.430 -0.7834  0.2882  0.1391
15996TIP3   OH269402   5.135   1.175  17.167  0.6718  0.7131  0.4806
15996TIP3    H169403   5.056   1.122  17.169  0.5753  0.8028 -0.6652
15996TIP3    H269404   5.138   1.219  17.252 -0.4544  0.6375  0.5531
15997TIP3   OH269405   5.116   1.180   1.023 -0.5815  0.2454 -0.0891
15997TIP3    H169406   5.111   1.263   0.976 -2.3570 -0.2499 -0.8152
15997TIP3    H269407   5.070   1.118   0.967  0.9029 -1.2875  0.3504
15998TIP3   OH269408   5.005   5.638  12.740  0.1738  0.1156 -0.6467
15998TIP3    H169409   4.961   5.554  12.754  1.3326 -0.3704  0.2028
15998TIP3    H269410   4.980   5.664  12.652 -1.3518 -0.4159 -0.3868
15999TIP3   OH269411   6.411   0.586   2.340 -0.0419  0.0999 -0.1159
15999TIP3    H169412   6.418   0.563   2.247 -0.6357  1.7478 -0.5884
15999TIP3    H269413   6.427   0.504   2.386  2.6616 -0.2548 -1.5928
16000TIP3   OH269414   3.115   3.491   7.004  0.0283 -0.1061 -0.1324
16000TIP3    H169415   3.143   3.502   7.095  1.1616 -0.4181 -0.4340
16000TIP3    H269416   3.150   3.406   6.979  1.2196  0.7342 -1.3936
16001TIP3   OH269417   5.876   3.453  16.719 -0.1958 -0.4038  0.5782
16001TIP3    H169418   5.824   3.407  16.785 -0.6694  0.1962  0.6345
16001TIP3    H269419   5.898   3.387  16.654 -0.4091 -0.8208  0.9328
16002TIP3   OH269420   1.276   5.962  16.222 -0.5740  0.0896 -0.3888
16002TIP3    H169421   1.350   5.935  16.167  0.9160 -0.5317  1.8750
16002TIP3    H269422   1.310   6.036  16.273 -1.3899 -0.4718  0.9723
16003TIP3   OH269423   0.220   3.655   0.729  0.2524  0.7639 -0.3129
16003TIP3    H169424   0.133   3.646   0.768 -0.5011  0.3182 -2.0146
16003TIP3    H269425   0.274   3.692   0.798 -1.1277  0.3970  0.9934
16004TIP3   OH269426   0.530   1.431   2.990  0.0309 -0.0613 -0.3977
16004TIP3    H169427   0.476   1.506   2.964  0.2876 -0.0757 -0.9742
16004TIP3    H269428   0.467   1.360   3.003 -0.2761  0.4014  0.7220
16005TIP3   OH269429   1.640   0.563  13.831 -0.3097  0.1245 -0.1967
16005TIP3    H169430   1.698   0.518  13.770 -1.3807 -2.2445  0.4965
16005TIP3    H269431   1.569   0.597  13.777 -1.7129 -2.7191 -0.2144
16006TIP3   OH269432   4.242   5.754   4.353  0.3182 -0.2126 -0.2596
16006TIP3    H169433   4.216   5.806   4.276  0.6611  2.1538  1.1805
16006TIP3    H269434   4.176   5.775   4.419  0.9079 -1.0223  0.5906
16007TIP3   OH269435   6.336   3.634   2.570  0.9041 -0.2301 -0.8030
16007TIP3    H169436   6.315   3.688   2.494 -0.0350  1.2029  0.4505
16007TIP3    H269437   6.427   3.653   2.589  0.8057  0.3171 -0.8617
16008TIP3   OH269438   0.670   2.681   5.785  0.1502  0.0528 -0.0487
16008TIP3    H169439   0.614   2.746   5.829  0.8930 -0.3856  1.5670
16008TIP3    H269440   0.759   2.703   5.813  0.3758 -1.8783  0.8351
16009TIP3   OH269441   0.746   1.085  12.404 -0.6877 -0.0269  0.2754
16009TIP3    H169442   0.656   1.109  12.426 -0.0450  3.2873 -0.3451
16009TIP3    H269443   0.799   1.156  12.440  1.3491 -0.1379 -2.3580
16010TIP3   OH269444   0.901   3.377  16.677 -0.4232 -0.0738 -0.4298
16010TIP3    H169445   0.883   3.298  16.729  0.5965  1.2737  2.0544
16010TIP3    H269446   0.816   3.419  16.667 -0.5222  0.0628  0.8891
16011TIP3   OH269447   1.293   4.499   0.863 -0.3888 -0.0006  0.0906
16011TIP3    H169448   1.386   4.492   0.842 -0.4894  0.2396 -0.4310
16011TIP3    H269449   1.268   4.587   0.834 -0.9333 -0.3063 -0.3868
16012TIP3   OH269450   4.563   0.740  10.680  0.0597  0.3254 -0.2590
16012TIP3    H169451   4.610   0.771  10.757  0.1602 -0.1851 -0.1133
16012TIP3    H269452   4.513   0.665  10.711  1.5553 -1.0517 -1.1006
16013TIP3   OH269453   6.035   6.102  15.025  0.0141 -0.3997  0.1754
16013TIP3    H169454   6.017   6.041  14.953 -0.5986  0.1431 -0.1435
16013TIP3    H269455   6.001   6.186  14.994  1.3082  0.2124  0.4125
16014TIP3   OH269456   3.088   0.574  15.135 -0.6842  0.0774 -0.5230
16014TIP3    H169457   3.059   0.660  15.104 -2.6025 -0.5092 -0.3956
16014TIP3    H269458   3.070   0.576  15.229  0.8574  0.1476 -0.2116
16015TIP3   OH269459   5.677   4.689   6.078  0.0043 -0.4200 -0.7992
16015TIP3    H169460   5.619   4.614   6.068 -0.4406 -0.0261 -1.1785
16015TIP3    H269461   5.622   4.765   6.057  1.0899 -0.1633 -2.7934
16016TIP3   OH269462   3.789   1.188   2.878  0.1993  0.0111  0.4388
16016TIP3    H169463   3.881   1.205   2.859 -0.2167  0.3413 -1.3809
16016TIP3    H269464   3.781   1.093   2.874  0.3244  0.0213 -0.0533
16017TIP3   OH269465   5.000   5.265  15.761  0.2640 -0.6437 -0.3156
16017TIP3    H169466   5.053   5.315  15.823 -1.8940  3.5813 -1.6861
16017TIP3    H269467   5.038   5.286  15.676  0.1748 -2.5332 -0.8439
16018TIP3   OH269468   1.994   0.196   1.862  0.2954 -0.5925 -0.3118
16018TIP3    H169469   2.059   0.141   1.818  0.8791  0.5765 -0.9102
16018TIP3    H269470   2.029   0.284   1.857 -1.4917  0.1062 -0.9479
16019TIP3   OH269471   6.654   5.474   3.420  0.8062  0.4604 -0.0259
16019TIP3    H169472   6.633   5.382   3.407  0.1833  0.3988  1.2578
16019TIP3    H269473   6.750   5.478   3.418  0.7990 -0.0134 -1.3009
16020TIP3   OH269474   2.235   0.915  16.668  0.0874 -1.0793 -0.2081
16020TIP3    H169475   2.289   0.954  16.737  0.0499 -0.6176 -0.4426
16020TIP3    H269476   2.212   0.988  16.611 -1.6305 -1.1046  0.4391
16021TIP3   OH269477   3.999   5.248  15.792 -0.6204 -0.1798  0.4450
16021TIP3    H169478   3.950   5.298  15.727  0.9575  0.7654 -0.0301
16021TIP3    H269479   4.089   5.250  15.761 -0.0692 -0.8341  1.9759
16022TIP3   OH269480   5.598   0.128  11.269 -0.0978  0.3712 -0.0233
16022TIP3    H169481   5.523   0.070  11.285  1.3018 -0.8250  2.6581
16022TIP3    H269482   5.637   0.094  11.189 -0.8902 -0.6790  0.0186
16023TIP3   OH269483   5.075   4.035  16.668  0.0670  0.1754 -0.1216
16023TIP3    H169484   5.094   3.951  16.710 -0.3422 -0.1504 -0.5893
16023TIP3    H269485   5.154   4.055  16.618  0.0807 -0.0307 -0.1838
16024TIP3   OH269486   1.607   4.031   2.537  0.4218 -0.3555  0.1053
16024TIP3    H169487   1.564   3.989   2.611  0.6718 -0.3277  0.2678
16024TIP3    H269488   1.695   3.994   2.536  0.2505 -0.7552 -0.5037
16025TIP3   OH269489   2.252   2.009   4.155  0.3010  0.2741  0.0158
16025TIP3    H169490   2.250   1.914   4.141 -0.8430  0.1506  1.0036
16025TIP3    H269491   2.191   2.024   4.227  0.5093  1.7636 -0.1133
16026TIP3   OH269492   2.286   5.860  13.591  0.2122  0.0095  0.0781
16026TIP3    H169493   2.358   5.801  13.613  1.5609  1.5161 -0.2733
16026TIP3    H269494   2.250   5.887  13.676 -1.6742 -2.7864  0.2449
16027TIP3   OH269495   0.487   2.351  16.074  0.4256 -0.0495 -0.1359
16027TIP3    H169496   0.575   2.379  16.101  0.8395 -1.5875  0.1635
16027TIP3    H269497   0.468   2.275  16.129 -0.7849 -0.1946 -0.7378
16028TIP3   OH269498   6.664   1.524   4.416  0.0598  0.4315  0.1300
16028TIP3    H169499   6.711   1.590   4.365  0.5825 -0.4549 -0.5520
16028TIP3    H269500   6.728   1.454   4.429 -0.9111 -0.5687 -0.3767
16029TIP3   OH269501   5.583   2.270  10.857  0.0964  0.5361 -0.2432
16029TIP3    H169502   5.674   2.292  10.877 -0.1459  1.0555  0.3086
16029TIP3    H269503   5.560   2.329  10.785 -0.2726  1.4911  0.6381
16030TIP3   OH269504   1.805   0.182   5.802  0.1569 -0.0366  0.1257
16030TIP3    H169505   1.763   0.179   5.716 -0.4594 -1.4699  0.4512
16030TIP3    H269506   1.741   0.226   5.858  1.1169  2.0948 -0.4335
16031TIP3   OH269507   6.050   4.535  14.827  0.0446 -0.5002  0.1841
16031TIP3    H169508   6.005   4.614  14.796  0.3121 -1.2990 -2.3605
16031TIP3    H269509   6.141   4.561  14.836 -0.1547 -0.0746  0.9670
16032TIP3   OH269510   0.705   3.708  16.934  0.2012 -0.4058 -0.3280
16032TIP3    H169511   0.767   3.780  16.938  0.0394 -0.2782 -0.0874
16032TIP3    H269512   0.686   3.697  16.841 -0.4559  0.4462 -0.3021
16033TIP3   OH269513   4.837   0.283   3.236 -0.1604 -0.1566  0.0720
16033TIP3    H169514   4.851   0.201   3.189  0.2079  0.9047 -1.7119
16033TIP3    H269515   4.872   0.267   3.323  2.0281 -1.1528 -0.9568
16034TIP3   OH269516   0.538   2.743  12.362 -0.0989  0.2857  0.3080
16034TIP3    H169517   0.514   2.683  12.291  0.9620 -0.0825  0.2512
16034TIP3    H269518   0.460   2.748  12.417 -1.1596  1.0620 -1.2166
16035TIP3   OH269519   3.900   6.156  16.173  0.4896 -0.5606  0.1607
16035TIP3    H169520   3.861   6.081  16.217  1.1533  0.1390  2.0145
16035TIP3    H269521   3.957   6.196  16.239  0.0540  1.6502 -0.7384
16036TIP3   OH269522   1.189   6.293  13.654  0.3837  0.3415 -0.6128
16036TIP3    H169523   1.097   6.320  13.654  0.0513 -0.7589  0.3823
16036TIP3    H269524   1.229   6.346  13.585 -1.2117  0.1057 -1.7483
16037TIP3   OH269525   5.984   4.916   5.759  0.4716  0.2874  0.0052
16037TIP3    H169526   5.901   4.921   5.711  0.7005  1.7289 -0.2790
16037TIP3    H269527   6.030   4.843   5.719  0.6542  1.4646 -2.0050
16038TIP3   OH269528   5.112   6.614   0.237  0.1339  0.1493  0.3764
16038TIP3    H169529   5.128   6.617   0.142 -0.6059 -0.5500  0.2220
16038TIP3    H269530   5.106   6.705   0.263 -0.8392  0.3324 -0.4613
16039TIP3   OH269531   2.531   0.818   0.172  0.4036 -0.3374  0.2938
16039TIP3    H169532   2.520   0.743   0.114 -0.7064  0.1279 -0.1210
16039TIP3    H269533   2.473   0.799   0.246 -0.6307  0.5478 -0.2730
16040TIP3   OH269534   2.515   3.548  15.284  0.4179 -0.1517 -0.2315
16040TIP3    H169535   2.516   3.461  15.323  0.4032  0.2720  0.7341
16040TIP3    H269536   2.490   3.534  15.193 -2.9010 -0.8401  0.7330
16041TIP3   OH269537   5.306   0.438  10.953  0.4600 -0.0170 -0.5531
16041TIP3    H169538   5.332   0.360  10.903 -1.3529 -0.5473 -0.6799
16041TIP3    H269539   5.229   0.472  10.908 -1.0309 -0.3240  1.6924
16042TIP3   OH269540   0.994   5.403  15.484  0.0068  0.3512  0.0266
16042TIP3    H169541   1.014   5.454  15.405 -2.1212 -1.4352 -1.7062
16042TIP3    H269542   0.936   5.460  15.534 -1.2328  0.2310 -1.2433
16043TIP3   OH269543   0.509   1.012   4.675 -0.4512  0.1330  0.1793
16043TIP3    H169544   0.448   1.056   4.615 -0.3875 -1.4543 -1.0820
16043TIP3    H269545   0.593   1.014   4.629  0.0053  0.5094  1.0228
16044TIP3   OH269546   1.003   1.482  15.311  0.6275 -0.3466  0.0338
16044TIP3    H169547   0.967   1.396  15.290 -0.0327 -0.0298 -0.1443
16044TIP3    H269548   1.096   1.466  15.327  0.9693 -0.7703 -2.1533
16045TIP3   OH269549   2.261   4.182  14.671  0.2278 -0.6222 -0.0372
16045TIP3    H169550   2.197   4.249  14.697 -1.1066 -0.8800 -2.5268
16045TIP3    H269551   2.342   4.231  14.656 -0.3857  0.2511 -0.5469
16046TIP3   OH269552   5.410   4.325  16.365 -0.2278 -0.3798 -0.0800
16046TIP3    H169553   5.343   4.342  16.432 -1.7037 -2.7440 -0.8925
16046TIP3    H269554   5.439   4.236  16.383 -0.3696 -0.9048 -2.3550
16047TIP3   OH269555   4.301   0.506  14.609 -0.4345 -0.4635 -0.5612
16047TIP3    H169556   4.359   0.505  14.532 -0.0941 -1.2257 -0.3024
16047TIP3    H269557   4.351   0.461  14.677 -0.6025  0.5160  0.2119
16048TIP3   OH269558   6.252   1.495   1.646 -0.0231 -0.1216 -0.0029
16048TIP3    H169559   6.347   1.510   1.649 -0.0541  0.4022 -1.2390
16048TIP3    H269560   6.228   1.514   1.555 -1.3256 -0.1742  0.3243
16049TIP3   OH269561   5.779   5.846  14.468  0.3748  0.1253  0.2433
16049TIP3    H169562   5.714   5.838  14.398 -0.3817 -1.4075  1.0967
16049TIP3    H269563   5.863   5.827  14.425  0.3661  2.7100 -0.9883
16050TIP3   OH269564   1.288   4.747   2.372 -0.4256 -0.3894 -0.2556
16050TIP3    H169565   1.233   4.734   2.295  0.6568 -0.7118 -0.9882
16050TIP3    H269566   1.362   4.799   2.340  0.2408 -0.8824  0.4661
16051TIP3   OH269567   0.525   0.693   1.926  0.2128  0.3146  0.2542
16051TIP3    H169568   0.562   0.711   2.012  1.4832 -0.2169 -0.1600
16051TIP3    H269569   0.581   0.741   1.865  0.0862 -0.3088 -0.3710
16052TIP3   OH269570   2.488   2.191  15.617 -0.0109 -0.3185  0.0254
16052TIP3    H169571   2.526   2.131  15.681  0.3638 -0.1437 -0.0320
16052TIP3    H269572   2.486   2.141  15.535  0.2488 -0.2685 -0.0093
16053TIP3   OH269573   2.227   3.083   3.814  0.0923 -0.6942  0.0604
16053TIP3    H169574   2.132   3.082   3.803  0.1537 -0.1172 -0.5452
16053TIP3    H269575   2.245   3.161   3.866  0.2179 -0.8978  0.3218
16054TIP3   OH269576   5.049   3.486  12.308  0.6046 -0.3721 -0.2332
16054TIP3    H169577   5.008   3.511  12.391  0.6304  0.0487 -0.3493
16054TIP3    H269578   5.118   3.551  12.294  1.7173 -1.4233  0.2576
16055TIP3   OH269579   0.083   5.356   3.014  0.2720  0.1513  0.1023
16055TIP3    H169580   0.098   5.400   2.930 -0.3265 -0.7865 -0.5061
16055TIP3    H269581   0.054   5.426   3.073  1.8012  1.0266 -0.1545
16056TIP3   OH269582   0.212   2.893   1.748  0.0017  0.3040  0.8646
16056TIP3    H169583   0.238   2.959   1.684 -0.4560 -0.3051  0.0350
16056TIP3    H269584   0.293   2.869   1.793  0.2946  0.8716  0.6444
16057TIP3   OH269585   1.182   1.054   4.128  0.3326 -0.1377  0.4672
16057TIP3    H169586   1.222   1.086   4.047  1.1516 -0.0766  0.8862
16057TIP3    H269587   1.252   1.062   4.194 -0.3437 -0.1247  1.1909
16058TIP3   OH269588   3.467   3.575   5.084 -0.5004  0.0814 -0.0597
16058TIP3    H169589   3.561   3.556   5.083 -0.3730 -1.0675  7.4256
16058TIP3    H269590   3.425   3.495   5.053  0.8761 -0.6731 -0.0005
16059TIP3   OH269591   4.448   4.028  14.011  0.1016  0.1989  0.2229
16059TIP3    H169592   4.393   3.953  14.035 -2.6486  2.5216  1.6525
16059TIP3    H269593   4.490   4.054  14.093 -1.3596  1.9976  0.4562
16060TIP3   OH269594   2.324   5.159   3.321  0.3372 -0.0846  0.4060
16060TIP3    H169595   2.277   5.193   3.245  1.6189  0.0623 -0.3306
16060TIP3    H269596   2.417   5.167   3.298  0.6992 -1.9724  1.1571
16061TIP3   OH269597   0.487   6.356  13.359 -0.4321 -0.5186  0.3179
16061TIP3    H169598   0.411   6.415  13.358 -0.4426 -0.5291  0.4865
16061TIP3    H269599   0.524   6.364  13.272  0.8922  1.4930  1.0157
16062TIP3   OH269600   6.048   4.884   0.662 -0.3011 -0.4251  0.2577
16062TIP3    H169601   6.057   4.966   0.615  0.1511  0.0292  1.1220
16062TIP3    H269602   5.958   4.856   0.645 -0.4731  0.2712  0.0087
16063TIP3   OH269603   5.493   1.268   2.896  0.0673 -0.1626 -0.4741
16063TIP3    H169604   5.477   1.280   2.802 -1.4855  1.7531  0.0062
16063TIP3    H269605   5.531   1.180   2.902 -2.9743 -1.7396 -2.5613
16064TIP3   OH269606   2.345   2.230   3.272 -0.2904  0.5254 -0.8736
16064TIP3    H169607   2.322   2.143   3.241  1.4595 -0.1908 -0.2218
16064TIP3    H269608   2.382   2.216   3.359 -1.6162  2.1077 -0.0124
16065TIP3   OH269609   1.881   0.232  15.954 -0.1535  0.0041 -0.1532
16065TIP3    H169610   1.821   0.303  15.935 -0.6013  0.0660  1.3821
16065TIP3    H269611   1.965   0.260  15.917 -0.5234  0.9545 -0.2764
16066TIP3   OH269612   1.474   2.010   4.861 -0.3631 -0.2189 -0.3099
16066TIP3    H169613   1.446   2.046   4.777  0.2172 -0.9961 -0.8469
16066TIP3    H269614   1.449   1.917   4.857  0.8616 -0.5605 -0.1697
16067TIP3   OH269615   5.196   0.138   4.733  1.0342 -0.5353 -0.6796
16067TIP3    H169616   5.282   0.130   4.774  0.4670  0.1645  0.6984
16067TIP3    H269617   5.190   0.231   4.709 -0.0367 -0.1680  0.8953
16068TIP3   OH269618   3.208   0.419   1.213  0.2232 -1.0505 -1.0664
16068TIP3    H169619   3.245   0.333   1.231 -0.1471 -0.8993  0.4871
16068TIP3    H269620   3.129   0.401   1.163 -1.1032 -1.7747  1.2299
16069TIP3   OH269621   1.961   6.081   2.876 -0.0270 -0.2086  0.4847
16069TIP3    H169622   1.872   6.070   2.908 -0.6156  0.5356 -0.8537
16069TIP3    H269623   1.957   6.053   2.785  1.0702  0.0105  0.3637
16070TIP3   OH269624   2.566   3.501  11.500 -0.2953 -0.4345 -0.3396
16070TIP3    H169625   2.598   3.423  11.544  2.7473  1.5731  1.1273
16070TIP3    H269626   2.542   3.561  11.570 -1.0774  0.5750 -1.4401
16071TIP3   OH269627   4.671   5.064   4.018 -0.6007 -0.0089 -0.0151
16071TIP3    H169628   4.658   4.987   3.963  0.7723  0.8227 -1.5614
16071TIP3    H269629   4.585   5.106   4.022 -1.0130 -0.7988 -0.4207
16072TIP3   OH269630   0.535   4.730  12.891  0.0269  0.6688 -0.0818
16072TIP3    H169631   0.585   4.696  12.817 -1.6089  0.1349 -0.9922
16072TIP3    H269632   0.547   4.825  12.886 -2.1808  0.8892 -2.6975
16073TIP3   OH269633   1.781   6.020  16.797  0.0724 -0.2802  0.0422
16073TIP3    H169634   1.699   6.008  16.845  0.0072 -1.5643 -0.3747
16073TIP3    H269635   1.762   5.987  16.709  0.8614 -0.0443 -0.2163
16074TIP3   OH269636   6.085   3.996   3.149  0.5691 -0.3601  0.4323
16074TIP3    H169637   6.031   4.044   3.212  0.4881 -2.8925  2.3596
16074TIP3    H269638   6.028   3.985   3.073 -0.2115  0.5305  0.8734
16075TIP3   OH269639   2.944   3.395  11.004 -0.3429  0.1004  0.2645
16075TIP3    H169640   2.890   3.328  10.964  1.2061 -0.8768 -0.2234
16075TIP3    H269641   2.985   3.441  10.931  1.2005 -0.6077  0.6668
16076TIP3   OH269642   0.510   5.908  14.758  0.3114  0.2700 -0.1832
16076TIP3    H169643   0.560   5.942  14.684 -0.9259  0.5876 -0.8748
16076TIP3    H269644   0.493   5.816  14.736 -0.7986  0.5913 -0.7056
16077TIP3   OH269645   5.232   2.825  17.076 -0.1480 -0.3712  0.3889
16077TIP3    H169646   5.146   2.797  17.044  0.5010 -1.8096 -0.1103
16077TIP3    H269647   5.276   2.745  17.103  1.6738  0.1418 -0.9047
16078TIP3   OH269648   5.515   3.843  14.117 -0.1907  0.1403  0.5761
16078TIP3    H169649   5.543   3.916  14.172  0.6158  0.5594 -0.3681
16078TIP3    H269650   5.569   3.851  14.038 -1.9946  0.1066 -0.6804
16079TIP3   OH269651   4.999   6.598  15.667 -0.0744  0.6092 -0.1373
16079TIP3    H169652   5.058   6.562  15.601 -1.2062 -0.6880 -0.4779
16079TIP3    H269653   5.002   6.535  15.739 -0.3967  0.9586  0.1876
16080TIP3   OH269654   1.665   5.307  14.082  0.0413 -0.1401 -0.2045
16080TIP3    H169655   1.600   5.254  14.127 -0.0726 -1.4060 -1.8189
16080TIP3    H269656   1.666   5.274  13.992  2.7629 -0.0258 -0.2816
16081TIP3   OH269657   5.180   2.923  12.807  0.2214  0.0404 -0.8389
16081TIP3    H169658   5.238   2.980  12.756 -0.8725  1.2799 -0.7098
16081TIP3    H269659   5.145   2.980  12.876  0.7773 -1.3221  0.6184
16082TIP3   OH269660   6.488   6.124  13.621 -0.0765 -0.1118 -0.5372
16082TIP3    H169661   6.481   6.075  13.539 -0.1381  0.2301 -0.7356
16082TIP3    H269662   6.582   6.138  13.633 -0.0856  0.0762 -0.6891
16083TIP3   OH269663   4.507   2.317   0.930  0.5783 -0.2174  0.1962
16083TIP3    H169664   4.552   2.322   1.014 -0.6270  0.0701  0.8341
16083TIP3    H269665   4.462   2.401   0.922 -0.3098 -0.7269 -0.1631
16084TIP3   OH269666   3.363   0.151   1.088 -0.0989 -0.0847  0.5801
16084TIP3    H169667   3.303   0.103   1.146 -2.1043  1.4807 -0.1286
16084TIP3    H269668   3.435   0.090   1.073 -1.7871 -2.2817  0.9742
16085TIP3   OH269669   4.754   1.548  15.203  0.4835 -0.2622  0.2951
16085TIP3    H169670   4.726   1.459  15.222  2.5750 -1.0764 -0.3083
16085TIP3    H269671   4.685   1.603  15.240  1.0361 -1.9874  4.1186
16086TIP3   OH269672   3.327   5.935   5.491 -0.0876 -0.0302  0.4830
16086TIP3    H169673   3.340   6.029   5.479 -1.6633 -0.0715 -1.8219
16086TIP3    H269674   3.407   5.895   5.459 -0.4315  0.4161 -0.9851
16087TIP3   OH269675   5.702   4.565   0.129 -1.2038  0.1996  0.5754
16087TIP3    H169676   5.710   4.560   0.034  1.8395 -3.2757  0.8700
16087TIP3    H269677   5.788   4.595   0.159 -1.8864  0.5268  2.2854
16088TIP3   OH269678   5.277   2.595   2.237 -0.2581  0.3376  0.6874
16088TIP3    H169679   5.236   2.557   2.314 -0.5862  1.9183  1.3161
16088TIP3    H269680   5.332   2.666   2.271 -0.4149  1.0664 -0.5290
16089TIP3   OH269681   0.957   2.346  16.846 -0.8789  0.3424 -0.0464
16089TIP3    H169682   1.003   2.402  16.785 -1.3688  0.3086 -0.4538
16089TIP3    H269683   0.864   2.369  16.835 -1.0024  0.0969  0.4289
16090TIP3   OH269684   0.931   5.316   4.400 -0.1955  0.3325  0.1491
16090TIP3    H169685   0.852   5.262   4.390 -1.6724  2.0318  2.1451
16090TIP3    H269686   0.973   5.282   4.479 -1.0270  1.9261  1.3011
16091TIP3   OH269687   1.131   0.410  16.196 -0.3089  0.9144 -0.7621
16091TIP3    H169688   1.199   0.398  16.129  0.3113  0.2178 -0.0296
16091TIP3    H269689   1.050   0.386  16.152 -0.2138  2.6631 -1.9259
16092TIP3   OH269690   2.483   3.152   6.194 -0.0539  0.2172 -0.3771
16092TIP3    H169691   2.566   3.105   6.199  0.5844  1.2398 -1.1782
16092TIP3    H269692   2.452   3.138   6.104 -1.0846 -0.7015  0.1049
16093TIP3   OH269693   6.483   3.961  16.597 -0.5414 -1.1328 -0.1140
16093TIP3    H169694   6.410   3.954  16.659 -2.0986 -0.0290 -1.7768
16093TIP3    H269695   6.500   4.055  16.591 -1.2695 -1.1181 -2.3299
16094TIP3   OH269696   4.320   0.486  15.998 -0.0114  0.1648  0.8296
16094TIP3    H169697   4.302   0.500  16.090 -0.4308  1.2152  0.5909
16094TIP3    H269698   4.250   0.532  15.952 -0.2537 -1.0038 -0.0099
16095TIP3   OH269699   5.931   6.564   1.959 -0.1732 -0.0273 -0.2086
16095TIP3    H169700   5.868   6.586   2.028 -0.6689 -0.7269 -0.4364
16095TIP3    H269701   5.940   6.469   1.964  0.2505 -0.0127 -0.7085
16096TIP3   OH269702   2.043   0.873  16.350  0.3064 -0.0620  0.0546
16096TIP3    H169703   2.049   0.795  16.406  1.0839  0.9711  1.4333
16096TIP3    H269704   1.956   0.866  16.310 -0.9920  0.0633  2.7416
16097TIP3   OH269705   2.945   5.958   1.607  0.4288  0.1867  0.4806
16097TIP3    H169706   2.951   6.053   1.616 -1.2748  0.5034 -1.4584
16097TIP3    H269707   2.988   5.924   1.686  1.6372  2.5372  0.8757
16098TIP3   OH269708   3.485   1.204  10.617 -0.7870  0.6118  0.3807
16098TIP3    H169709   3.416   1.156  10.572  0.5781 -1.3431  0.3070
16098TIP3    H269710   3.503   1.279  10.561  0.1323 -1.2016 -1.8243
16099TIP3   OH269711   2.281   5.358  14.124 -0.2968 -0.2870  0.2140
16099TIP3    H169712   2.227   5.433  14.098 -2.4262 -2.0765 -0.7151
16099TIP3    H269713   2.283   5.361  14.219  0.0096  1.2125  0.1653
16100TIP3   OH269714   0.546   5.992  14.512 -0.3724 -0.3771 -0.0955
16100TIP3    H169715   0.501   5.918  14.471 -1.1644 -0.7898  1.4745
16100TIP3    H269716   0.482   6.064  14.509 -0.3853 -0.3703  0.2696
16101TIP3   OH269717   1.793   4.308   4.944 -0.5690  0.6147  0.0922
16101TIP3    H169718   1.877   4.352   4.959 -0.6081  1.1479 -1.1548
16101TIP3    H269719   1.806   4.220   4.978  1.1524  0.0871 -1.7966
16102TIP3   OH269720   4.968   1.914   0.785 -0.0007  0.0818 -0.0889
16102TIP3    H169721   5.033   1.984   0.787  1.5131 -1.3131  2.1755
16102TIP3    H269722   4.885   1.957   0.806  0.2219  1.7787 -2.4093
16103TIP3   OH269723   0.197   1.335   1.371  0.1744 -0.4454  0.1898
16103TIP3    H169724   0.183   1.262   1.431 -1.7158 -0.5196 -0.3196
16103TIP3    H269725   0.194   1.296   1.284 -0.5322  0.1705 -0.0743
16104TIP3   OH269726   6.075   6.401   0.226 -0.4234 -0.4757 -0.2598
16104TIP3    H169727   6.067   6.362   0.313 -0.9550  1.8600  0.7865
16104TIP3    H269728   6.019   6.347   0.170  0.7728 -2.6681  0.5929
16105TIP3   OH269729   5.594   2.028  11.333 -0.0171 -0.1691 -0.3628
16105TIP3    H169730   5.526   2.041  11.399 -1.4495  0.2599 -1.8729
16105TIP3    H269731   5.564   2.079  11.258  1.1349 -1.3482 -1.6480
16106TIP3   OH269732   4.627   5.549   1.501 -0.3471  0.4776 -0.0923
16106TIP3    H169733   4.625   5.454   1.507  1.9631  0.4686  1.4380
16106TIP3    H269734   4.681   5.567   1.424 -0.2576  0.5378 -0.0161
16107TIP3   OH269735   3.667   2.729   3.499  0.3096 -0.2838  0.5732
16107TIP3    H169736   3.630   2.809   3.461 -1.0608 -1.2262 -0.1267
16107TIP3    H269737   3.762   2.745   3.500  0.3062  0.2066 -2.2909
16108TIP3   OH269738   6.503   0.600   3.751  0.0535  0.1299 -0.1962
16108TIP3    H169739   6.427   0.544   3.733 -0.4833  0.9908 -0.6261
16108TIP3    H269740   6.487   0.634   3.839  0.2827 -0.2385 -0.0124
16109TIP3   OH269741   2.253   2.007  11.319 -0.2011  0.8781  0.1670
16109TIP3    H169742   2.206   1.993  11.237  1.4162  0.3349 -0.7065
16109TIP3    H269743   2.214   2.086  11.356 -0.2240  1.7883 -1.7073
16110TIP3   OH269744   1.162   3.501   4.167 -0.0039 -0.0011 -0.0253
16110TIP3    H169745   1.113   3.425   4.136 -1.9128  0.7078  1.1523
16110TIP3    H269746   1.096   3.557   4.208  1.5505  1.7577  0.1457
16111TIP3   OH269747   1.154   5.260  10.620 -0.3877  0.4703  0.1266
16111TIP3    H169748   1.142   5.174  10.580 -0.5219 -0.1966  1.5526
16111TIP3    H269749   1.110   5.320  10.561 -0.0780 -0.4120 -1.0176
16112TIP3   OH269750   1.689   5.485   0.849  0.0982  0.3296  0.3596
16112TIP3    H169751   1.639   5.403   0.854 -1.9044  1.5482  0.4836
16112TIP3    H269752   1.719   5.500   0.939 -1.9878  1.2429  0.9120
16113TIP3   OH269753   2.048   4.977   0.961  0.4813  0.4731  0.7801
16113TIP3    H169754   2.032   5.023   1.044 -1.5072  0.4300  0.4414
16113TIP3    H269755   1.969   4.991   0.910  1.0434 -0.8497 -0.4951
16114TIP3   OH269756   1.399   3.369  16.998  0.1044  0.4984  0.0612
16114TIP3    H169757   1.346   3.294  16.972  0.3772  0.5024 -0.5116
16114TIP3    H269758   1.335   3.436  17.021 -0.1901  1.4247 -3.2428
16115TIP3   OH269759   2.841   6.413   0.329 -0.7433 -0.0384 -0.0172
16115TIP3    H169760   2.745   6.408   0.331 -0.6689 -1.5480  0.6658
16115TIP3    H269761   2.864   6.458   0.411 -0.7963 -1.5039  0.8289
16116TIP3   OH269762   0.460   0.206  15.701 -0.5825  0.3324 -0.1230
16116TIP3    H169763   0.427   0.212  15.612 -0.5080  0.2625 -0.1548
16116TIP3    H269764   0.426   0.122  15.733 -1.5738  0.8908  0.3024
16117TIP3   OH269765   6.454   3.222  16.933 -0.1100  0.5692 -0.0272
16117TIP3    H169766   6.388   3.153  16.927 -0.4307  0.7077  1.7076
16117TIP3    H269767   6.515   3.203  16.861  1.0683 -2.8556  1.7655
16118TIP3   OH269768   0.897   5.701   2.740 -0.3461  0.1332 -0.0731
16118TIP3    H169769   0.928   5.791   2.734 -0.7238  0.2896  0.2523
16118TIP3    H269770   0.849   5.687   2.658 -2.3007  1.0188  0.8899
16119TIP3   OH269771   4.123   5.130  12.612  0.3168 -0.0730  0.5227
16119TIP3    H169772   4.183   5.200  12.637 -2.4809  2.7184 -0.1532
16119TIP3    H269773   4.173   5.075  12.552  3.4097 -0.2062  3.0781
16120TIP3   OH269774   4.235   0.792  11.619  0.0200 -0.4569  0.3881
16120TIP3    H169775   4.325   0.764  11.602 -0.5095 -1.0640 -1.5427
16120TIP3    H269776   4.186   0.763  11.542 -1.8127 -0.0428  1.3758
16121TIP3   OH269777   3.349   4.695   1.736  0.2381 -0.8176  0.2726
16121TIP3    H169778   3.388   4.629   1.793 -1.4326 -2.0052  0.1056
16121TIP3    H269779   3.389   4.680   1.651  0.6482 -0.9195  0.4824
16122TIP3   OH269780   1.556   5.836  15.629  0.1859 -0.2421 -0.4902
16122TIP3    H169781   1.635   5.782  15.627 -0.2849 -0.9344 -0.2620
16122TIP3    H269782   1.585   5.922  15.597  1.5387  0.1743  1.7217
16123TIP3   OH269783   5.928   1.207  13.398 -0.3371  0.1880 -0.9317
16123TIP3    H169784   5.922   1.219  13.493  1.1675  0.4501 -0.8555
16123TIP3    H269785   5.903   1.292  13.362  0.8734  0.6588 -0.6975
16124TIP3   OH269786   2.243   4.638   1.000 -0.0774 -0.0517 -0.0035
16124TIP3    H169787   2.333   4.658   1.029  0.2985  0.7045 -1.6488
16124TIP3    H269788   2.198   4.611   1.080  0.9543  1.9520  1.3049
16125TIP3   OH269789   1.306   3.972  14.000 -0.1828 -0.2158 -0.8845
16125TIP3    H169790   1.400   3.989  13.996 -0.2277  0.4072  0.4710
16125TIP3    H269791   1.285   3.976  14.093 -1.3930 -1.2503 -1.1024
16126TIP3   OH269792   4.786   4.630   5.835  0.1459  0.9882 -0.4381
16126TIP3    H169793   4.712   4.618   5.895  0.6290 -0.3351 -0.0902
16126TIP3    H269794   4.853   4.673   5.889  0.2935  0.5265 -0.2567
16127TIP3   OH269795   0.158   1.966   6.098 -0.5791  0.2966 -0.5889
16127TIP3    H169796   0.235   1.928   6.139  1.0073  3.3039 -0.6761
16127TIP3    H269797   0.178   1.966   6.004 -2.1568 -2.0489 -0.9762
16128TIP3   OH269798   0.459   5.744  13.015 -0.5135 -0.9240  0.2972
16128TIP3    H169799   0.479   5.655  12.985  0.8808  0.0361 -1.7140
16128TIP3    H269800   0.376   5.766  12.972  0.4936 -0.2776 -1.3436
16129TIP3   OH269801   1.874   2.007  15.487 -0.3047 -1.0898 -0.3590
16129TIP3    H169802   1.886   2.076  15.423  0.5007 -1.6520 -0.8154
16129TIP3    H269803   1.938   2.027  15.556 -1.5949 -0.1311  0.5839
16130TIP3   OH269804   3.466   6.273   3.351  0.0642  0.6527  0.1521
16130TIP3    H169805   3.372   6.283   3.361  0.1515 -0.3236  1.9846
16130TIP3    H269806   3.476   6.213   3.277 -0.7585  0.2057  0.4034
16131TIP3   OH269807   5.256   2.815   0.145 -0.1757  0.0989 -0.7052
16131TIP3    H169808   5.293   2.894   0.184 -0.1281 -0.9583  1.4676
16131TIP3    H269809   5.215   2.769   0.218 -0.2273 -1.8961 -1.9462
16132TIP3   OH269810   2.007   6.507   3.213  0.0495  0.1044  0.3367
16132TIP3    H169811   2.004   6.517   3.118 -1.1036 -1.2960  0.2150
16132TIP3    H269812   2.024   6.414   3.227  0.1976  0.3001  1.5021
16133TIP3   OH269813   5.317   0.405   1.553  0.5763  0.8145 -0.6442
16133TIP3    H169814   5.380   0.333   1.566  0.8833  1.1546 -0.2505
16133TIP3    H269815   5.371   0.483   1.544  0.4518  0.5791 -4.4749
16134TIP3   OH269816   3.185   6.482  12.243  0.7774 -0.3658 -0.1374
16134TIP3    H169817   3.124   6.547  12.277 -0.2611 -0.8473 -1.0684
16134TIP3    H269818   3.150   6.398  12.273 -0.8995 -0.9297 -3.3929
16135TIP3   OH269819   6.709   2.099  13.530 -0.4726  0.0678 -0.1628
16135TIP3    H169820   6.717   2.162  13.458 -0.0913  0.8800  0.5797
16135TIP3    H269821   6.745   2.018  13.495  1.7419  1.0217 -0.1925
16136TIP3   OH269822   0.475   5.146  13.049  0.3402 -0.4282 -0.6353
16136TIP3    H169823   0.461   5.186  13.135  0.3601 -0.1671 -0.7518
16136TIP3    H269824   0.561   5.105  13.056  0.7266  0.3301 -0.8045
16137TIP3   OH269825   0.384   6.406  13.686 -0.5276  0.0082  0.3790
16137TIP3    H169826   0.382   6.355  13.605 -0.6630  0.7137 -0.0673
16137TIP3    H269827   0.291   6.418  13.708 -0.4870 -0.3136  0.7172
16138TIP3   OH269828   2.506   4.652   4.740  0.0740  0.2296  0.0407
16138TIP3    H169829   2.420   4.694   4.742 -0.2618 -0.4177 -0.8558
16138TIP3    H269830   2.566   4.720   4.772 -0.4942  1.3471 -1.2185
16139TIP3   OH269831   2.771   5.980  13.095  0.3609  0.2199 -0.7285
16139TIP3    H169832   2.743   5.901  13.141 -0.0914  0.8977  0.1761
16139TIP3    H269833   2.689   6.018  13.062  0.4961  0.7418 -0.4648
16140TIP3   OH269834   5.989   4.823   3.402  0.4489  0.0290 -0.3864
16140TIP3    H169835   5.980   4.912   3.370  0.8333 -0.4986 -2.0001
16140TIP3    H269836   5.905   4.804   3.445  0.9534  1.7056  1.3874
16141TIP3   OH269837   3.402   1.014   5.618 -0.6032 -0.2206 -0.1920
16141TIP3    H169838   3.367   1.052   5.699  1.3531  1.1141  0.0437
16141TIP3    H269839   3.383   1.079   5.550  1.4692  0.5772 -0.0415
16142TIP3   OH269840   1.765   3.727  16.734 -0.2221 -0.3233  0.0346
16142TIP3    H169841   1.690   3.691  16.782 -1.7046 -0.9782 -2.7022
16142TIP3    H269842   1.768   3.819  16.760 -0.8424 -0.7022  1.5287
16143TIP3   OH269843   1.063   3.881  14.586  0.1706 -0.6065 -0.5697
16143TIP3    H169844   0.976   3.841  14.582 -0.6027  0.8415  0.9158
16143TIP3    H269845   1.067   3.919  14.674  1.8238  0.4289 -1.0791
16144TIP3   OH269846   6.004   6.293   4.757 -0.8705  0.1618  0.2767
16144TIP3    H169847   6.024   6.212   4.709 -2.7342 -0.7530  0.9880
16144TIP3    H269848   6.086   6.343   4.755 -0.0988 -1.1130 -1.3860
16145TIP3   OH269849   2.058   5.232  11.764 -0.5128  0.3053  0.0243
16145TIP3    H169850   2.085   5.161  11.823 -1.4095  0.6609  0.8913
16145TIP3    H269851   1.978   5.200  11.723 -0.8445  0.7480  0.3164
16146TIP3   OH269852   3.984   5.062   0.048  0.5216  0.2850 -0.0184
16146TIP3    H169853   3.961   5.016   0.128 -0.5388 -1.3624 -1.2396
16146TIP3    H269854   3.913   5.126   0.036  0.4133  0.1853  0.0864
16147TIP3   OH269855   5.248   4.219  11.391  0.0782  0.1495 -0.5559
16147TIP3    H169856   5.206   4.218  11.477 -0.3312 -0.0817 -0.7593
16147TIP3    H269857   5.339   4.245  11.409  0.2128 -0.7388  0.0394
16148TIP3   OH269858   6.379   0.486  10.605 -0.2399 -0.3664  0.3119
16148TIP3    H169859   6.327   0.407  10.619 -1.6713  0.2863 -1.0971
16148TIP3    H269860   6.318   0.548  10.564  1.2938  0.9016 -0.1126
16149TIP3   OH269861   4.381   6.037  12.115 -0.0486  0.2716  0.0313
16149TIP3    H169862   4.356   5.993  12.033  0.0254 -0.0090  0.1587
16149TIP3    H269863   4.429   6.115  12.086  1.2343 -0.5688 -0.1932
16150TIP3   OH269864   5.346   0.732  10.948  0.3424 -0.3223 -0.1528
16150TIP3    H169865   5.409   0.665  10.974 -0.2298 -1.2611 -1.1285
16150TIP3    H269866   5.370   0.753  10.858  0.5453  0.8315  0.1637
16151TIP3   OH269867   5.452   2.621   2.893 -0.2591  0.2106 -0.0503
16151TIP3    H169868   5.383   2.663   2.943  0.1067  0.5615  0.1651
16151TIP3    H269869   5.533   2.655   2.931  0.0532 -1.2742  0.6547
16152TIP3   OH269870   6.423   4.136  14.475  0.2063 -0.1190  0.0433
16152TIP3    H169871   6.399   4.217  14.430  1.5871  0.3695  0.1693
16152TIP3    H269872   6.369   4.069  14.433 -0.2598  0.7057 -0.7010
16153TIP3   OH269873   3.385   5.669  12.178 -0.0588  0.0345 -0.2213
16153TIP3    H169874   3.384   5.625  12.263 -0.0953 -0.0388 -0.2585
16153TIP3    H269875   3.447   5.617  12.126 -0.0474  0.0701 -0.2421
16154TIP3   OH269876   1.499   1.385   4.970  0.1720  0.0250 -0.1092
16154TIP3    H169877   1.504   1.471   5.011 -0.7552 -0.3250  0.7698
16154TIP3    H269878   1.406   1.362   4.973  0.4438 -1.1232 -0.0942
16155TIP3   OH269879   1.722   4.047  12.069  0.1542 -0.4254  0.2813
16155TIP3    H169880   1.778   4.118  12.038 -0.7438  0.4801  0.6753
16155TIP3    H269881   1.781   3.974  12.084  1.4507  0.9038  1.9262
16156TIP3   OH269882   0.461   4.198   5.465 -0.5833 -0.2042 -0.1555
16156TIP3    H169883   0.535   4.194   5.525 -0.2600  0.3153 -0.5134
16156TIP3    H269884   0.434   4.290   5.468 -0.9272 -0.2992 -0.3730
16157TIP3   OH269885   6.785   2.808  14.535 -0.3466  0.2249  0.6775
16157TIP3    H169886   6.770   2.747  14.606  1.0756 -1.5495 -0.5081
16157TIP3    H269887   6.750   2.765  14.457 -0.6855  1.5656  0.0594
16158TIP3   OH269888   2.523   6.168  16.089 -0.0057 -0.2211 -0.8387
16158TIP3    H169889   2.449   6.177  16.149  0.1779 -2.0551 -0.3201
16158TIP3    H269890   2.596   6.139  16.144  0.4062 -1.0054 -1.7782
16159TIP3   OH269891   3.648   5.408  12.301  0.1048  0.0373 -0.0568
16159TIP3    H169892   3.668   5.360  12.381  0.2489 -2.0330 -1.3256
16159TIP3    H269893   3.726   5.397  12.246 -1.5205 -1.9013 -2.0593
16160TIP3   OH269894   0.251   4.988   2.491 -0.3053 -0.3412  0.1361
16160TIP3    H169895   0.197   5.002   2.568  1.9628  1.2789  1.4826
16160TIP3    H269896   0.300   4.908   2.509  1.4636  0.9427  1.1427
16161TIP3   OH269897   4.909   3.387   1.867  0.0137  0.0991  0.0854
16161TIP3    H169898   4.827   3.347   1.895 -0.7284  0.2150 -1.8022
16161TIP3    H269899   4.913   3.470   1.916 -1.1099  0.1945  0.0401
16162TIP3   OH269900   0.286   6.768   1.970 -0.2728 -0.2640 -0.1268
16162TIP3    H169901   0.315   6.834   1.906  0.0927  0.4460  0.7631
16162TIP3    H269902   0.310   6.685   1.930  0.9449  0.2197 -0.4380
16163TIP3   OH269903   4.068   2.888  13.238  0.1246  0.5371  0.2677
16163TIP3    H169904   4.114   2.815  13.196 -2.0539 -0.6771 -0.1301
16163TIP3    H269905   4.116   2.966  13.211  1.8267 -0.6665 -0.2349
16164TIP3   OH269906   5.939   0.841  16.376  0.0771 -0.1426  0.2784
16164TIP3    H169907   5.929   0.801  16.462  0.5224 -0.7198  0.0665
16164TIP3    H269908   6.020   0.891  16.381 -0.7959  1.2692  0.7435
16165TIP3   OH269909   4.597   6.159   3.228  0.0005 -0.3048 -0.0414
16165TIP3    H169910   4.521   6.107   3.251  0.0545  0.2939  1.5270
16165TIP3    H269911   4.662   6.096   3.198 -0.9977 -0.8450 -1.1057
16166TIP3   OH269912   3.404   0.680   1.254  0.2191  0.3584 -0.1327
16166TIP3    H169913   3.312   0.662   1.239  0.3213  2.0655 -3.2717
16166TIP3    H269914   3.423   0.640   1.339 -3.6429  0.9247  1.0918
16167TIP3   OH269915   0.879   2.338   0.188 -0.9213  0.0795 -0.1865
16167TIP3    H169916   0.909   2.348   0.098 -0.7175  1.2112 -0.0074
16167TIP3    H269917   0.914   2.253   0.216 -0.9864 -0.2734 -1.1643
16168TIP3   OH269918   3.916   4.179  15.008  0.1701 -0.3017 -0.2882
16168TIP3    H169919   3.939   4.122  15.082 -1.2209 -1.2980 -0.6084
16168TIP3    H269920   3.921   4.267  15.044  0.0079 -0.7483  0.8704
16169TIP3   OH269921   3.839   4.765  13.881 -0.1219  0.8030 -0.1170
16169TIP3    H169922   3.891   4.686  13.869  1.6253  1.9138 -0.0548
16169TIP3    H269923   3.773   4.761  13.811 -0.6236 -1.1339  0.4434
16170TIP3   OH269924   6.184   2.203  10.761 -0.1479  0.5511 -0.6784
16170TIP3    H169925   6.256   2.141  10.756 -0.7267 -0.1715 -0.3448
16170TIP3    H269926   6.209   2.276  10.704  2.3612  1.8980  2.0072
16171TIP3   OH269927   4.405   5.340   5.392 -0.2267  0.0402 -0.5505
16171TIP3    H169928   4.341   5.382   5.450  0.7859 -0.3508  0.8872
16171TIP3    H269929   4.377   5.363   5.304 -0.5882  2.4480  0.1549
16172TIP3   OH269930   0.417   1.682   4.137 -0.1789 -0.6982 -0.5253
16172TIP3    H169931   0.425   1.599   4.185 -0.4888 -1.0172 -1.0226
16172TIP3    H269932   0.455   1.664   4.051 -0.4848 -0.4008 -0.7238
16173TIP3   OH269933   6.603   5.546   4.835 -0.1200  0.1509  0.5635
16173TIP3    H169934   6.587   5.590   4.752 -1.2019 -1.4335 -0.0934
16173TIP3    H269935   6.677   5.488   4.817  1.9873  2.4127  1.7101
16174TIP3   OH269936   1.243   5.908  11.134  0.8712 -0.1876  0.4581
16174TIP3    H169937   1.233   5.888  11.227 -0.8863 -0.3855  0.2412
16174TIP3    H269938   1.277   5.828  11.095 -1.4412 -1.1805  0.4158
16175TIP3   OH269939   2.804   2.817   3.034 -0.2617  0.2339 -0.8107
16175TIP3    H169940   2.804   2.732   2.989 -0.0526  0.0785 -0.5224
16175TIP3    H269941   2.896   2.836   3.049 -0.3751 -0.2798  0.5983
16176TIP3   OH269942   1.697   5.672   1.934 -0.2783 -0.2454  0.6494
16176TIP3    H169943   1.713   5.658   2.027  0.5149 -0.8475  0.4251
16176TIP3    H269944   1.731   5.593   1.891  0.1719  0.4124 -0.2220
16177TIP3   OH269945   6.330   6.526  16.629 -0.4556 -0.6943  0.1572
16177TIP3    H169946   6.312   6.513  16.536 -1.5758 -0.7120  0.3710
16177TIP3    H269947   6.422   6.553  16.632  0.0684 -2.2995 -0.8168
16178TIP3   OH269948   3.661   2.803  12.075 -0.5295 -0.5566 -0.6251
16178TIP3    H169949   3.587   2.833  12.022 -1.7840 -1.6171  0.4545
16178TIP3    H269950   3.712   2.746  12.017  0.1792  1.2319 -1.7680
16179TIP3   OH269951   3.691   1.319  10.750  1.0762  0.2537 -0.0054
16179TIP3    H169952   3.639   1.253  10.703  1.5697  0.9002 -1.5031
16179TIP3    H269953   3.742   1.268  10.813  0.8830 -0.7098 -0.6104
16180TIP3   OH269954   4.468   0.248  16.805 -0.8134 -0.2213  0.1024
16180TIP3    H169955   4.387   0.198  16.790 -0.9448  0.5370 -1.8094
16180TIP3    H269956   4.476   0.304  16.728 -0.1076  1.9604  1.7306
16181TIP3   OH269957   3.332   5.347   0.541  0.3609 -0.0493 -0.2055
16181TIP3    H169958   3.375   5.368   0.458  1.1439 -0.1773  0.1671
16181TIP3    H269959   3.293   5.430   0.569  0.5756  0.1260 -0.4201
16182TIP3   OH269960   1.007   6.686  16.464 -0.3396 -0.1747 -0.0203
16182TIP3    H169961   0.963   6.609  16.500  0.4802 -0.5141  0.2536
16182TIP3    H269962   0.935   6.743  16.436 -0.9616 -0.6135  0.6566
16183TIP3   OH269963   0.144   5.755   2.606  0.1234  0.1855 -0.1867
16183TIP3    H169964   0.137   5.845   2.635  0.2065  0.2074 -0.2339
16183TIP3    H269965   0.200   5.713   2.670  0.1069  0.1740 -0.1798
16184TIP3   OH269966   0.052   6.275   2.780  0.0943 -0.2416  0.0650
16184TIP3    H169967   0.140   6.296   2.811 -0.7351 -0.2087  2.5276
16184TIP3    H269968   0.039   6.333   2.705  1.9612  0.1630  0.0195
16185TIP3   OH269969   0.447   3.444  14.068 -0.2696 -0.4004  0.6915
16185TIP3    H169970   0.361   3.476  14.095 -0.2646 -2.0359  2.8142
16185TIP3    H269971   0.509   3.509  14.103 -0.5462  0.0871  0.2904
16186TIP3   OH269972   0.596   4.688  13.532 -0.3002 -0.2828  0.3501
16186TIP3    H169973   0.627   4.664  13.445 -0.4462  0.3161  0.1235
16186TIP3    H269974   0.551   4.771  13.518  2.0235  1.2287  1.4240
16187TIP3   OH269975   5.403   0.676  15.457  0.1773  0.0983 -0.1415
16187TIP3    H169976   5.394   0.759  15.504 -1.1493  1.5001 -2.7567
16187TIP3    H269977   5.419   0.702  15.366 -0.1773 -2.5262 -0.9847
16188TIP3   OH269978   0.159   0.661   0.711 -0.0243 -0.5373  0.1960
16188TIP3    H169979   0.210   0.695   0.638 -0.2583 -0.3757  0.1090
16188TIP3    H269980   0.223   0.615   0.766  0.0945 -0.9392 -0.2796
16189TIP3   OH269981   0.684   0.758   4.561  0.4087  0.5316 -0.0780
16189TIP3    H169982   0.683   0.852   4.543  0.9744  0.5622  0.0373
16189TIP3    H269983   0.638   0.719   4.487 -0.8624  0.9968  0.4701
16190TIP3   OH269984   4.316   5.547  10.400 -0.0657  0.2112  0.4394
16190TIP3    H169985   4.297   5.588  10.316 -1.9181 -1.3194  0.0730
16190TIP3    H269986   4.396   5.591  10.431  0.2855  1.2212 -1.8027
16191TIP3   OH269987   5.298   6.021  12.096 -0.1190  0.0782  0.2275
16191TIP3    H169988   5.373   6.032  12.155  0.3684  1.9912 -0.7087
16191TIP3    H269989   5.266   6.110  12.082 -0.1239 -0.3340 -2.5346
16192TIP3   OH269990   5.231   0.898  15.823 -0.0521 -0.2514 -0.0052
16192TIP3    H169991   5.283   0.821  15.797 -0.5817 -0.1336 -1.4516
16192TIP3    H269992   5.223   0.890  15.918  2.0341 -0.6287  0.1600
16193TIP3   OH269993   1.684   3.486   2.871  0.1980  0.5175 -0.4064
16193TIP3    H169994   1.772   3.465   2.901  0.2591 -0.3591 -1.1519
16193TIP3    H269995   1.697   3.553   2.804  0.5254 -1.1850 -2.1164
16194TIP3   OH269996   1.646   6.339   5.063  0.0440 -0.5614  0.1869
16194TIP3    H169997   1.736   6.371   5.072 -0.7988  1.9528 -0.0304
16194TIP3    H269998   1.619   6.366   4.976 -0.4871 -2.5264 -0.2844
16195TIP3   OH269999   0.204   6.394   4.884  0.1054 -0.3571 -0.1156
16195TIP3    H170000   0.231   6.321   4.940 -0.4398 -0.0261  0.5880
16195TIP3    H270001   0.262   6.389   4.807  0.4253 -1.1993  0.1822
16196TIP3   OH270002   2.196   2.501  10.894  0.2917  0.1391 -0.1756
16196TIP3    H170003   2.243   2.426  10.858  0.0622  0.2536 -0.7095
16196TIP3    H270004   2.130   2.462  10.952  2.0104  0.0165  1.7729
16197TIP3   OH270005   4.181   5.409  15.167  0.0543 -0.0065 -0.2109
16197TIP3    H170006   4.224   5.326  15.147  0.9898 -0.0364  1.7783
16197TIP3    H270007   4.168   5.451  15.082  3.5171 -0.2651 -0.9338
16198TIP3   OH270008   6.292   4.013   2.242  0.4205  0.8006  0.6028
16198TIP3    H170009   6.226   4.067   2.287  0.3386  0.2033  1.2066
16198TIP3    H270010   6.288   4.042   2.151 -2.7858 -1.2890  0.0140
16199TIP3   OH270011   6.708   1.979  16.776  0.3540 -0.0849  0.5686
16199TIP3    H170012   6.662   1.956  16.857  0.4040 -0.3746  0.5147
16199TIP3    H270013   6.742   2.067  16.793  0.3517 -0.1364  0.8567
16200TIP3   OH270014   4.382   2.694  14.298 -0.1939  0.2265 -0.3785
16200TIP3    H170015   4.315   2.740  14.247 -0.6831 -1.2389 -1.0902
16200TIP3    H270016   4.372   2.602  14.273 -0.3736 -0.5198  2.2822
16201TIP3   OH270017   0.943   1.220   0.971  0.0603 -0.0675  0.0180
16201TIP3    H170018   0.914   1.303   0.934 -1.3295 -1.6847 -2.6186
16201TIP3    H270019   1.032   1.209   0.937 -0.0632 -0.0483 -0.3169
16202TIP3   OH270020   0.897   1.904  14.899  0.2607 -1.0601  0.2282
16202TIP3    H170021   0.847   1.961  14.841 -0.8774 -3.7512 -1.5312
16202TIP3    H270022   0.834   1.875  14.965  0.9447  0.0184  1.3837
16203TIP3   OH270023   4.943   5.719  16.902 -0.1074  0.0429 -0.5946
16203TIP3    H170024   5.027   5.755  16.871  0.6765 -1.3959 -0.1904
16203TIP3    H270025   4.958   5.700  16.994 -0.5399 -1.1868 -0.7706
16204TIP3   OH270026   1.890   1.511  14.430  0.6244  0.3364 -0.2067
16204TIP3    H170027   1.846   1.582  14.383  0.7222 -1.1195 -2.5820
16204TIP3    H270028   1.824   1.478  14.491 -0.1926  0.9303 -0.7640
16205TIP3   OH270029   3.864   1.213  13.297 -0.4991 -0.4427  0.7088
16205TIP3    H170030   3.778   1.212  13.338 -0.8894 -0.6970 -0.1109
16205TIP3    H270031   3.917   1.153  13.350 -0.8475 -0.3659  1.1470
16206TIP3   OH270032   1.225   0.057  13.861  0.6393  0.0886  0.1392
16206TIP3    H170033   1.243   0.151  13.858 -2.2806  0.6561 -0.7006
16206TIP3    H270034   1.250   0.031  13.950  1.1798  1.7075  0.4725
16207TIP3   OH270035   3.766   3.514  14.813 -0.0640 -0.1902  0.2027
16207TIP3    H170036   3.848   3.548  14.779  0.0051 -1.0865 -0.5636
16207TIP3    H270037   3.704   3.521  14.740 -1.0748  1.8405  1.2230
16208TIP3   OH270038   0.903   1.832   2.742 -0.6175 -0.4306  0.1807
16208TIP3    H170039   0.926   1.793   2.826  0.5153  0.3622  0.2563
16208TIP3    H270040   0.954   1.913   2.739  1.0579 -1.5141 -2.2253
16209TIP3   OH270041   2.604   5.258   3.237 -0.3683  0.0629 -0.2094
16209TIP3    H170042   2.560   5.340   3.216  1.6116  1.5035  1.2130
16209TIP3    H270043   2.697   5.276   3.223  0.2103 -1.5128  1.4886
16210TIP3   OH270044   0.075   0.628  11.180  0.0011 -0.2119  0.0164
16210TIP3    H170045   0.102   0.661  11.094 -0.9598  0.6158  0.0303
16210TIP3    H270046   0.105   0.695  11.241 -0.8577  0.0434  0.1596
16211TIP3   OH270047   0.394   3.682  16.461  0.0697 -0.3892 -0.4409
16211TIP3    H170048   0.444   3.681  16.379 -1.4888 -0.5090 -1.4084
16211TIP3    H270049   0.385   3.590  16.484  0.2036 -0.3749 -0.3330
16212TIP3   OH270050   4.220   5.856  15.915  0.3945  0.5540  0.3877
16212TIP3    H170051   4.287   5.900  15.863  1.8784  0.0786  1.8254
16212TIP3    H270052   4.195   5.779  15.863  1.7068  0.1924  0.2777
16213TIP3   OH270053   6.286   3.395   1.116  0.6725 -0.6975  0.4163
16213TIP3    H170054   6.252   3.484   1.127  0.2048 -0.8925  0.5666
16213TIP3    H270055   6.226   3.340   1.167  0.8870 -1.1123  0.2232
16214TIP3   OH270056   5.342   3.705  16.400  0.4818  0.0066 -0.1948
16214TIP3    H170057   5.301   3.674  16.319  1.5046  1.1140 -1.1707
16214TIP3    H270058   5.434   3.679  16.391  0.2580 -1.4724  1.4586
16215TIP3   OH270059   5.785   2.393  17.025  0.2921  0.7688 -0.0877
16215TIP3    H170060   5.816   2.305  17.002 -1.2446  0.0459  0.5393
16215TIP3    H270061   5.833   2.415  17.105 -1.4010 -0.7007  1.3685
16216TIP3   OH270062   5.877   3.182   4.086 -0.0773  0.0902 -0.2612
16216TIP3    H170063   5.930   3.186   4.006  0.9212  2.2949  0.4527
16216TIP3    H270064   5.814   3.254   4.076 -0.8271 -0.4641  0.3693
16217TIP3   OH270065   1.519   5.861  15.198  0.3283 -0.0071  0.2125
16217TIP3    H170066   1.561   5.935  15.242 -0.2902  0.0209  0.7726
16217TIP3    H270067   1.592   5.806  15.170  0.7359 -0.6461  2.3743
16218TIP3   OH270068   2.375   2.156   1.019 -0.0972  0.0354 -0.0937
16218TIP3    H170069   2.335   2.235   1.056 -0.3763  0.2542 -0.8656
16218TIP3    H270070   2.367   2.167   0.925  2.3701  0.3915 -0.2980
16219TIP3   OH270071   6.561   4.624   0.493  0.4726 -0.1519  0.1283
16219TIP3    H170072   6.476   4.632   0.449  0.1481 -0.1754  0.7522
16219TIP3    H270073   6.625   4.649   0.426 -0.0894  0.8582 -0.0395
16220TIP3   OH270074   5.390   1.758  15.168  0.5352  0.3065  0.4298
16220TIP3    H170075   5.466   1.740  15.224 -0.4892 -2.3062  1.0766
16220TIP3    H270076   5.411   1.716  15.085 -0.6628 -1.4865  0.9995
16221TIP3   OH270077   0.398   4.261   6.743 -0.4264  0.5361 -0.3816
16221TIP3    H170078   0.402   4.179   6.792 -1.1311  1.0933  0.6386
16221TIP3    H270079   0.458   4.249   6.670  0.1853 -0.5462  0.2908
16222TIP3   OH270080   3.452   5.324  16.426  0.7141  0.7306 -0.4418
16222TIP3    H170081   3.446   5.334  16.331  0.8010  0.8050 -0.4421
16222TIP3    H270082   3.482   5.409  16.457 -0.1152  0.9528 -0.2696
16223TIP3   OH270083   3.401   2.523  15.121 -0.4648 -0.0334  0.2236
16223TIP3    H170084   3.458   2.446  15.125 -1.0170 -0.4498  0.1258
16223TIP3    H270085   3.437   2.583  15.186 -0.1382 -0.4473  0.4272
16224TIP3   OH270086   5.465   6.156  15.232  0.2553 -0.5598  0.0298
16224TIP3    H170087   5.485   6.185  15.321  1.1751  0.0460 -0.3612
16224TIP3    H270088   5.370   6.151  15.229  0.2018 -0.2433  0.9428
16225TIP3   OH270089   0.438   5.846  16.021  0.2122 -0.1397  0.1228
16225TIP3    H170090   0.480   5.762  16.001 -0.7252 -0.4280 -0.6517
16225TIP3    H270091   0.505   5.911  15.999  0.2421 -0.5970 -1.1893
16226TIP3   OH270092   2.675   0.554  16.184 -0.5037 -0.1957  0.2753
16226TIP3    H170093   2.604   0.495  16.160 -0.5791  0.1902 -0.4768
16226TIP3    H270094   2.637   0.642  16.172  0.1757  0.0137 -0.3845
16227TIP3   OH270095   4.236   0.220  16.005  0.3265 -0.2089  0.2825
16227TIP3    H170096   4.260   0.180  15.921  1.6519  0.9177  0.1059
16227TIP3    H270097   4.257   0.313  15.994 -1.2289  0.2638  1.2325
16228TIP3   OH270098   4.904   2.728  13.710 -0.3904 -0.1269  0.1043
16228TIP3    H170099   4.979   2.760  13.660  0.9822 -1.9495  0.9340
16228TIP3    H270100   4.831   2.783  13.682  1.5796  2.7869  0.4542
16229TIP3   OH270101   0.708   3.796   3.391 -0.1368 -0.0417 -0.2823
16229TIP3    H170102   0.722   3.713   3.437  1.3915  0.1866 -0.3060
16229TIP3    H270103   0.630   3.781   3.338 -0.5352 -1.0896  0.5822
16230TIP3   OH270104   2.064   0.620   6.476 -0.2324  0.0024  0.0964
16230TIP3    H170105   2.088   0.689   6.538 -2.1546 -2.1087  3.3011
16230TIP3    H270106   2.115   0.544   6.503  0.3165 -0.4843 -2.1358
16231TIP3   OH270107   4.677   2.560   5.596 -0.3367  0.3133  0.4776
16231TIP3    H170108   4.666   2.468   5.574 -2.0188  0.6352 -0.1263
16231TIP3    H270109   4.758   2.564   5.647  0.6249 -1.2382 -0.9146
16232TIP3   OH270110   6.528   4.144   4.949 -0.7903  0.3022  0.3151
16232TIP3    H170111   6.489   4.210   5.007  0.3394 -0.6970  2.2897
16232TIP3    H270112   6.590   4.097   5.005 -2.2812 -3.1229 -0.7715
16233TIP3   OH270113   6.384   2.262  11.233 -0.0644  0.5768  0.5241
16233TIP3    H170114   6.370   2.168  11.217 -1.0669  0.6795  0.7266
16233TIP3    H270115   6.346   2.305  11.156  0.1865  0.8199  0.5386
16234TIP3   OH270116   4.428   3.977  11.449 -0.4348  0.1426 -0.5086
16234TIP3    H170117   4.425   4.063  11.406  0.4695 -0.2165 -1.2960
16234TIP3    H270118   4.518   3.947  11.437 -0.6817 -0.8104 -0.0208
16235TIP3   OH270119   0.270   2.997  12.748  0.1593 -0.3254 -0.3994
16235TIP3    H170120   0.247   2.960  12.833 -0.5405 -3.2234 -1.8019
16235TIP3    H270121   0.250   3.091  12.757 -2.7375 -1.0688  1.6858
16236TIP3   OH270122   1.447   5.926  12.961  0.1802 -0.4424 -0.7258
16236TIP3    H170123   1.402   5.844  12.940 -0.4664  0.3131 -2.3246
16236TIP3    H270124   1.521   5.929  12.901 -0.7447  0.9340 -1.8441
16237TIP3   OH270125   0.520   3.158   5.784  0.0981 -0.7780 -0.6394
16237TIP3    H170126   0.516   3.240   5.735 -1.0850  0.4571  1.4480
16237TIP3    H270127   0.457   3.170   5.855 -0.2105 -3.5735 -0.3896
16238TIP3   OH270128   4.203   4.588   3.422 -0.0929 -0.6047 -0.2980
16238TIP3    H170129   4.258   4.650   3.375  2.2435 -0.1349  2.8636
16238TIP3    H270130   4.253   4.506   3.422 -0.7330 -1.0035  0.0979
16239TIP3   OH270131   2.897   0.975   0.704  0.2931 -0.2239 -0.3170
16239TIP3    H170132   2.920   0.906   0.641 -0.7824  0.8499 -1.9233
16239TIP3    H270133   2.853   1.042   0.652  1.2026  1.6500  1.2281
16240TIP3   OH270134   1.135   3.149   4.325  0.1601  0.1160  0.2897
16240TIP3    H170135   1.079   3.223   4.345 -0.6481 -0.2920 -0.3783
16240TIP3    H270136   1.224   3.182   4.333 -0.1946  1.0831  0.2370
16241TIP3   OH270137   3.593   0.277  12.914  0.6637 -0.3649  0.3114
16241TIP3    H170138   3.643   0.255  12.835  1.4928 -1.9123  1.2418
16241TIP3    H270139   3.599   0.199  12.969 -1.2714  0.0981  1.2323
16242TIP3   OH270140   5.133   2.570   2.598  0.4929  0.0943  0.2331
16242TIP3    H170141   5.132   2.642   2.661 -0.5326 -1.0673  1.5647
16242TIP3    H270142   5.224   2.542   2.594  1.2364  2.5082 -1.5531
16243TIP3   OH270143   4.628   4.980  11.877 -0.6695  0.1925  0.1348
16243TIP3    H170144   4.673   4.984  11.792 -1.3012  0.2358 -0.1992
16243TIP3    H270145   4.555   4.920  11.862 -1.9302  1.7056  0.1242
16244TIP3   OH270146   4.523   1.846  17.229  0.5910  0.2762 -0.4682
16244TIP3    H170147   4.567   1.920  17.188  0.7119  0.7094  0.4380
16244TIP3    H270148   4.564   1.837  17.315 -0.9094  0.5448  0.3011
16245TIP3   OH270149   1.844   1.908  11.531  0.0976 -0.8415  0.1968
16245TIP3    H170150   1.933   1.892  11.502 -0.1932  0.6228 -1.6407
16245TIP3    H270151   1.811   1.823  11.558  2.4964 -1.1456  2.2134
16246TIP3   OH270152   1.592   4.688  12.000 -0.3784 -0.1252 -0.4372
16246TIP3    H170153   1.659   4.635  11.956  0.5159  0.2265  0.4777
16246TIP3    H270154   1.524   4.625  12.023  0.5979 -0.8713  0.4888
16247TIP3   OH270155   2.699   0.970   3.233  0.8943  0.1563 -0.3143
16247TIP3    H170156   2.686   1.053   3.279 -0.7549 -0.5589  0.5828
16247TIP3    H270157   2.705   0.994   3.140 -0.9567  1.1670 -0.1959
16248TIP3   OH270158   0.516   5.739   6.579  0.1763  0.5273  0.3167
16248TIP3    H170159   0.429   5.723   6.541  0.2576  0.3715  0.1952
16248TIP3    H270160   0.522   5.675   6.650  0.6557 -0.2464 -0.4131
16249TIP3   OH270161   6.341   5.021  17.148  0.4513  0.2172 -0.1164
16249TIP3    H170162   6.352   5.109  17.183 -2.8452  1.0411 -0.9225
16249TIP3    H270163   6.350   5.031  17.053  1.4553 -0.5687 -0.1116
16250TIP3   OH270164   4.971   1.814   3.041  0.0578 -0.3501 -0.0292
16250TIP3    H170165   4.945   1.897   3.000  0.7630  0.0060  0.2320
16250TIP3    H270166   4.890   1.764   3.047 -0.2364  0.0061 -0.9131
16251TIP3   OH270167   1.056   6.347  15.628  0.1338 -0.4042  0.8642
16251TIP3    H170168   0.984   6.361  15.567  0.7546  3.3064  0.8531
16251TIP3    H270169   1.031   6.396  15.706  2.9697  1.7764  0.5265
16252TIP3   OH270170   2.449   0.590  12.480 -0.2045 -0.2498 -0.0137
16252TIP3    H170171   2.428   0.680  12.506  1.8684  0.7330 -1.5650
16252TIP3    H270172   2.545   0.589  12.477 -0.1986 -2.6425  0.3670
16253TIP3   OH270173   6.045   2.990  14.927  0.2576  0.4035  0.0864
16253TIP3    H170174   6.136   2.978  14.953  0.8043  1.8818 -1.0643
16253TIP3    H270175   6.013   2.902  14.908  1.5181 -0.1036  0.2688
16254TIP3   OH270176   6.015   3.201   1.779 -0.8334  0.7004 -0.6667
16254TIP3    H170177   5.988   3.120   1.822 -2.5339  0.6496 -1.8077
16254TIP3    H270178   6.106   3.212   1.806 -2.1630  1.3530  4.0041
16255TIP3   OH270179   0.567   3.998   2.710  0.0592  0.0222 -0.0833
16255TIP3    H170180   0.581   4.078   2.660  0.8970 -0.0068  0.1058
16255TIP3    H270181   0.576   3.927   2.646 -0.4237  0.0558 -0.1965
16256TIP3   OH270182   1.938   4.510  15.832  0.0790 -0.3629 -0.5234
16256TIP3    H170183   1.906   4.569  15.763 -1.0578  3.0072  2.6620
16256TIP3    H270184   2.002   4.563  15.880 -0.5544 -1.9154  2.1198
16257TIP3   OH270185   1.211   3.642   3.118 -0.7372 -0.0143  0.0755
16257TIP3    H170186   1.236   3.696   3.193  1.4574  0.3947 -0.9316
16257TIP3    H270187   1.147   3.696   3.070 -0.8999  0.3925  0.7433
16258TIP3   OH270188   3.313   6.666   1.543 -0.1486 -0.4054 -0.2397
16258TIP3    H170189   3.310   6.571   1.530  1.2262 -0.2658 -1.7922
16258TIP3    H270190   3.362   6.677   1.625  1.1095 -1.0163 -0.8861
16259TIP3   OH270191   3.101   5.335  10.990  0.4235  0.2222 -0.3839
16259TIP3    H170192   3.105   5.419  10.944 -0.2606 -0.9243 -2.6251
16259TIP3    H270193   3.021   5.295  10.959  0.8066 -1.3192  0.5854
16260TIP3   OH270194   3.542   3.121   0.229 -0.3965 -0.0366 -0.0597
16260TIP3    H170195   3.546   3.157   0.318 -2.3978 -1.0615  0.4725
16260TIP3    H270196   3.462   3.157   0.192  0.1688 -0.0123 -1.2841
16261TIP3   OH270197   4.025   5.861  11.151 -0.0740  0.0279  0.2109
16261TIP3    H170198   4.043   5.899  11.065 -1.4874  0.5174  0.1160
16261TIP3    H270199   3.992   5.934  11.203 -3.6348 -1.1756 -0.2186
16262TIP3   OH270200   4.379   2.746   1.380  0.5059 -0.7835  0.4460
16262TIP3    H170201   4.455   2.759   1.323  0.3202 -2.1015 -0.1155
16262TIP3    H270202   4.409   2.684   1.447 -0.0250 -1.1921  0.3093
16263TIP3   OH270203   4.614   6.703  14.277 -0.4513  0.2650 -0.3095
16263TIP3    H170204   4.687   6.757  14.308  0.6987 -1.3975 -0.0429
16263TIP3    H270205   4.576   6.666  14.357 -0.1274 -0.6918 -0.5877
16264TIP3   OH270206   6.678   3.015  10.955 -0.7749  0.3871  0.2976
16264TIP3    H170207   6.730   3.047  10.881 -1.6680 -0.6111 -0.7757
16264TIP3    H270208   6.722   3.050  11.032  1.4759 -0.4159 -0.5933
16265TIP3   OH270209   5.986   1.404  12.191 -0.1057  0.0510  0.7140
16265TIP3    H170210   5.988   1.334  12.126 -2.1900  0.4004  0.2360
16265TIP3    H270211   5.985   1.359  12.276  0.2499 -0.4484  0.4564
16266TIP3   OH270212   2.461   1.239  14.624 -0.3733  0.0273 -0.0242
16266TIP3    H170213   2.513   1.285  14.689 -0.5084 -3.3186  2.5671
16266TIP3    H270214   2.370   1.257  14.648 -0.4331  0.4743 -0.5640
16267TIP3   OH270215   5.330   1.407   1.087 -1.2014  0.1054  0.2119
16267TIP3    H170216   5.320   1.501   1.106 -2.2802 -0.2024  1.2248
16267TIP3    H270217   5.298   1.364   1.167 -0.1511 -1.1092 -0.0193
16268TIP3   OH270218   4.885   4.798  10.268 -0.4714  0.4412  0.6779
16268TIP3    H170219   4.796   4.827  10.247 -0.3400  1.4395  1.4895
16268TIP3    H270220   4.937   4.878  10.268  0.8257 -0.3598 -1.7231
16269TIP3   OH270221   0.350   4.069  13.173 -1.3052  0.4160  0.1503
16269TIP3    H170222   0.349   3.994  13.113 -0.9346  0.0198  0.6412
16269TIP3    H270223   0.427   4.119  13.147 -2.0162  1.0958 -0.7371
16270TIP3   OH270224   0.650   2.608  15.925  0.3184 -0.4423 -0.3336
16270TIP3    H170225   0.632   2.517  15.903  1.4654 -0.9120  0.6243
16270TIP3    H270226   0.738   2.625  15.892  0.1758  0.2660 -0.3603
16271TIP3   OH270227   1.296   6.337  15.020  0.4721 -0.3585  0.1904
16271TIP3    H170228   1.346   6.392  14.959  0.6553 -0.3189  0.3728
16271TIP3    H270229   1.232   6.292  14.965 -1.8804  2.4732  0.4685
16272TIP3   OH270230   3.783   0.347  14.098  0.6438 -0.2553 -0.0461
16272TIP3    H170231   3.713   0.317  14.041  0.0153 -0.2608  0.7146
16272TIP3    H270232   3.739   0.371  14.180  1.5244 -0.2470  0.4361
16273TIP3   OH270233   2.333   4.920   5.637  0.1439 -0.2105  0.4571
16273TIP3    H170234   2.253   4.949   5.594 -0.8731 -1.8407  1.2222
16273TIP3    H270235   2.307   4.905   5.728  1.4261 -0.3365  0.8102
16274TIP3   OH270236   0.186   1.633   1.153  0.2375  0.3389 -0.2230
16274TIP3    H170237   0.260   1.572   1.159 -0.9726 -1.4843 -2.8188
16274TIP3    H270238   0.210   1.706   1.209  1.9033 -2.3922  2.7904
16275TIP3   OH270239   2.508   4.727   5.559 -0.1643  0.2948 -0.2672
16275TIP3    H170240   2.473   4.808   5.595 -0.4862  0.8488 -1.7727
16275TIP3    H270241   2.597   4.750   5.530  1.0382 -0.7790  2.3798
16276TIP3   OH270242   5.584   6.076  11.117 -0.0207 -0.2359  0.5723
16276TIP3    H170243   5.604   6.096  11.025 -1.9086  1.2323  0.4550
16276TIP3    H270244   5.562   5.983  11.117 -1.2021  0.0350 -0.6779
16277TIP3   OH270245   3.732   2.601  13.271 -0.3941 -0.1405 -0.1850
16277TIP3    H170246   3.782   2.537  13.221  1.5344 -0.7532  2.3795
16277TIP3    H270247   3.657   2.552  13.305  0.0268 -0.5571  0.1504
16278TIP3   OH270248   4.100   5.549  15.914 -0.1879 -0.5737  0.5905
16278TIP3    H170249   4.169   5.489  15.942  0.1123  0.2813  1.7140
16278TIP3    H270250   4.142   5.602  15.846  0.2913 -0.0073  1.3199
16279TIP3   OH270251   6.320   3.125  15.553 -0.5091 -0.2478  0.6068
16279TIP3    H170252   6.227   3.120  15.533 -0.1824 -0.9751 -0.8148
16279TIP3    H270253   6.336   3.049  15.610 -0.1664 -2.1451 -1.8960
16280TIP3   OH270254   4.189   1.301   3.243 -0.2541 -0.9111 -0.4171
16280TIP3    H170255   4.152   1.345   3.166  0.7718 -1.6364 -1.3294
16280TIP3    H270256   4.120   1.241   3.271 -0.3442 -1.1794 -1.2056
16281TIP3   OH270257   3.050   1.161  11.911  0.1817 -0.4264  0.1019
16281TIP3    H170258   3.066   1.236  11.853  2.4597 -2.7367 -2.4553
16281TIP3    H270259   3.102   1.179  11.989  0.2869  0.8864 -0.2612
16282TIP3   OH270260   4.855   6.561   3.235 -0.0631 -0.3211  0.4211
16282TIP3    H170261   4.792   6.489   3.231 -1.2610  0.6998  0.2951
16282TIP3    H270262   4.887   6.560   3.325 -1.5682  0.1840  0.9967
16283TIP3   OH270263   1.296   4.542   3.397  0.1199  0.0341 -0.4059
16283TIP3    H170264   1.331   4.535   3.485  1.3660 -1.5189 -1.0036
16283TIP3    H270265   1.341   4.474   3.347 -1.6958 -0.1297 -1.8819
16284TIP3   OH270266   3.859   0.310   0.075 -0.0063  0.0441 -0.1959
16284TIP3    H170267   3.922   0.303   0.147 -0.8155 -0.2346  0.4910
16284TIP3    H270268   3.775   0.330   0.117 -0.0391  2.3215 -1.2512
16285TIP3   OH270269   0.951   1.174   4.252 -0.0676 -0.4627 -0.2150
16285TIP3    H170270   1.035   1.202   4.217 -0.8663 -0.0082 -1.8154
16285TIP3    H270271   0.973   1.112   4.322  1.6386  1.2982  0.8732
16286TIP3   OH270272   0.761   2.906  12.873 -0.0963  0.0859  0.3131
16286TIP3    H170273   0.717   2.926  12.956 -1.0394 -0.2655 -0.0968
16286TIP3    H270274   0.851   2.885  12.898 -0.4576 -0.3391  1.2823
16287TIP3   OH270275   6.594   2.468   6.726 -0.2761  0.0784  0.2713
16287TIP3    H170276   6.577   2.397   6.788  0.4366 -1.5370 -1.3360
16287TIP3    H270277   6.690   2.476   6.725 -0.3938  2.0485  1.4801
16288TIP3   OH270278   2.987   0.763  13.782 -0.1977 -0.2501  0.2118
16288TIP3    H170279   2.918   0.745  13.717  0.0341 -1.5798  0.3238
16288TIP3    H270280   2.993   0.858  13.784 -0.0297 -0.1805 -1.9202
16289TIP3   OH270281   5.780   1.513  16.666  0.9143 -0.3634  0.7950
16289TIP3    H170282   5.843   1.538  16.734  2.6488 -0.8041 -0.6146
16289TIP3    H270283   5.702   1.563  16.686  1.5070 -0.2316  2.9299
16290TIP3   OH270284   4.692   3.757   4.025  0.7281 -0.0297  0.0494
16290TIP3    H170285   4.705   3.666   3.998 -0.9444  0.4736 -2.6743
16290TIP3    H270286   4.702   3.807   3.945  0.5473  2.0868  1.3259
16291TIP3   OH270287   3.491   3.163  16.404 -0.1327 -0.2166 -0.2116
16291TIP3    H170288   3.402   3.141  16.432 -0.1491  2.2302  1.9204
16291TIP3    H270289   3.480   3.217  16.326 -0.4666 -0.8019 -0.5648
16292TIP3   OH270290   4.173   5.068   2.132  0.0464  0.4044  0.4007
16292TIP3    H170291   4.240   5.095   2.195  1.3676  0.8908 -1.1699
16292TIP3    H270292   4.115   5.144   2.124 -1.3036 -0.3488  2.4769
16293TIP3   OH270293   2.653   6.333  15.695  0.4053 -0.2517  0.1849
16293TIP3    H170294   2.611   6.392  15.633 -2.0348 -1.1512  0.9441
16293TIP3    H270295   2.671   6.254  15.644  0.9786  0.0423 -0.0758
16294TIP3   OH270296   3.496   4.382  12.411  0.0888 -0.2647 -0.3937
16294TIP3    H170297   3.516   4.301  12.364  0.2233  0.6977 -2.0303
16294TIP3    H270298   3.435   4.355  12.479  0.6919 -1.8625 -0.4548
16295TIP3   OH270299   4.646   2.645   6.182  0.0478 -0.1556 -0.0520
16295TIP3    H170300   4.554   2.666   6.195  0.0756  1.0213 -1.5676
16295TIP3    H270301   4.684   2.647   6.269 -1.3432 -0.5593  0.5733
16296TIP3   OH270302   3.107   5.784   2.586  0.7677 -0.1394 -0.1560
16296TIP3    H170303   3.185   5.824   2.626  0.2212 -0.7248  1.5535
16296TIP3    H270304   3.142   5.714   2.530  1.5327  0.4072 -0.3674
16297TIP3   OH270305   3.671   1.343  11.221  0.0207  0.1642  0.4956
16297TIP3    H170306   3.627   1.289  11.155  1.3694  0.3237 -0.5574
16297TIP3    H270307   3.678   1.286  11.297  0.0858 -0.6489 -0.1101
16298TIP3   OH270308   5.510   1.447   5.219 -0.1226  0.1731  0.3669
16298TIP3    H170309   5.588   1.500   5.202  0.4502 -0.6127  0.5456
16298TIP3    H270310   5.543   1.360   5.242 -1.1324 -1.0463 -2.6179
16299TIP3   OH270311   6.204   6.179  13.603  0.4792  0.3865  0.3121
16299TIP3    H170312   6.172   6.180  13.694 -1.4917 -2.0601 -0.2784
16299TIP3    H270313   6.293   6.146  13.609 -0.5281 -2.3005  1.1863
16300TIP3   OH270314   6.281   5.947  14.339 -0.0276 -0.5662 -0.4338
16300TIP3    H170315   6.295   5.853  14.324  1.9810 -0.3281 -0.1711
16300TIP3    H270316   6.283   5.956  14.434  1.1451 -0.0600 -0.5058
16301TIP3   OH270317   2.167   4.747  16.671  0.3471  0.0407  0.2100
16301TIP3    H170318   2.091   4.690  16.657 -1.0594  2.0103 -0.4314
16301TIP3    H270319   2.238   4.703  16.625 -1.0605 -0.4393 -1.5853
16302TIP3   OH270320   1.444   3.763  12.513 -0.3873 -0.3364 -0.8909
16302TIP3    H170321   1.511   3.715  12.465 -1.5263 -0.8599 -2.0221
16302TIP3    H270322   1.407   3.699  12.574  0.9141  0.2701  0.5434
16303TIP3   OH270323   2.794   1.090   1.734  0.1707 -0.0347  0.3037
16303TIP3    H170324   2.876   1.140   1.725 -0.7003  1.0763 -1.5758
16303TIP3    H270325   2.816   1.021   1.797  1.8688  1.7115  1.6964
16304TIP3   OH270326   2.054   5.597  11.246 -0.3750 -0.3781 -0.4829
16304TIP3    H170327   2.023   5.672  11.297  0.7632 -0.9484  1.0848
16304TIP3    H270328   2.055   5.628  11.155  0.4373  1.6127  0.1780
16305TIP3   OH270329   1.259   3.798  13.800  0.0491 -0.3289  0.2493
16305TIP3    H170330   1.274   3.828  13.890  2.2382  0.9960 -0.5157
16305TIP3    H270331   1.166   3.813  13.785  0.1279  1.6805  1.5049
16306TIP3   OH270332   6.439   2.684  14.484 -0.0874  0.0208  0.7037
16306TIP3    H170333   6.492   2.604  14.492 -1.2488 -0.8643 -0.2971
16306TIP3    H270334   6.402   2.697  14.571  1.2480  0.2771  1.2431
16307TIP3   OH270335   2.336   0.170   4.872 -0.4795 -0.2092 -0.3332
16307TIP3    H170336   2.425   0.168   4.836 -0.3600 -0.7703 -0.0130
16307TIP3    H270337   2.279   0.151   4.798 -0.3004 -0.3239 -0.4405
16308TIP3   OH270338   5.000   1.210   1.579  0.0493 -0.2634 -0.6456
16308TIP3    H170339   5.036   1.240   1.496  1.1834 -0.0599 -0.0950
16308TIP3    H270340   4.939   1.279   1.605  0.9925  0.5237 -0.4718
16309TIP3   OH270341   1.648   5.791   6.246  0.0513 -0.3763  0.1331
16309TIP3    H170342   1.605   5.777   6.331 -2.0782  0.8278 -0.7244
16309TIP3    H270343   1.589   5.849   6.198  2.2957  0.7444 -1.3690
16310TIP3   OH270344   4.595   4.845  10.251 -0.1649  0.2916 -0.3094
16310TIP3    H170345   4.532   4.799  10.307 -2.3439  1.1250 -1.9982
16310TIP3    H270346   4.605   4.931  10.293  0.9414 -0.3367  0.7291
16311TIP3   OH270347   6.421   5.804   4.800 -0.4047  0.3637 -0.3558
16311TIP3    H170348   6.509   5.826   4.831 -0.4425  0.5146 -0.3536
16311TIP3    H270349   6.391   5.883   4.754 -1.0366  0.7536  0.7242
16312TIP3   OH270350   5.237   0.556   2.559  0.2473 -0.1280  0.6486
16312TIP3    H170351   5.174   0.524   2.625  0.7079  0.6503  1.4742
16312TIP3    H270352   5.287   0.479   2.535 -0.3133 -0.5396  0.7823
16313TIP3   OH270353   5.672   6.401  11.796 -0.0805 -0.1968 -0.0792
16313TIP3    H170354   5.645   6.328  11.741 -3.2628  0.7513  0.1278
16313TIP3    H270355   5.713   6.462  11.736  1.1594 -1.4386 -0.5133
16314TIP3   OH270356   1.487   4.226   1.748 -0.4783 -0.2713 -0.1116
16314TIP3    H170357   1.569   4.221   1.698  0.2285 -1.9488  1.1730
16314TIP3    H270358   1.475   4.137   1.783 -1.2672  0.7099  2.1849
16315TIP3   OH270359   2.223   4.377   3.340  0.2948  0.6993  1.1067
16315TIP3    H170360   2.230   4.341   3.428 -0.1993 -1.4939  0.2694
16315TIP3    H270361   2.289   4.330   3.289 -0.7893  0.5200 -0.1534
16316TIP3   OH270362   3.919   4.607   3.774 -0.0160  0.6751  0.3191
16316TIP3    H170363   3.853   4.539   3.757  1.1901 -0.5843  0.5089
16316TIP3    H270364   3.891   4.648   3.855  0.7302 -1.5310  1.7486
16317TIP3   OH270365   3.464   0.609   0.641 -0.0411 -0.0778  0.0542
16317TIP3    H170366   3.429   0.569   0.721 -0.4537  1.2002  0.5201
16317TIP3    H270367   3.471   0.702   0.662 -0.6506  0.3464 -1.5803
16318TIP3   OH270368   4.754   1.028  14.849 -0.4324 -0.4543 -0.1464
16318TIP3    H170369   4.767   1.033  14.754 -2.3215 -1.6196 -0.4905
16318TIP3    H270370   4.729   1.116  14.874  0.8354  0.0479 -0.5985
16319TIP3   OH270371   1.846   4.872   1.347  0.2738 -0.3620 -0.5578
16319TIP3    H170372   1.918   4.918   1.305  0.8321  0.5090  1.2757
16319TIP3    H270373   1.867   4.779   1.336  1.0145 -0.1246 -1.1598
16320TIP3   OH270374   2.221   1.327   0.752 -0.4333  0.2516  0.1284
16320TIP3    H170375   2.194   1.312   0.661 -2.9008  0.0122  0.8374
16320TIP3    H270376   2.316   1.316   0.752 -0.3537  0.6847 -2.4960
16321TIP3   OH270377   4.296   5.053   4.535  0.2314  0.2628  0.1181
16321TIP3    H170378   4.214   5.064   4.487 -0.0190 -0.1388  0.4506
16321TIP3    H270379   4.360   5.027   4.469  0.0916  0.5857 -0.1430
16322TIP3   OH270380   5.716   0.724  12.005 -0.2670 -0.3144  0.3001
16322TIP3    H170381   5.724   0.668  12.082 -1.0052  2.6818  2.6587
16322TIP3    H270382   5.624   0.750  12.004 -0.3508 -0.6647 -1.8632
16323TIP3   OH270383   3.226   2.079  14.246  0.5610 -0.2663 -0.4292
16323TIP3    H170384   3.196   2.142  14.180 -1.3816 -0.9061 -0.1735
16323TIP3    H270385   3.306   2.041  14.208 -0.1124 -0.0853 -2.0713
16324TIP3   OH270386   2.416   4.474  12.197 -0.3914  0.5957  0.1454
16324TIP3    H170387   2.373   4.552  12.162 -0.3210  0.4816 -0.1955
16324TIP3    H270388   2.445   4.501  12.284 -1.6065  0.5070  0.5868
16325TIP3   OH270389   0.644   3.239   3.445  0.4249  0.2007 -0.2350
16325TIP3    H170390   0.581   3.167   3.447  0.9519 -0.3832 -2.5656
16325TIP3    H270391   0.669   3.252   3.537 -2.6954  0.1440  0.6567
16326TIP3   OH270392   0.462   2.948   0.801  0.1962  0.3646 -0.4831
16326TIP3    H170393   0.464   2.868   0.854 -1.9674  0.2005 -0.5968
16326TIP3    H270394   0.451   2.916   0.711  0.4155  0.7719 -0.6566
16327TIP3   OH270395   3.584   6.299   1.110  0.2813  0.6990 -0.4850
16327TIP3    H170396   3.629   6.230   1.061 -1.3002 -0.7696  0.0722
16327TIP3    H270397   3.548   6.356   1.042  2.1559  1.3721 -0.9418
16328TIP3   OH270398   2.727   0.971  15.771  0.4587 -0.3099 -0.3710
16328TIP3    H170399   2.675   1.010  15.701  0.5488 -0.5097 -0.5500
16328TIP3    H270400   2.737   1.041  15.836  0.2352 -0.1773 -0.4828
16329TIP3   OH270401   6.235   6.368  10.531 -0.8312  0.0489  0.4351
16329TIP3    H170402   6.226   6.459  10.559 -1.6402  0.2250 -0.3767
16329TIP3    H270403   6.297   6.371  10.458 -1.6375  0.0925 -0.2594
16330TIP3   OH270404   6.666   6.188   5.018  0.3563  0.5286  0.4166
16330TIP3    H170405   6.699   6.241   5.091  0.2443  1.3582 -0.1278
16330TIP3    H270406   6.703   6.229   4.940 -1.2607  0.9479 -0.1400
16331TIP3   OH270407   0.972   3.666   4.256  0.1350 -0.2325  0.0774
16331TIP3    H170408   1.012   3.747   4.224 -1.0776  0.2486 -0.2607
16331TIP3    H270409   0.882   3.692   4.279  0.0111 -1.2915  0.7943
16332TIP3   OH270410   3.185   5.169   2.972  0.2275  0.0090 -0.4238
16332TIP3    H170411   3.148   5.172   3.060 -0.3456 -0.6179 -0.6418
16332TIP3    H270412   3.187   5.261   2.943 -1.0751  0.0536 -0.3783
16333TIP3   OH270413   4.092   2.518   5.517  0.0460  0.2296 -0.3047
16333TIP3    H170414   4.121   2.500   5.606  1.9703 -0.9813 -1.1604
16333TIP3    H270415   4.128   2.604   5.496 -1.5367  1.1304  0.5288
16334TIP3   OH270416   6.129   5.689   0.590  0.3367 -0.0509 -0.3467
16334TIP3    H170417   6.104   5.698   0.682  2.2294 -1.6357  0.3656
16334TIP3    H270418   6.225   5.687   0.591  0.3670 -0.9432 -2.2664
16335TIP3   OH270419   5.397   2.443  12.674  0.5446 -0.0692  0.6359
16335TIP3    H170420   5.367   2.354  12.691 -0.2396  0.2070  0.7425
16335TIP3    H270421   5.316   2.492  12.657  1.0316  0.4356 -0.2807
16336TIP3   OH270422   3.050   4.031  13.618 -0.6201  0.4250  0.3775
16336TIP3    H170423   3.092   3.990  13.694 -2.3877  1.1879  1.8188
16336TIP3    H270424   2.997   3.961  13.579  0.1192  0.0902 -0.0367
16337TIP3   OH270425   5.149   0.091   3.426  0.1730 -0.3087  0.6019
16337TIP3    H170426   5.072   0.098   3.371  1.2214  0.0491 -0.8538
16337TIP3    H270427   5.154  -0.002   3.448  0.1773 -0.5947 -0.5626
16338TIP3   OH270428   5.964   1.319   6.319  0.6302  0.4256 -0.0731
16338TIP3    H170429   6.027   1.282   6.382  0.3510 -0.2133 -0.1679
16338TIP3    H270430   5.904   1.247   6.300  0.0457  0.9470 -0.2179
16339TIP3   OH270431   6.675   0.293   1.220  0.5054  0.1791  0.3960
16339TIP3    H170432   6.586   0.323   1.241  0.7438  1.8531 -0.9328
16339TIP3    H270433   6.688   0.318   1.129  2.1275 -0.6163  0.3971
16340TIP3   OH270434   4.353   4.091  11.974 -0.6366  0.2704 -0.0822
16340TIP3    H170435   4.357   4.076  11.880  1.8205 -0.0044  0.0290
16340TIP3    H270436   4.385   4.009  12.012 -0.4918  0.7955  0.9474
16341TIP3   OH270437   3.733   3.250  16.481 -0.4026  0.0888 -0.2225
16341TIP3    H170438   3.640   3.249  16.462 -0.3476 -0.1676 -0.4763
16341TIP3    H270439   3.746   3.329  16.534 -0.7996 -0.0070  0.0168
16342TIP3   OH270440   6.752   4.724  15.847  0.4697 -0.4605  0.1058
16342TIP3    H170441   6.789   4.759  15.766 -1.7061 -0.4137 -0.9020
16342TIP3    H270442   6.781   4.632  15.849  0.0850 -0.6147 -1.0146
16343TIP3   OH270443   5.198   1.404   2.301  0.2098 -0.2312 -0.4829
16343TIP3    H170444   5.166   1.324   2.259 -0.6071  0.4594 -1.1844
16343TIP3    H270445   5.221   1.462   2.228  0.9285  0.1337  0.0218
16344TIP3   OH270446   2.269   5.502   0.849  0.7123 -0.1056  0.1018
16344TIP3    H170447   2.347   5.448   0.834  1.3483  0.7622  0.2498
16344TIP3    H270448   2.202   5.440   0.877  1.7978 -0.6607  1.5460
16345TIP3   OH270449   3.965   5.699   4.759  0.6525  0.2004 -0.7815
16345TIP3    H170450   4.056   5.681   4.737  0.5318 -1.4975  0.0288
16345TIP3    H270451   3.964   5.792   4.783  2.2505  0.1410 -0.4274
16346TIP3   OH270452   3.143   5.556   2.435 -0.3753  0.1703  0.0954
16346TIP3    H170453   3.184   5.615   2.371  0.1612  0.3032  0.5623
16346TIP3    H270454   3.144   5.470   2.392 -0.6635  0.3968 -0.3671
16347TIP3   OH270455   0.613   2.106  12.519  0.2473 -0.0942  0.0402
16347TIP3    H170456   0.573   2.028  12.481  0.4652 -0.3377  0.3071
16347TIP3    H270457   0.658   2.148  12.446  1.9291 -1.3628  0.3327
16348TIP3   OH270458   2.836   2.824  16.576  0.6419 -0.7133 -0.1490
16348TIP3    H170459   2.821   2.744  16.626 -0.3444 -1.1136 -1.0781
16348TIP3    H270460   2.909   2.802  16.518  1.9690 -0.1611  1.2773
16349TIP3   OH270461   3.346   1.348  13.802 -0.5953 -0.4497 -0.3571
16349TIP3    H170462   3.435   1.327  13.831 -0.5685  1.6532  1.2485
16349TIP3    H270463   3.332   1.293  13.725  1.7065 -1.5704 -0.0270
16350TIP3   OH270464   6.291   2.103   2.247  0.3598 -0.5197  0.7014
16350TIP3    H170465   6.279   2.008   2.241  1.1423 -0.6000  0.3136
16350TIP3    H270466   6.385   2.116   2.241  0.1382  0.4075 -1.4230
16351TIP3   OH270467   0.547   4.105  11.074 -0.1398  0.3667 -0.0096
16351TIP3    H170468   0.467   4.088  11.024  0.0932 -0.7808 -0.0045
16351TIP3    H270469   0.516   4.125  11.162 -0.4828  1.0465 -0.2847
16352TIP3   OH270470   2.422   0.682  13.939 -0.0243 -0.2958  0.0361
16352TIP3    H170471   2.416   0.602  13.887 -0.5654 -0.8704  0.9784
16352TIP3    H270472   2.428   0.752  13.874 -1.5263 -0.9380 -0.8330
16353TIP3   OH270473   1.118   0.601  15.496 -0.6680  0.3235 -0.1398
16353TIP3    H170474   1.166   0.666  15.445  0.2181  1.2007  1.7400
16353TIP3    H270475   1.060   0.653  15.552 -1.6100 -0.6085 -0.2518
16354TIP3   OH270476   0.500   4.010   2.967 -0.3442  0.1580 -0.2217
16354TIP3    H170477   0.562   4.076   2.997  0.4185  0.4432 -2.3425
16354TIP3    H270478   0.517   4.002   2.873 -0.8120 -2.6143 -0.1163
16355TIP3   OH270479   0.926   6.043  11.632  0.5456 -0.4869 -0.0547
16355TIP3    H170480   0.837   6.008  11.630  0.7861 -1.0591 -1.4076
16355TIP3    H270481   0.933   6.095  11.552  1.2201  0.0644  0.3623
16356TIP3   OH270482   1.690   4.904  16.851 -0.4924  0.0321 -0.1159
16356TIP3    H170483   1.706   4.823  16.899  1.3343  1.3678  1.6132
16356TIP3    H270484   1.597   4.899  16.826 -0.8913 -1.7147  1.6175
16357TIP3   OH270485   3.202   0.257   3.991 -0.0153 -0.8050 -0.0890
16357TIP3    H170486   3.169   0.168   3.984 -0.7419 -0.7392  2.0525
16357TIP3    H270487   3.155   0.306   3.923  0.1470 -1.9669 -1.0521
16358TIP3   OH270488   5.020   6.112   4.789 -0.2094  0.2704 -0.3608
16358TIP3    H170489   5.116   6.111   4.794 -0.1234 -1.7495 -1.8362
16358TIP3    H270490   4.991   6.051   4.857 -0.4305  0.4861 -0.2617
16359TIP3   OH270491   4.268   0.306  15.217 -0.2978 -0.4274 -0.0167
16359TIP3    H170492   4.201   0.365  15.250 -0.2551 -0.5966  0.3781
16359TIP3    H270493   4.348   0.333  15.262  0.1656  0.5765 -1.4004
16360TIP3   OH270494   6.757   4.582  12.798 -0.4382 -1.0743 -0.2714
16360TIP3    H170495   6.781   4.550  12.886  0.8456  0.3211 -0.0917
16360TIP3    H270496   6.670   4.619  12.808 -0.2258 -0.7643  0.4688
16361TIP3   OH270497   1.514   4.929  10.662 -0.0856  0.4685  0.1210
16361TIP3    H170498   1.481   5.017  10.681 -0.8794  0.0885  0.5407
16361TIP3    H270499   1.490   4.914  10.571 -1.8803 -0.1351  0.6621
16362TIP3   OH270500   4.002   2.491   2.268 -0.2520 -0.6383  0.2398
16362TIP3    H170501   3.918   2.448   2.255 -0.9744  1.1622 -1.1442
16362TIP3    H270502   4.056   2.461   2.195  0.0527 -1.1075  0.6490
16363TIP3   OH270503   2.513   5.903   4.160 -0.1162 -0.0375 -0.2035
16363TIP3    H170504   2.533   5.917   4.252 -2.3597  0.4924  0.2322
16363TIP3    H270505   2.422   5.931   4.150 -0.0086 -0.3529 -2.5182
16364TIP3   OH270506   0.622   5.667  11.899  0.0547  0.3768 -0.8984
16364TIP3    H170507   0.628   5.614  11.820  0.0543 -0.4717 -0.3448
16364TIP3    H270508   0.702   5.720  11.900  0.3323 -0.0346 -1.1677
16365TIP3   OH270509   2.921   3.911  11.253 -0.5732 -0.0932 -0.7250
16365TIP3    H170510   2.874   3.830  11.233 -0.0833 -0.4422 -0.4735
16365TIP3    H270511   2.877   3.946  11.331 -2.4497  1.2369 -2.3323
16366TIP3   OH270512   1.676   4.116  13.428 -0.3023  0.3997  0.4673
16366TIP3    H170513   1.616   4.188  13.409  0.8553  1.3488  0.3549
16366TIP3    H270514   1.689   4.073  13.343 -0.6084  0.3396  0.4462
16367TIP3   OH270515   3.114   5.558  15.577 -0.1772 -0.5348  0.0716
16367TIP3    H170516   3.056   5.539  15.651  0.8222 -0.2128  0.9556
16367TIP3    H270517   3.119   5.476  15.529 -2.0143 -0.3383 -0.4786
16368TIP3   OH270518   4.512   3.228   6.179  0.1391  0.1119 -0.0241
16368TIP3    H170519   4.518   3.236   6.274 -1.8067  1.5830  0.0131
16368TIP3    H270520   4.511   3.134   6.162 -0.1802 -0.1551  1.4688
16369TIP3   OH270521   6.267   1.856   6.041  0.5643  0.0854  0.5874
16369TIP3    H170522   6.337   1.913   6.010 -0.2780  0.5832 -0.4328
16369TIP3    H270523   6.187   1.894   6.004  0.0117 -1.8688 -0.2939
16370TIP3   OH270524   0.520   2.548  15.619  0.1348  0.0613  0.2397
16370TIP3    H170525   0.610   2.564  15.592  0.1230 -0.5697 -0.1683
16370TIP3    H270526   0.496   2.466  15.577 -0.8135  0.5113 -0.1085
16371TIP3   OH270527   4.141   1.969  13.936 -0.2185 -0.0490  0.1428
16371TIP3    H170528   4.154   1.874  13.933 -0.6356 -0.1336  1.0057
16371TIP3    H270529   4.221   2.003  13.976  0.5193  0.0964 -1.3975
16372TIP3   OH270530   0.546   3.487   2.155  0.4306  0.8263  0.0684
16372TIP3    H170531   0.469   3.474   2.100 -0.1763 -0.5890  1.2453
16372TIP3    H270532   0.595   3.406   2.148 -0.2556  0.1704  2.5477
16373TIP3   OH270533   1.333   4.247   0.950 -0.4063 -0.3826  0.0713
16373TIP3    H170534   1.309   4.326   0.900 -1.3838 -1.2143 -0.7990
16373TIP3    H270535   1.386   4.196   0.890  0.1776 -0.4229  0.6191
16374TIP3   OH270536   6.250   3.692  16.540  0.1242 -0.3365  0.2834
16374TIP3    H170537   6.217   3.668  16.453 -1.3460  0.2469  0.6698
16374TIP3    H270538   6.326   3.635  16.553  0.4295 -0.3605 -1.4287
16375TIP3   OH270539   6.162   1.246   1.678  0.4762  0.0124  0.2804
16375TIP3    H170540   6.231   1.198   1.631  0.6875 -0.8144  1.4161
16375TIP3    H270541   6.182   1.338   1.663  1.5349 -0.2309  0.1668
16376TIP3   OH270542   4.035   4.281  11.117 -0.4750  0.0329  0.0048
16376TIP3    H170543   4.002   4.308  11.032  3.2129  2.4391 -0.7830
16376TIP3    H270544   4.081   4.199  11.100 -1.3716 -0.4893  0.0726
16377TIP3   OH270545   6.343   0.898   1.220 -0.0492 -0.1110  0.1699
16377TIP3    H170546   6.343   0.894   1.315 -1.6372  3.8451  0.4435
16377TIP3    H270547   6.253   0.875   1.195  0.5210 -1.7306 -0.4340
16378TIP3   OH270548   6.734   3.585   5.163 -0.2920 -0.3778  0.1759
16378TIP3    H170549   6.803   3.523   5.186  0.2502  0.1344 -0.0738
16378TIP3    H270550   6.682   3.539   5.096  0.4709 -0.3269 -0.4582
16379TIP3   OH270551   2.358   2.699  14.733  0.6545  0.2492  0.0331
16379TIP3    H170552   2.357   2.794  14.742  0.1873  0.2164  0.3311
16379TIP3    H270553   2.449   2.678  14.711  0.6839  0.7955 -0.3836
16380TIP3   OH270554   5.941   5.256   2.659  0.4425 -0.4295 -0.3404
16380TIP3    H170555   5.978   5.342   2.641 -1.4837  0.2393 -1.1866
16380TIP3    H270556   5.846   5.270   2.661  0.0567 -2.6726 -1.3091
16381TIP3   OH270557   4.386   6.568   3.455  0.5963  0.3510  0.0116
16381TIP3    H170558   4.406   6.474   3.449 -0.1134  0.2158 -0.3062
16381TIP3    H270559   4.290   6.572   3.449  0.4291  0.8884  2.6131
16382TIP3   OH270560   5.049   5.286  16.904 -0.3066  0.3536 -0.0464
16382TIP3    H170561   4.961   5.318  16.886 -0.6102  0.3290  1.3318
16382TIP3    H270562   5.096   5.363  16.937 -0.3327 -0.0416  0.9270
16383TIP3   OH270563   6.661   3.458  11.463  0.3896 -0.4678 -0.7895
16383TIP3    H170564   6.735   3.515  11.443  0.8488 -0.9856 -0.5910
16383TIP3    H270565   6.698   3.370  11.462 -0.3363 -0.7728 -1.1931
16384TIP3   OH270566   5.922   2.653  15.374 -0.0254  0.0922  0.3000
16384TIP3    H170567   5.942   2.614  15.459 -1.2218  1.0493  1.0489
16384TIP3    H270568   6.001   2.703  15.351  0.4273 -0.4406  0.6982
16385TIP3   OH270569   4.504   5.077   1.431 -0.1891 -0.2245  0.8796
16385TIP3    H170570   4.473   5.158   1.390  1.4232  1.4114  2.7976
16385TIP3    H270571   4.425   5.036   1.465 -1.1932 -0.1758 -1.3274
16386TIP3   OH270572   2.836   0.983  14.054  0.3607  0.1637  0.4585
16386TIP3    H170573   2.915   0.935  14.032  0.1920  0.5412 -1.0403
16386TIP3    H270574   2.767   0.917  14.055  0.3263  0.1867 -0.4148
16387TIP3   OH270575   1.897   3.843   3.530 -0.2875 -0.1501  0.9550
16387TIP3    H170576   1.985   3.836   3.567  0.8185  0.9922 -1.3491
16387TIP3    H270577   1.861   3.755   3.537  1.6076 -0.9745  0.5939
16388TIP3   OH270578   4.785   1.538  13.158  0.0201 -0.4148  0.0554
16388TIP3    H170579   4.789   1.455  13.110  0.2808 -1.6115  2.0830
16388TIP3    H270580   4.717   1.524  13.224  0.6318  0.6994  0.9365
16389TIP3   OH270581   5.023   2.942   3.179 -1.2071 -0.3762  0.5861
16389TIP3    H170582   4.955   2.957   3.114 -1.5989  0.2116  1.1261
16389TIP3    H270583   5.099   2.913   3.128 -1.0597  1.4579 -0.3023
16390TIP3   OH270584   5.449   5.453   5.275 -0.2766 -0.0061  0.5858
16390TIP3    H170585   5.439   5.539   5.316 -2.3610  0.3744 -0.6073
16390TIP3    H270586   5.454   5.392   5.348  1.8790  1.1746  1.4529
16391TIP3   OH270587   1.114   2.466  14.129  0.5027  0.2369  0.3800
16391TIP3    H170588   1.026   2.498  14.107  0.2444  0.5171  1.7672
16391TIP3    H270589   1.173   2.527  14.085  0.0200 -0.3777 -1.1682
16392TIP3   OH270590   3.959   6.529  13.225  0.8387  0.2877  0.8503
16392TIP3    H170591   4.015   6.604  13.204  1.1014  0.1748  1.1308
16392TIP3    H270592   3.879   6.568  13.260  1.0413  0.4318  1.1537
16393TIP3   OH270593   3.884   6.326  13.665 -0.4131 -0.2362 -0.2538
16393TIP3    H170594   3.791   6.338  13.647 -0.2250 -0.4062 -1.3683
16393TIP3    H270595   3.927   6.341  13.580  0.4723 -1.3060 -0.0056
16394TIP3   OH270596   0.020   0.804   4.365  0.4287  0.7304  0.0040
16394TIP3    H170597   0.059   0.880   4.409  0.7400  0.3159  0.4593
16394TIP3    H270598   0.075   0.730   4.392 -0.3203  0.2256  0.1738
16395TIP3   OH270599   0.008   4.531  14.880  0.4493  0.2255 -0.0768
16395TIP3    H170600  -0.082   4.498  14.870  0.0014  0.7342  2.0460
16395TIP3    H270601   0.014   4.603  14.818 -0.3167 -0.3934 -0.8904
16396TIP3   OH270602   2.863   1.602  11.861 -0.0752 -0.0739 -0.1881
16396TIP3    H170603   2.934   1.537  11.860 -0.0256 -0.0240  0.0999
16396TIP3    H270604   2.879   1.656  11.784  0.3557  0.1032  0.0224
16397TIP3   OH270605   0.277   5.409  15.131  0.8729  0.3188 -0.3035
16397TIP3    H170606   0.277   5.487  15.187  0.1752  0.5550 -0.6278
16397TIP3    H270607   0.368   5.379  15.132  0.6598 -0.2636  1.7482
16398TIP3   OH270608   5.852   4.001  10.575  0.1212  0.3841 -0.1060
16398TIP3    H170609   5.946   4.010  10.555  0.0064 -0.9593 -1.3530
16398TIP3    H270610   5.814   4.085  10.551  1.2287  1.4536  1.7844
16399TIP3   OH270611   3.569   4.610  14.852 -0.2276  0.1111 -0.5923
16399TIP3    H170612   3.621   4.690  14.862 -0.3558 -0.0697  2.0782
16399TIP3    H270613   3.634   4.540  14.854 -0.3921 -0.0285  1.1850
16400TIP3   OH270614   2.646   5.502   1.499 -0.1773  0.4405  0.1627
16400TIP3    H170615   2.585   5.568   1.530  0.0316  1.9480 -2.4422
16400TIP3    H270616   2.666   5.529   1.409  1.8530 -1.7854 -0.0995
16401TIP3   OH270617   1.001   4.760  12.109 -0.1450  0.0209 -0.0907
16401TIP3    H170618   0.976   4.793  12.023  0.3658  2.7253  0.7547
16401TIP3    H270619   1.088   4.796  12.124 -0.5284  0.1781  1.8535
16402TIP3   OH270620   2.647   4.543   0.850 -0.1880  0.3095 -0.1535
16402TIP3    H170621   2.569   4.501   0.814 -0.4367  1.9364 -1.5867
16402TIP3    H270622   2.658   4.504   0.936 -2.9369  0.5039  0.3081
16403TIP3   OH270623   1.762   5.248   2.981  0.8006  0.4869 -0.0939
16403TIP3    H170624   1.848   5.282   2.958  0.6618  0.8419 -0.0851
16403TIP3    H270625   1.760   5.160   2.943  1.2583  0.3854  0.1146
16404TIP3   OH270626   5.164   1.378  13.175 -0.4140  0.3880  0.3997
16404TIP3    H170627   5.248   1.413  13.145 -0.0637 -0.4452  0.4171
16404TIP3    H270628   5.113   1.367  13.095  0.7292 -2.3994 -0.0035
16405TIP3   OH270629   5.196   1.391   5.878 -0.5528  0.1167  0.4109
16405TIP3    H170630   5.127   1.409   5.815 -0.5645 -0.6055  0.2224
16405TIP3    H270631   5.150   1.358   5.956 -0.4541  0.0506  0.4415
16406TIP3   OH270632   4.723   6.036   4.998  0.1026  0.8112 -0.4797
16406TIP3    H170633   4.818   6.033   4.995  0.0997 -0.6786  0.7267
16406TIP3    H270634   4.700   6.010   5.087 -1.5549 -2.6729 -1.8298
16407TIP3   OH270635   3.189   4.216  13.449  0.0071  0.5152  0.3933
16407TIP3    H170636   3.140   4.167  13.515 -1.5334  0.0717 -1.0285
16407TIP3    H270637   3.280   4.191  13.463 -0.4413 -0.5315  1.5380
16408TIP3   OH270638   4.318   5.406  14.638 -0.3371 -0.0597  0.3118
16408TIP3    H170639   4.234   5.362  14.650 -0.2952 -0.7040 -1.6638
16408TIP3    H270640   4.376   5.340  14.601  0.4658  0.9354 -0.2500
16409TIP3   OH270641   4.987   4.346   5.529 -0.2406 -0.8743 -0.9218
16409TIP3    H170642   5.058   4.377   5.586 -0.9477  0.7449 -0.8845
16409TIP3    H270643   5.023   4.268   5.487  1.9533  0.4766 -1.6551
16410TIP3   OH270644   5.077   6.319   5.825 -0.3206 -0.2736 -0.6257
16410TIP3    H170645   5.123   6.374   5.762  0.6433 -1.0364 -0.5965
16410TIP3    H270646   5.143   6.296   5.890 -1.6737  1.8144  1.5756
16411TIP3   OH270647   2.717   1.268   4.295 -0.3427  0.2905  0.1065
16411TIP3    H170648   2.707   1.246   4.388 -0.7707  0.2761  0.0579
16411TIP3    H270649   2.784   1.336   4.294  0.3519 -0.3868  0.3336
16412TIP3   OH270650   1.320   5.825  13.938  0.2815 -0.0403 -0.4915
16412TIP3    H170651   1.386   5.813  14.007  0.3078 -0.8065 -0.6410
16412TIP3    H270652   1.286   5.913  13.953 -0.2074 -0.4513  0.9286
16413TIP3   OH270653   0.397   3.585   0.265 -0.1425 -0.0706  0.1559
16413TIP3    H170654   0.424   3.579   0.173  1.8119  1.4777  0.6067
16413TIP3    H270655   0.479   3.576   0.314 -1.1244 -0.4273  1.7446
16414TIP3   OH270656   1.593   1.274  13.337 -0.6150 -0.3595 -0.0625
16414TIP3    H170657   1.545   1.319  13.408  1.9776  1.6008  0.5441
16414TIP3    H270658   1.677   1.251  13.377  0.3315 -0.5061 -2.1150
16415TIP3   OH270659   6.487   5.809  16.678  0.1436 -0.3991 -0.2690
16415TIP3    H170660   6.459   5.788  16.589 -2.1954 -0.3224  0.4138
16415TIP3    H270661   6.482   5.904  16.683 -0.1863 -0.4314  0.0679
16416TIP3   OH270662   2.973   3.014  14.024 -0.0450 -0.3324 -0.1497
16416TIP3    H170663   2.929   3.055  14.098 -2.7376 -1.1482 -1.2414
16416TIP3    H270664   2.946   3.066  13.948  2.0708  0.0384 -0.6675
16417TIP3   OH270665   0.910   0.285  16.138  0.1502  0.3006  0.6585
16417TIP3    H170666   0.917   0.190  16.147  0.7015  0.4289  1.7299
16417TIP3    H270667   0.817   0.302  16.128  0.1164 -0.4113 -0.2867
16418TIP3   OH270668   3.998   0.820  13.236 -0.2982 -0.6589  0.7200
16418TIP3    H170669   4.067   0.785  13.180  1.3467  0.5706  1.9346
16418TIP3    H270670   4.025   0.910  13.254 -1.8451 -0.3908  1.8456
16419TIP3   OH270671   2.316   2.053   3.893 -0.5222  0.1029  0.0166
16419TIP3    H170672   2.329   2.041   3.987  0.2069 -3.0423 -0.4238
16419TIP3    H270673   2.388   2.109   3.866 -1.6008  2.3323  1.5331
16420TIP3   OH270674   0.774   2.337   1.362 -0.1567 -0.3009  1.0570
16420TIP3    H170675   0.829   2.266   1.330  0.5601  0.8319 -0.2660
16420TIP3    H270676   0.828   2.381   1.428 -0.0110 -0.0475  0.7692
16421TIP3   OH270677   3.639   1.077   4.947 -0.6241  0.6006 -0.0759
16421TIP3    H170678   3.557   1.111   4.909 -0.2874  1.5068 -0.0007
16421TIP3    H270679   3.642   1.114   5.035  0.3111  1.3209 -0.3936
16422TIP3   OH270680   6.442   5.142  16.534 -0.2593  0.1965  0.1912
16422TIP3    H170681   6.444   5.133  16.629 -0.5107  1.0586  0.2818
16422TIP3    H270682   6.484   5.062  16.501  1.6066  0.7941  1.0720
16423TIP3   OH270683   4.009   2.080   5.824  0.4073 -0.3846 -0.2483
16423TIP3    H170684   4.084   2.133   5.850  0.1009  0.9263 -1.9434
16423TIP3    H270685   4.047   1.998   5.793  1.0826 -0.0562 -0.3008
16424TIP3   OH270686   4.666   6.317   5.610  0.0644  0.2015 -0.3015
16424TIP3    H170687   4.756   6.315   5.575 -0.1683  3.3302 -1.2386
16424TIP3    H270688   4.674   6.361   5.694 -0.4160 -0.8508  0.3073
16425TIP3   OH270689   4.502   3.005  16.319 -0.2419 -0.5961  0.5983
16425TIP3    H170690   4.408   3.025  16.323 -0.9011 -2.8754 -2.3075
16425TIP3    H270691   4.512   2.927  16.373 -0.0383 -0.4805  0.7298
16426TIP3   OH270692   4.947   4.262  16.528 -0.1298 -0.1657  0.2930
16426TIP3    H170693   4.941   4.180  16.479  2.1978  0.5243 -1.2337
16426TIP3    H270694   4.916   4.240  16.616 -2.4524 -1.9188 -0.8963
16427TIP3   OH270695   1.712   3.218  15.533  0.1415  0.7151  0.2921
16427TIP3    H170696   1.764   3.280  15.483 -0.9347  0.9180 -0.6064
16427TIP3    H270697   1.736   3.132  15.498  1.5033  0.6249  1.4185
16428TIP3   OH270698   5.907   1.116  12.068 -0.4683  0.1374  0.2879
16428TIP3    H170699   5.946   1.056  12.132 -2.2575 -1.8843 -0.4520
16428TIP3    H270700   5.896   1.063  11.989 -1.9417  1.4675 -0.4373
16429TIP3   OH270701   0.608   0.899   2.834 -0.5913  0.1634  0.0103
16429TIP3    H170702   0.662   0.890   2.912 -0.8053 -1.0671  0.0282
16429TIP3    H270703   0.531   0.947   2.863  0.1126  1.1984  0.1714
16430TIP3   OH270704   1.038   4.337   4.719  0.6662  0.2172 -0.2212
16430TIP3    H170705   1.019   4.338   4.625  0.3224 -4.2543 -0.2808
16430TIP3    H270706   0.954   4.315   4.760  1.0471  1.1490  1.1187
16431TIP3   OH270707   5.235   4.207   0.802 -0.4648  0.4283 -0.2983
16431TIP3    H170708   5.290   4.285   0.811 -0.4990  0.5949 -1.5376
16431TIP3    H270709   5.155   4.229   0.849  0.5792  0.1067  1.7127
16432TIP3   OH270710   4.790   6.385  14.039 -0.1592 -0.5567 -0.5700
16432TIP3    H170711   4.756   6.380  14.129 -0.6573 -0.3275 -0.7416
16432TIP3    H270712   4.847   6.462  14.040  0.8852 -1.3277 -0.1114
16433TIP3   OH270713   4.886   2.332  10.761  0.5035  0.0269  0.1250
16433TIP3    H170714   4.937   2.252  10.774  1.1609  0.4753  0.3176
16433TIP3    H270715   4.815   2.305  10.703  0.2760 -0.8757  0.8120
16434TIP3   OH270716   0.521   4.647  15.161 -0.1649  0.0582  0.4745
16434TIP3    H170717   0.616   4.644  15.163 -0.0815  1.1093 -1.2503
16434TIP3    H270718   0.498   4.628  15.070 -1.5560  0.9979  0.6131
16435TIP3   OH270719   1.633   2.198  17.119  0.2765 -0.6201  0.5990
16435TIP3    H170720   1.544   2.220  17.146  0.2541 -1.7247  1.4333
16435TIP3    H270721   1.681   2.186  17.200  1.5777  1.4290  0.1675
16436TIP3   OH270722   1.425   3.648  13.665 -0.1125  0.1000  0.0881
16436TIP3    H170723   1.415   3.674  13.573 -0.3176  1.2087  0.4208
16436TIP3    H270724   1.382   3.718  13.715  0.4581 -0.2327  1.0532
16437TIP3   OH270725   0.501   0.156  13.672  0.1472  0.0492  0.2420
16437TIP3    H170726   0.454   0.097  13.730 -1.5873  0.8741 -0.2982
16437TIP3    H270727   0.463   0.242  13.689  1.9823  0.8710  0.3264
16438TIP3   OH270728   0.330   2.957  16.869  0.0614 -0.0827  0.5289
16438TIP3    H170729   0.293   2.957  16.957 -4.1230  0.3530 -1.1385
16438TIP3    H270730   0.349   2.865  16.851 -0.5720 -0.3677  1.2625
16439TIP3   OH270731   4.676   6.451   2.439 -0.3179 -0.2692  0.0099
16439TIP3    H170732   4.689   6.365   2.479 -1.9156 -0.0087  1.1715
16439TIP3    H270733   4.582   6.466   2.447  0.0811  1.9836  0.6622
16440TIP3   OH270734   2.500   3.964   1.035  0.0467  0.1166  0.2748
16440TIP3    H170735   2.412   3.989   1.064  0.2689  0.6727  0.4713
16440TIP3    H270736   2.513   4.012   0.953 -0.4262 -1.1446 -0.5505
16441TIP3   OH270737   3.520   2.989   3.009 -0.0817  0.1489 -0.6009
16441TIP3    H170738   3.449   3.050   3.032 -0.7292 -0.5064 -0.8677
16441TIP3    H270739   3.595   3.046   2.991 -1.1929  0.9865 -2.7193
16442TIP3   OH270740   2.581   4.862  15.754 -0.3217  0.2090 -0.2282
16442TIP3    H170741   2.514   4.927  15.730 -1.4452 -1.1578 -0.8836
16442TIP3    H270742   2.568   4.790  15.692  1.8773 -0.0250 -0.4619
16443TIP3   OH270743   1.374   0.404   5.137 -0.2830 -0.4479 -0.2578
16443TIP3    H170744   1.405   0.399   5.227 -0.0159 -0.7977 -0.3660
16443TIP3    H270745   1.362   0.497   5.121 -0.8648 -0.4240  0.3148
16444TIP3   OH270746   3.102   4.753  12.625  0.5058  0.0635  0.0787
16444TIP3    H170747   3.030   4.812  12.603  1.3043  0.8027 -0.6566
16444TIP3    H270748   3.092   4.679  12.565 -0.4811 -0.5527  0.9799
16445TIP3   OH270749   1.444   1.150  15.053  0.2861 -0.1524  0.2914
16445TIP3    H170750   1.528   1.142  15.007  0.2625 -0.8016  0.3653
16445TIP3    H270751   1.425   1.244  15.049  0.8454 -0.0437 -0.0272
16446TIP3   OH270752   4.619   1.543   4.969 -0.2567 -0.3697 -0.4039
16446TIP3    H170753   4.706   1.507   4.950  0.5893  0.5290  1.5807
16446TIP3    H270754   4.573   1.472   5.014  0.3686 -0.0169  0.8292
16447TIP3   OH270755   6.002   1.588  16.812  0.4307 -0.1690 -0.1250
16447TIP3    H170756   6.044   1.502  16.824 -1.7615 -1.6430 -2.3924
16447TIP3    H270757   5.989   1.621  16.900  1.5932 -2.0438  0.7785
16448TIP3   OH270758   1.094   4.839   3.428  0.1662 -0.0469  0.2369
16448TIP3    H170759   1.012   4.872   3.390  1.1489  2.5159  0.2607
16448TIP3    H270760   1.138   4.917   3.461  3.2523 -1.2079 -0.9524
16449TIP3   OH270761   0.353   5.279  13.831  0.2555 -0.3255  0.2276
16449TIP3    H170762   0.281   5.216  13.835  0.3062 -0.5682 -2.1370
16449TIP3    H270763   0.336   5.339  13.903 -2.0139 -0.7051  0.0415
16450TIP3   OH270764   6.456   5.442   1.706  0.3114  0.3437  0.2351
16450TIP3    H170765   6.520   5.379   1.738  0.1549  0.4709  0.8099
16450TIP3    H270766   6.385   5.438   1.770 -0.5429 -0.2550 -0.7171
16451TIP3   OH270767   4.275   2.215   5.430 -0.7526  0.0894 -0.4858
16451TIP3    H170768   4.228   2.224   5.348  0.8702 -0.9893 -1.5638
16451TIP3    H270769   4.317   2.129   5.424  1.7979  1.2621  0.2083
16452TIP3   OH270770   2.982   0.581   4.029  0.1097 -0.2544 -0.4383
16452TIP3    H170771   3.029   0.664   4.025 -0.8568  0.4486  1.7872
16452TIP3    H270772   2.944   0.570   3.942  1.5607  0.8342 -1.2292
16453TIP3   OH270773   2.080   1.832   2.728 -0.0530 -0.2156  0.0461
16453TIP3    H170774   2.163   1.875   2.707 -0.4091  0.0524 -0.8760
16453TIP3    H270775   2.078   1.755   2.671 -1.3194  0.8546 -1.4163
16454TIP3   OH270776   0.962   1.002   4.919  0.5462  0.5185 -0.0179
16454TIP3    H170777   0.957   1.025   5.012  0.0265  0.5884 -0.0577
16454TIP3    H270778   0.874   0.970   4.898  0.8615 -0.1490 -0.3200
16455TIP3   OH270779   4.535   0.867  14.879  0.0057 -0.2218 -0.5701
16455TIP3    H170780   4.616   0.914  14.858 -0.5192  0.4736 -1.0909
16455TIP3    H270781   4.564   0.787  14.924  0.9385  0.3568 -0.1233
16456TIP3   OH270782   4.505   1.609  15.331  0.7411  0.1212 -0.7344
16456TIP3    H170783   4.423   1.560  15.327  1.5629 -1.1957 -1.4970
16456TIP3    H270784   4.508   1.642  15.421 -0.6135  0.1703 -0.6904
16457TIP3   OH270785   4.551   0.365  11.540  0.3554  0.4599 -0.2307
16457TIP3    H170786   4.618   0.430  11.559 -0.1900  0.4059  1.9706
16457TIP3    H270787   4.599   0.285  11.522  0.9072  0.1849  2.2502
16458TIP3   OH270788   0.526   5.815   2.731 -0.1667 -0.3676  0.6417
16458TIP3    H170789   0.482   5.868   2.664  1.4779  0.1205 -0.0768
16458TIP3    H270790   0.599   5.774   2.684  0.5956 -0.5642  1.9967
16459TIP3   OH270791   5.746   1.532  14.603 -0.2352  0.3427 -0.1042
16459TIP3    H170792   5.764   1.480  14.682  0.2418  1.0437  0.2585
16459TIP3    H270793   5.708   1.469  14.541 -0.0737 -0.3415  0.4772
16460TIP3   OH270794   3.749   2.008   5.577  0.7619 -0.7511  0.2502
16460TIP3    H170795   3.754   2.018   5.482  1.4047  0.4018  0.3896
16460TIP3    H270796   3.667   1.961   5.592 -0.3927  0.8833 -0.7640
16461TIP3   OH270797   6.434   5.414  15.238 -0.0676 -0.1228 -0.0463
16461TIP3    H170798   6.467   5.412  15.327  0.2196 -0.0768 -0.1507
16461TIP3    H270799   6.339   5.419  15.247 -0.0087  0.5100  0.2580
16462TIP3   OH270800   1.167   3.991   4.942 -0.1685 -0.2040 -0.1169
16462TIP3    H170801   1.076   3.974   4.916  0.5470  0.2667 -3.1269
16462TIP3    H270802   1.215   3.913   4.913  0.6965  0.4484 -0.4703
16463TIP3   OH270803   3.712   0.909   5.723  0.0563  0.1146 -0.0080
16463TIP3    H170804   3.649   0.910   5.651 -0.9209  0.2671  0.8417
16463TIP3    H270805   3.782   0.968   5.695  0.0680 -0.4345 -1.1692
16464TIP3   OH270806   0.414   6.786  11.849  0.2404  0.1893 -1.0490
16464TIP3    H170807   0.466   6.733  11.788  2.6466 -0.3255  1.3222
16464TIP3    H270808   0.443   6.875  11.835 -0.6783  0.3380 -2.0428
16465TIP3   OH270809   2.433   0.053  12.533  0.2958  0.6022 -0.0559
16465TIP3    H170810   2.489   0.126  12.505  1.9799 -0.5771  0.1574
16465TIP3    H270811   2.449   0.045  12.627 -0.0571  0.0987 -0.0349
16466TIP3   OH270812   2.680   4.590   2.928  0.0737  0.7819  0.5532
16466TIP3    H170813   2.633   4.665   2.965  0.0360  1.1195 -0.1692
16466TIP3    H270814   2.682   4.607   2.834 -1.1228 -0.8005  0.2255
16467TIP3   OH270815   6.542   1.153  10.523 -0.3681  0.2280 -0.4858
16467TIP3    H170816   6.546   1.095  10.447  0.3228  0.0295 -0.3093
16467TIP3    H270817   6.540   1.093  10.598  0.0578  0.4304 -0.3135
16468TIP3   OH270818   1.948   3.780   5.024  0.1557  0.4793  0.0736
16468TIP3    H170819   1.984   3.692   5.012 -0.3637  0.3037 -0.1693
16468TIP3    H270820   1.868   3.781   4.973  0.8284  1.5139 -0.9919
16469TIP3   OH270821   3.635   0.255   3.755 -0.6402 -0.5932  0.3710
16469TIP3    H170822   3.628   0.311   3.832  0.9218 -1.0549  0.8650
16469TIP3    H270823   3.618   0.312   3.681 -0.0672  0.3094  0.9332
16470TIP3   OH270824   6.263   0.493  16.178 -0.0028  0.1844 -0.0426
16470TIP3    H170825   6.352   0.520  16.200  0.5200 -0.6824 -1.0674
16470TIP3    H270826   6.233   0.559  16.115  0.6488 -0.5985 -1.2105
16471TIP3   OH270827   0.149   6.167   5.419 -0.1444 -0.0384 -0.4203
16471TIP3    H170828   0.150   6.187   5.326  1.0146 -0.2500 -0.4619
16471TIP3    H270829   0.070   6.115   5.432 -0.1600 -0.2421 -1.3360
16472TIP3   OH270830   3.724   5.998   1.583 -0.2754  0.3108  0.0202
16472TIP3    H170831   3.767   6.083   1.596 -0.0858  0.2839 -0.4375
16472TIP3    H270832   3.793   5.934   1.593  0.0722  0.3293 -1.9922
16473TIP3   OH270833   3.021   4.924   0.532 -0.3427  0.6647 -0.1310
16473TIP3    H170834   2.951   4.986   0.552 -0.7564  0.2302 -0.2543
16473TIP3    H270835   3.043   4.885   0.616 -0.5704  0.4521 -0.1725
16474TIP3   OH270836   4.536   0.499   4.205 -0.1557  0.0403  0.2838
16474TIP3    H170837   4.597   0.483   4.277  0.7136 -2.9730 -1.0733
16474TIP3    H270838   4.527   0.414   4.162  0.3126  1.9944 -3.9045
16475TIP3   OH270839   0.176   2.242  14.411 -0.4429 -0.4705  1.1108
16475TIP3    H170840   0.142   2.329  14.431  0.5718 -0.3910  2.5700
16475TIP3    H270841   0.253   2.258  14.356 -1.5674 -0.5605 -0.5090
16476TIP3   OH270842   3.298   3.182  12.849 -0.7492 -0.4414 -0.2029
16476TIP3    H170843   3.275   3.239  12.923  0.1280 -0.1857 -0.1208
16476TIP3    H270844   3.251   3.100  12.867 -0.8529 -0.2474  0.4369
16477TIP3   OH270845   5.405   3.600   2.458 -0.6754 -0.2935 -0.1880
16477TIP3    H170846   5.446   3.685   2.474 -0.7631  0.2257 -2.4582
16477TIP3    H270847   5.313   3.615   2.478 -0.3081 -0.5280  1.7139
16478TIP3   OH270848   2.745   3.474  16.159 -0.3207 -0.2004 -0.4675
16478TIP3    H170849   2.663   3.425  16.166 -0.4045 -0.0162 -0.1417
16478TIP3    H270850   2.734   3.547  16.220 -0.0440  0.0063 -0.6689
16479TIP3   OH270851   3.467   0.382  10.452 -0.1818  0.3073 -0.3219
16479TIP3    H170852   3.516   0.339  10.382  2.4372  1.4182  0.7587
16479TIP3    H270853   3.501   0.472  10.453 -1.9041  0.9728  0.7948
16480TIP3   OH270854   0.592   4.768   2.686 -0.6796 -0.0648 -0.8751
16480TIP3    H170855   0.687   4.765   2.682 -0.6481 -0.4108  0.0508
16480TIP3    H270856   0.565   4.799   2.599  0.3741  2.0264 -0.4978
16481TIP3   OH270857   3.114   5.800  14.459  0.1114 -0.7250 -0.0849
16481TIP3    H170858   3.040   5.739  14.465 -0.0883 -0.3480  1.5023
16481TIP3    H270859   3.080   5.882  14.495  1.5775 -0.8294  1.5807
16482TIP3   OH270860   2.011   2.611  10.617 -0.4505  0.0855 -0.0732
16482TIP3    H170861   2.036   2.697  10.653  1.0402 -0.6026  0.6005
16482TIP3    H270862   2.079   2.592  10.552 -0.1433 -1.0726  0.5727
16483TIP3   OH270863   3.780   1.920   1.692  0.1558  0.2755 -0.3003
16483TIP3    H170864   3.762   1.857   1.622  1.9479  0.5435 -1.0339
16483TIP3    H270865   3.869   1.952   1.673  1.6967 -1.4434  3.4574
16484TIP3   OH270866   6.454   6.458  16.876 -0.3838 -0.3417  0.5932
16484TIP3    H170867   6.425   6.508  16.952  0.0819  1.3648 -0.3222
16484TIP3    H270868   6.380   6.459  16.816 -0.1457 -0.1602  0.2956
16485TIP3   OH270869   6.701   2.426   2.859 -0.2312 -0.1851  0.3033
16485TIP3    H170870   6.753   2.346   2.852 -0.8396 -0.4337 -1.7498
16485TIP3    H270871   6.617   2.396   2.895  0.2332 -0.1288  1.4728
16486TIP3   OH270872   3.199   4.548   5.931 -0.2399 -0.1024  0.1852
16486TIP3    H170873   3.204   4.576   6.023  0.0592 -0.5326  0.2989
16486TIP3    H270874   3.229   4.625   5.882  0.5180 -0.1907  0.4949
16487TIP3   OH270875   6.525   2.836   2.219 -0.0351 -0.3554  0.5879
16487TIP3    H170876   6.479   2.895   2.279 -1.6467 -0.7720 -0.1997
16487TIP3    H270877   6.539   2.889   2.140 -1.3313 -0.9546 -0.0559
16488TIP3   OH270878   4.435   5.965  12.908  0.6743 -0.0001  0.0948
16488TIP3    H170879   4.372   6.019  12.954  0.3815 -0.0034 -0.2965
16488TIP3    H270880   4.503   6.026  12.879 -0.3542  0.3880 -1.5497
16489TIP3   OH270881   1.042   2.664  12.314  0.2258  0.2309  0.0458
16489TIP3    H170882   1.114   2.619  12.271 -0.2388 -1.5099  1.0364
16489TIP3    H270883   0.994   2.707  12.243  1.6130  0.5311 -0.7255
16490TIP3   OH270884   3.513   4.116  11.783  0.3200 -0.2507  0.0641
16490TIP3    H170885   3.435   4.100  11.837 -0.2174 -1.4984 -1.0474
16490TIP3    H270886   3.486   4.186  11.724 -0.0469 -0.8399 -0.4737
16491TIP3   OH270887   2.705   3.445  14.233  0.2042 -0.1961  0.3318
16491TIP3    H170888   2.757   3.469  14.155 -0.8344  0.6919 -0.1045
16491TIP3    H270889   2.712   3.350  14.238  1.3763 -0.1493 -0.0713
16492TIP3   OH270890   4.044   5.297  13.357  0.0725  0.3943 -0.2070
16492TIP3    H170891   4.064   5.390  13.357  0.8372  0.2634 -3.1691
16492TIP3    H270892   3.977   5.286  13.290 -0.6401 -1.0697  0.7264
16493TIP3   OH270893   0.460   4.908  14.829  0.5302  0.5366  0.1499
16493TIP3    H170894   0.524   4.952  14.773 -1.4649  1.8868 -1.0847
16493TIP3    H270895   0.424   4.977  14.884  0.9735 -0.4323  1.7098
16494TIP3   OH270896   0.464   2.954   3.893 -0.3102 -0.4693 -0.2268
16494TIP3    H170897   0.528   2.992   3.833  0.0385 -1.4449 -0.4864
16494TIP3    H270898   0.381   2.995   3.870  0.0498  0.0994 -0.5234
16495TIP3   OH270899   5.169   4.099   1.526  0.6591 -0.1416  0.3016
16495TIP3    H170900   5.115   4.177   1.537 -1.0040 -0.9966 -1.3729
16495TIP3    H270901   5.106   4.028   1.510  2.2106 -1.4627 -0.1208
16496TIP3   OH270902   2.032   3.636  11.595 -0.4224  0.1393 -0.4430
16496TIP3    H170903   1.942   3.658  11.570 -0.6257  1.0704  1.0221
16496TIP3    H270904   2.072   3.604  11.515 -1.9089  0.2303 -1.2407
16497TIP3   OH270905   5.496   2.849   1.373  0.0223  0.0978  0.4978
16497TIP3    H170906   5.438   2.790   1.325 -0.3893  0.2201  0.8358
16497TIP3    H270907   5.578   2.848   1.324 -1.0421  1.8706 -1.4215
16498TIP3   OH270908   2.192   2.514   0.793  0.4800 -0.0910  0.5803
16498TIP3    H170909   2.215   2.441   0.736 -0.3980  0.7023 -0.8489
16498TIP3    H270910   2.240   2.498   0.874 -0.4080 -2.7368  0.6488
16499TIP3   OH270911   1.997   0.951   6.787  0.5144  0.4461 -0.8333
16499TIP3    H170912   1.963   1.026   6.836  0.2567 -0.1700 -0.0677
16499TIP3    H270913   1.924   0.921   6.733 -0.0326 -0.5774  0.4528
16500TIP3   OH270914   1.392   5.986   3.706  0.6451  0.5109  0.3712
16500TIP3    H170915   1.414   6.025   3.621  0.7047 -1.7483 -0.6923
16500TIP3    H270916   1.441   6.038   3.769  3.4628  0.0410 -1.3202
16501TIP3   OH270917   0.935   4.473  11.906  0.0576  0.3114 -0.0898
16501TIP3    H170918   0.968   4.388  11.936 -0.4805 -0.2133 -0.9586
16501TIP3    H270919   1.007   4.509  11.854  0.2015  0.2869  0.0896
16502TIP3   OH270920   2.422   3.294  12.446  0.4241 -0.3379 -0.3657
16502TIP3    H170921   2.432   3.199  12.453  0.6980 -0.2323  0.9113
16502TIP3    H270922   2.385   3.319  12.531  1.2440  0.8167 -0.3530
16503TIP3   OH270923   1.545   4.185  10.424 -0.0591  0.6592  0.7873
16503TIP3    H170924   1.581   4.261  10.469 -2.0314  1.7227  0.6472
16503TIP3    H270925   1.466   4.218  10.380 -1.3225 -1.5768  1.2716
16504TIP3   OH270926   3.747   0.983   2.158  0.1224  0.6108 -0.3148
16504TIP3    H170927   3.695   1.004   2.235  0.4105  0.1225  0.0097
16504TIP3    H270928   3.838   0.993   2.186  0.2178  1.0481 -0.7643
16505TIP3   OH270929   6.004   3.110   3.051  0.4029  0.6166 -0.3273
16505TIP3    H170930   5.920   3.116   3.097 -1.3498 -3.4258 -2.7320
16505TIP3    H270931   5.997   3.175   2.981 -0.1673  1.1985  0.2589
16506TIP3   OH270932   2.207   4.823   1.417 -0.5940 -0.5610 -0.6492
16506TIP3    H170933   2.173   4.738   1.446 -0.7601  0.1034  1.1200
16506TIP3    H270934   2.270   4.800   1.348  0.0742 -2.1941  0.4619
16507TIP3   OH270935   2.832   1.648  11.573 -0.2961  0.4919  0.9348
16507TIP3    H170936   2.860   1.567  11.531  2.9660  2.3640 -0.6835
16507TIP3    H270937   2.759   1.678  11.520  0.2646  0.0294 -0.1071
16508TIP3   OH270938   6.284   0.969   5.494 -0.1272 -0.4177 -0.3757
16508TIP3    H170939   6.282   0.988   5.588 -0.1244  2.2701 -0.8663
16508TIP3    H270940   6.197   0.933   5.474 -0.3312 -0.4401  0.5419
16509TIP3   OH270941   3.357   5.280  17.238 -0.3392 -0.0534  0.6560
16509TIP3    H170942   3.394   5.197  17.268 -0.5928 -1.0052 -1.6146
16509TIP3    H270943   3.433   5.333  17.211 -0.4340 -1.3356 -2.3084
16510TIP3   OH270944   4.431   1.194  16.696  0.6816 -0.3016  0.5459
16510TIP3    H170945   4.505   1.242  16.732  0.8757 -0.3860  0.2638
16510TIP3    H270946   4.383   1.260  16.646  0.5604 -0.2442  0.7395
16511TIP3   OH270947   1.703   1.865   0.626  0.1381  0.6244 -0.3360
16511TIP3    H170948   1.667   1.789   0.672 -1.1636  0.6158 -1.3348
16511TIP3    H270949   1.678   1.940   0.680 -1.9779  0.6764 -1.3428
16512TIP3   OH270950   6.658   4.643  16.446  0.3195 -0.4332  0.0914
16512TIP3    H170951   6.753   4.644  16.455  0.1227 -1.7044  2.8361
16512TIP3    H270952   6.626   4.695  16.519 -1.1331 -0.6289 -0.3801
16513TIP3   OH270953   4.675   0.881  13.098  0.3984  0.4348  0.3042
16513TIP3    H170954   4.652   0.956  13.151  0.3137 -0.5811  1.7297
16513TIP3    H270955   4.668   0.806  13.157  2.4600 -0.4746 -0.5314
16514TIP3   OH270956   0.952   3.488   3.468 -0.1646 -0.3954 -0.6873
16514TIP3    H170957   0.960   3.420   3.401 -0.6113 -1.5716  0.4201
16514TIP3    H270958   0.859   3.511   3.467 -0.3430 -1.0619  0.1377
16515TIP3   OH270959   5.392   5.541   3.217  0.0697 -0.1004 -0.3680
16515TIP3    H170960   5.442   5.607   3.168  0.1012  0.2944  0.1831
16515TIP3    H270961   5.459   5.481   3.251  0.1893  0.4591  0.4157
16516TIP3   OH270962   0.660   5.652  15.779  0.0325  0.4181 -0.2796
16516TIP3    H170963   0.730   5.711  15.808  1.4449 -2.5931  2.8354
16516TIP3    H270964   0.623   5.618  15.861 -2.4477 -1.0679 -1.9605
16517TIP3   OH270965   1.781   1.363   5.546  0.3009 -0.1650  0.5303
16517TIP3    H170966   1.806   1.386   5.457 -0.6061 -0.4351  0.1989
16517TIP3    H270967   1.864   1.344   5.590  0.9091  1.9128  0.3143
16518TIP3   OH270968   5.236   3.375  15.651 -0.2729 -0.0375  0.2342
16518TIP3    H170969   5.150   3.387  15.691 -0.2372  1.8773 -0.2356
16518TIP3    H270970   5.223   3.395  15.559  0.7737  0.6887  0.2416
16519TIP3   OH270971   6.034   5.509   2.132  0.3015  0.1573  0.2371
16519TIP3    H170972   6.037   5.435   2.194 -1.1264  0.6485  0.9140
16519TIP3    H270973   6.105   5.491   2.071 -1.4108 -2.9871 -0.9459
16520TIP3   OH270974   4.462   6.065  14.377 -0.2846  0.1392  0.1751
16520TIP3    H170975   4.540   6.010  14.384  0.5251  0.8506 -2.4723
16520TIP3    H270976   4.495   6.154  14.393 -0.4647  0.4721 -1.2353
16521TIP3   OH270977   6.425   2.021  16.935  0.5379 -0.0625  0.4356
16521TIP3    H170978   6.369   1.948  16.911  3.1381 -1.7537 -0.7335
16521TIP3    H270979   6.377   2.099  16.906 -0.7972 -1.5081 -1.3779
16522TIP3   OH270980   5.797   5.961  15.148  0.1307 -0.0739  0.1043
16522TIP3    H170981   5.776   6.046  15.186  0.1019 -0.1197  0.1928
16522TIP3    H270982   5.845   5.982  15.067 -1.7409  0.0470 -0.9892
16523TIP3   OH270983   1.175   1.512   0.389  0.5206  0.3181 -0.3070
16523TIP3    H170984   1.167   1.542   0.479  2.8114  1.8310 -0.5699
16523TIP3    H270985   1.086   1.521   0.353 -0.3733 -0.1246  1.7049
16524TIP3   OH270986   5.189   0.604  12.370  0.5558 -0.0374  0.1276
16524TIP3    H170987   5.146   0.520  12.387  0.7818 -0.5103 -1.5422
16524TIP3    H270988   5.281   0.581  12.356  0.6621  0.5160 -0.0865
16525TIP3   OH270989   1.932   5.675  16.503  0.0703  0.1598 -0.1866
16525TIP3    H170990   1.959   5.604  16.561 -0.6543 -0.3989 -0.5335
16525TIP3    H270991   1.998   5.744  16.517  0.5066 -0.3935  0.4915
16526TIP3   OH270992   0.674   4.969   3.893  0.3569 -0.4099 -0.1332
16526TIP3    H170993   0.660   4.930   3.807 -1.4351  0.7904 -0.4131
16526TIP3    H270994   0.691   4.895   3.950  2.9085 -1.1213 -1.7476
16527TIP3   OH270995   0.343   6.566   2.692  0.4876 -0.1245  0.0599
16527TIP3    H170996   0.349   6.600   2.781 -0.6833 -0.4000  0.2429
16527TIP3    H270997   0.377   6.477   2.697  1.1496  0.1241  0.0725
16528TIP3   OH270998   5.076   2.451   0.132  0.5488 -0.5174 -0.7886
16528TIP3    H170999   5.140   2.388   0.164 -0.2421 -1.2077 -0.5301
16528TIP3    H271000   4.991   2.412   0.155  0.0582  1.8582  1.6820
16529TIP3   OH271001   3.517   0.403  12.428 -0.0966 -0.1731  0.4134
16529TIP3    H171002   3.512   0.496  12.451  0.6586 -0.0705  0.1779
16529TIP3    H271003   3.499   0.400  12.334  3.1364  0.1067 -0.2636
16530TIP3   OH271004   0.592   3.201   2.366  0.1066 -0.3109  0.9209
16530TIP3    H171005   0.626   3.264   2.430  0.1215 -0.3904  0.9907
16530TIP3    H271006   0.669   3.152   2.337  0.6836  2.0964 -1.7969
16531TIP3   OH271007   5.349   6.634  15.856  0.4896 -0.1789  0.3070
16531TIP3    H171008   5.364   6.624  15.762 -1.5706 -0.9364  0.0259
16531TIP3    H271009   5.358   6.728  15.872  0.7750 -0.0305 -0.6635
16532TIP3   OH271010   0.928   6.140   1.173 -0.5513  0.2456 -0.5736
16532TIP3    H171011   1.024   6.143   1.169 -0.4968 -0.6741  0.0091
16532TIP3    H271012   0.901   6.230   1.156  0.4376  0.6180 -0.2187
16533TIP3   OH271013   1.384   2.321   1.837  0.1189  0.0821 -0.1349
16533TIP3    H171014   1.319   2.256   1.810  1.7073 -1.7428  0.2808
16533TIP3    H271015   1.342   2.369   1.909 -0.8583 -0.8910 -0.0473
16534TIP3   OH271016   2.013   6.321   3.472 -0.1618  0.1487  0.4471
16534TIP3    H171017   2.061   6.273   3.403 -2.2406 -1.6021  0.1558
16534TIP3    H271018   2.082   6.355   3.529  1.4845 -1.4726 -0.4816
16535TIP3   OH271019   0.755   4.289   5.895 -0.3736 -0.0801 -0.1516
16535TIP3    H171020   0.742   4.384   5.889  1.7911  0.3145  1.0605
16535TIP3    H271021   0.812   4.277   5.971  3.5156 -1.9504 -3.1896
16536TIP3   OH271022   1.781   2.230   4.161  0.3055 -0.5729  0.7627
16536TIP3    H171023   1.696   2.248   4.201 -0.7015  0.8189 -1.8869
16536TIP3    H271024   1.787   2.135   4.158 -1.9950 -0.6931 -0.7156
16537TIP3   OH271025   3.021   4.237   5.434  0.1027 -0.2119  0.5504
16537TIP3    H171026   3.007   4.229   5.340 -0.8947 -1.5923  0.7978
16537TIP3    H271027   3.047   4.149   5.462  1.0307  0.3458  1.4601
16538TIP3   OH271028   2.159   2.440   3.158 -0.3812 -0.2560  0.7785
16538TIP3    H171029   2.219   2.452   3.231  0.3631  1.5205 -0.0917
16538TIP3    H271030   2.146   2.345   3.153 -0.1830 -0.4303  2.9744
16539TIP3   OH271031   4.266   1.824   0.096  0.2744  0.2196 -0.1330
16539TIP3    H171032   4.242   1.732   0.108  0.7975  0.0852 -0.0908
16539TIP3    H271033   4.355   1.821   0.060 -0.5022  0.6569 -2.1728
16540TIP3   OH271034   2.419   5.438  13.908  0.0672 -1.1895 -0.9352
16540TIP3    H171035   2.370   5.427  13.989  1.4727 -1.5830 -0.1176
16540TIP3    H271036   2.366   5.394  13.841 -1.3732 -0.3823 -0.3500
16541TIP3   OH271037   1.953   3.121   1.248  0.4531 -0.5601  0.9217
16541TIP3    H171038   2.027   3.127   1.188  1.4001  0.6136  2.1836
16541TIP3    H271039   1.904   3.202   1.234  0.9855 -0.0269  2.1203
16542TIP3   OH271040   3.115   5.844  11.625  0.5055 -0.2425 -1.0309
16542TIP3    H171041   3.176   5.915  11.647  0.5905 -0.3019 -1.0760
16542TIP3    H271042   3.155   5.800  11.551  0.1735  0.0159 -1.3679
16543TIP3   OH271043   1.215   5.052  11.430  0.1954 -0.4257  0.3372
16543TIP3    H171044   1.286   5.038  11.367 -1.5677  0.7204 -2.0136
16543TIP3    H271045   1.178   5.136  11.405 -0.9138 -0.2259  2.6024
16544TIP3   OH271046   6.027   4.116   5.386  0.3239  0.1017 -0.9888
16544TIP3    H171047   6.018   4.210   5.397  1.9543  0.2836 -1.0191
16544TIP3    H271048   6.030   4.103   5.291 -0.5150 -0.0515 -0.9970
16545TIP3   OH271049   2.407   6.015  14.575  0.2952  0.7554  0.4505
16545TIP3    H171050   2.356   6.036  14.497  0.8247 -2.1141 -0.7188
16545TIP3    H271051   2.366   5.936  14.610  2.2421 -0.0036  1.0710
16546TIP3   OH271052   5.387   4.890   3.146  0.0127 -0.1403 -0.3099
16546TIP3    H171053   5.314   4.951   3.139 -0.5134 -0.7354 -0.1133
16546TIP3    H271054   5.386   4.842   3.063 -1.0274 -1.4627  0.4331
16547TIP3   OH271055   3.968   3.131   3.253  0.0934 -0.2445 -0.5401
16547TIP3    H171056   4.030   3.080   3.202 -0.9810 -2.7585  0.5281
16547TIP3    H271057   3.936   3.198   3.193 -0.2314 -2.3429 -2.7896
16548TIP3   OH271058   5.351   5.386   2.008 -0.0720  0.7083  0.1950
16548TIP3    H171059   5.264   5.423   2.020 -0.4032 -0.2307  0.7479
16548TIP3    H271060   5.358   5.371   1.913 -0.2188  1.4602  0.0610
16549TIP3   OH271061   5.091   3.239  15.339  0.3948  0.5057  0.1545
16549TIP3    H171062   5.088   3.212  15.247 -1.4592  0.9238  0.0705
16549TIP3    H271063   5.002   3.222  15.372  0.6276  1.7469  1.4791
16550TIP3   OH271064   2.989   1.973   4.248 -0.0388  0.1286 -0.1421
16550TIP3    H171065   2.964   2.048   4.194 -0.2792  0.0403 -0.1556
16550TIP3    H271066   3.045   1.920   4.192  1.1300  0.9145  0.2720
16551TIP3   OH271067   3.986   4.230  16.948 -0.0751 -0.3778 -0.2894
16551TIP3    H171068   3.894   4.208  16.938 -0.4119 -0.6996  2.9196
16551TIP3    H271069   3.989   4.326  16.940 -0.4950 -0.4631 -1.5547
16552TIP3   OH271070   2.642   5.330  14.184  0.2520  0.0833 -0.0407
16552TIP3    H171071   2.621   5.265  14.117 -3.0210  0.6457  0.3187
16552TIP3    H271072   2.647   5.413  14.137  0.1892  0.1650  0.0949
16553TIP3   OH271073   1.689   5.373  15.427  0.1652 -0.3214  0.4431
16553TIP3    H171074   1.767   5.322  15.451  1.3894  1.0530 -0.4791
16553TIP3    H271075   1.714   5.464  15.445 -1.8182 -0.0119  1.6478
16554TIP3   OH271076   1.320   3.876   3.680  0.6135 -0.4687 -0.5444
16554TIP3    H171077   1.372   3.937   3.628 -0.5349 -0.8289 -2.1464
16554TIP3    H271078   1.229   3.900   3.661  0.1732 -0.4950  1.4341
16555TIP3   OH271079   0.539   5.816   0.035 -0.0336  0.0970  0.1483
16555TIP3    H171080   0.482   5.793   0.108  1.0323 -1.4797  0.5056
16555TIP3    H271081   0.619   5.849   0.077 -0.0354  0.7405 -0.3387
16556TIP3   OH271082   4.153   0.338  13.917  0.6121 -0.5886 -0.5114
16556TIP3    H171083   4.210   0.267  13.946 -1.2206 -1.5052  0.9448
16556TIP3    H271084   4.132   0.387  13.996 -0.8535 -0.4536 -0.9602
16557TIP3   OH271085   3.198   2.636  10.735  0.2007  0.3361  0.1487
16557TIP3    H171086   3.188   2.544  10.759 -2.4187  0.4208 -0.3797
16557TIP3    H271087   3.119   2.678  10.769 -0.5738  1.6267 -3.0187
16558TIP3   OH271088   4.763   2.707   2.834 -0.1661 -0.3500 -0.1385
16558TIP3    H171089   4.693   2.684   2.773  0.6122 -1.2611 -0.6962
16558TIP3    H271090   4.816   2.628   2.841  0.4784  0.1502  0.7338
16559TIP3   OH271091   3.646   3.011  11.775  0.8797  0.1368  0.1403
16559TIP3    H171092   3.722   3.001  11.832 -0.9995 -1.1648  2.4708
16559TIP3    H271093   3.683   3.045  11.693  3.8352  0.4471  1.5228
16560TIP3   OH271094   6.639   1.258  11.348 -0.7884  0.6794 -0.0718
16560TIP3    H171095   6.633   1.183  11.407 -0.0078  0.9593  0.3773
16560TIP3    H271096   6.700   1.317  11.391 -0.1732  0.8734 -1.1980
16561TIP3   OH271097   3.762   5.168   6.488  0.0280 -0.8390  0.0307
16561TIP3    H171098   3.689   5.135   6.541  1.8029 -1.8556  1.9648
16561TIP3    H271099   3.758   5.263   6.498  0.2518 -1.0036  1.9703
16562TIP3   OH271100   3.672   4.784   4.809  0.4863 -0.1538  0.3897
16562TIP3    H171101   3.741   4.803   4.744  0.1921 -0.5340 -0.0381
16562TIP3    H271102   3.715   4.725   4.872  0.1643 -1.5159 -0.6363
16563TIP3   OH271103   4.813   1.480   0.064  0.2496  0.3237 -0.9299
16563TIP3    H171104   4.722   1.487   0.035 -0.3411  2.3928  1.2493
16563TIP3    H271105   4.810   1.421   0.139  0.8431 -0.2958 -1.3904
16564TIP3   OH271106   0.607   3.411  16.293  0.7283 -0.0917 -0.1393
16564TIP3    H171107   0.567   3.363  16.365  2.6883 -1.6642 -0.0696
16564TIP3    H271108   0.682   3.456  16.332  1.5120 -0.5512 -1.0731
16565TIP3   OH271109   1.660   2.937  15.410  0.1041  0.3446  0.0501
16565TIP3    H171110   1.728   2.983  15.360 -1.1043  1.4067 -0.6514
16565TIP3    H271111   1.581   2.991  15.398 -0.6979 -0.5035  1.4060
16566TIP3   OH271112   0.311   4.789  16.208 -0.2925 -0.2287 -0.1971
16566TIP3    H171113   0.231   4.825  16.170  0.7447  0.2409 -1.9910
16566TIP3    H271114   0.370   4.863  16.216  0.2398 -0.7086  0.3775
16567TIP3   OH271115   0.804   2.325  14.178 -0.3636  0.5105  0.4688
16567TIP3    H171116   0.863   2.262  14.220 -1.0833 -0.5762 -0.1286
16567TIP3    H271117   0.851   2.354  14.100 -0.5230 -0.2081  0.0971
16568TIP3   OH271118   6.635   2.652   4.473 -0.0460  0.0495  0.1180
16568TIP3    H171119   6.656   2.660   4.380 -1.4916  0.0571 -0.2172
16568TIP3    H271120   6.624   2.558   4.487  0.3472  0.0331  0.3255
16569TIP3   OH271121   6.154   6.421  14.365  0.3410 -0.3092  0.1669
16569TIP3    H171122   6.165   6.326  14.366  0.8372 -0.2902 -1.9225
16569TIP3    H271123   6.244   6.455  14.362  0.1231  0.1662 -1.3284
16570TIP3   OH271124   1.456   2.003   3.297  0.2553  0.0835  0.2420
16570TIP3    H171125   1.466   1.961   3.383  0.3833  1.2530  0.8095
16570TIP3    H271126   1.537   1.983   3.251  0.0906 -0.7508  0.2941
16571TIP3   OH271127   3.556   1.201   0.032  0.2042 -0.3394  0.4636
16571TIP3    H171128   3.520   1.287   0.010  0.2164 -1.1780 -3.3007
16571TIP3    H271129   3.645   1.218   0.061 -0.1936  0.9993  0.9335
16572TIP3   OH271130   4.058   4.919  11.448 -0.2924 -0.4425  0.9980
16572TIP3    H171131   4.034   4.836  11.407 -1.5287  0.0979  0.6063
16572TIP3    H271132   4.122   4.957  11.388  1.1250 -1.5956  1.7288
16573TIP3   OH271133   4.995   3.609   6.168  0.1488  0.0935  0.0726
16573TIP3    H171134   5.013   3.531   6.221 -0.1737  0.3210  0.5289
16573TIP3    H271135   5.046   3.679   6.209  0.3734  0.1366 -0.2850
16574TIP3   OH271136   3.924   1.453  11.219 -0.3885  0.1954 -0.3199
16574TIP3    H171137   3.850   1.415  11.172  0.5821 -2.5483  0.3195
16574TIP3    H271138   3.896   1.543  11.239 -0.4559  1.8930 -6.9586
16575TIP3   OH271139   3.500   3.545   6.339 -0.1996 -0.0059  0.0926
16575TIP3    H171140   3.496   3.465   6.287  0.5381  0.5638 -0.8659
16575TIP3    H271141   3.522   3.515   6.427  1.2616 -0.7774 -0.5120
16576TIP3   OH271142   5.304   6.741  12.768  0.2216 -0.0364  0.1835
16576TIP3    H171143   5.346   6.708  12.848 -1.2786 -1.0584  0.5871
16576TIP3    H271144   5.309   6.836  12.776  1.9388 -0.1355  0.4795
16577TIP3   OH271145   4.976   1.736  12.193 -0.4678 -0.1705  0.1034
16577TIP3    H171146   5.001   1.646  12.173  0.0257  0.1921 -0.9378
16577TIP3    H271147   4.881   1.737  12.185 -0.3012 -0.0130 -2.4811
16578TIP3   OH271148   2.737   1.226  11.718 -0.2116 -0.7207  0.3475
16578TIP3    H171149   2.659   1.214  11.664 -1.2267  2.6310  0.9117
16578TIP3    H271150   2.811   1.214  11.658 -1.2298 -1.3749 -0.7797
16579TIP3   OH271151   2.402   3.766   0.288 -0.9570 -0.2877 -0.0004
16579TIP3    H171152   2.463   3.736   0.356  1.1360  0.4267 -1.5336
16579TIP3    H271153   2.316   3.762   0.331  0.0316 -2.0852  1.9423
16580TIP3   OH271154   0.573   2.426  11.121 -0.0482  0.7810  0.3495
16580TIP3    H171155   0.639   2.455  11.185  0.7971  1.8770 -0.9779
16580TIP3    H271156   0.605   2.461  11.038 -0.4282 -1.7349 -0.8934
16581TIP3   OH271157   2.099   1.253   5.599 -0.2278 -0.3596  0.7080
16581TIP3    H171158   2.106   1.159   5.616  1.9557 -0.6159 -1.3964
16581TIP3    H271159   2.161   1.293   5.660  1.4229 -0.6026 -0.7702
16582TIP3   OH271160   3.644   4.494   3.736 -0.0478  0.1602 -0.2594
16582TIP3    H171161   3.624   4.545   3.814  0.9732 -0.6728  0.5519
16582TIP3    H271162   3.608   4.408   3.753  3.7038 -1.2402  1.0472
16583TIP3   OH271163   0.684   1.070  15.999 -0.4409 -0.0165  0.3259
16583TIP3    H171164   0.647   1.154  16.025  2.2533  0.8452  1.5000
16583TIP3    H271165   0.627   1.005  16.040 -3.9314  1.1045 -2.4507
16584TIP3   OH271166   3.046   2.277  11.849 -0.6882  0.2752  0.0297
16584TIP3    H171167   2.998   2.263  11.767 -2.3138  1.4610  0.7557
16584TIP3    H271168   3.091   2.361  11.837  1.5137 -0.9562 -0.7557
16585TIP3   OH271169   5.045   6.484   1.408  0.2583 -0.3619 -0.2586
16585TIP3    H171170   5.137   6.460   1.400  0.1797 -1.1648  1.0454
16585TIP3    H271171   5.001   6.436   1.338  0.4537 -2.1313  0.8041
16586TIP3   OH271172   1.170   2.385  14.761 -0.7130 -0.4747  0.4577
16586TIP3    H171173   1.235   2.331  14.805 -1.9601 -1.0460  1.6440
16586TIP3    H271174   1.110   2.412  14.831 -1.3925  0.5547 -0.5051
16587TIP3   OH271175   5.001   6.171   4.458  0.4872 -0.1961 -0.4326
16587TIP3    H171176   4.971   6.216   4.537 -0.1279  0.9419 -1.3073
16587TIP3    H271177   5.051   6.097   4.491  1.3814  1.0273  1.0354
16588TIP3   OH271178   3.636   0.001  15.121  0.2560  0.1653  0.2552
16588TIP3    H171179   3.639  -0.081  15.072 -0.1329  1.2846 -1.7366
16588TIP3    H271180   3.728   0.025  15.134  0.3620  0.0687 -0.3085
16589TIP3   OH271181   2.365   1.401  13.680 -0.7314 -0.4659  0.6861
16589TIP3    H171182   2.349   1.321  13.730  0.6684  0.1610  2.1676
16589TIP3    H271183   2.302   1.463  13.715 -0.9522 -0.5418  0.4260
16590TIP3   OH271184   6.689   4.997   3.434  0.2246  0.1893  0.4129
16590TIP3    H171185   6.612   4.991   3.491  0.1002 -0.9422  0.1163
16590TIP3    H271186   6.751   4.934   3.470  1.3656  1.6848  1.1685
16591TIP3   OH271187   0.689   0.826   1.274  0.7057 -0.7998 -0.0814
16591TIP3    H171188   0.736   0.881   1.337  0.8657  0.0035 -0.9001
16591TIP3    H271189   0.605   0.870   1.262  0.4500 -1.2598 -0.0044
16592TIP3   OH271190   2.395   3.401  12.717  0.7548  0.4103  0.1337
16592TIP3    H171191   2.344   3.370  12.792 -0.2050 -1.1046 -1.1312
16592TIP3    H271192   2.470   3.445  12.757 -0.6490  1.1810  2.0028
16593TIP3   OH271193   6.257   5.073   0.510  0.0110  0.5699 -0.4408
16593TIP3    H171194   6.349   5.056   0.494  0.4032  0.6634  1.5799
16593TIP3    H271195   6.256   5.138   0.580 -1.5798 -0.8788  0.9432
16594TIP3   OH271196   0.189   1.783  16.841  0.0059  0.0758  0.3950
16594TIP3    H171197   0.128   1.849  16.872 -1.9200 -1.2343 -0.5092
16594TIP3    H271198   0.236   1.754  16.919 -1.8918 -0.2601  1.4295
16595TIP3   OH271199   0.572   4.225  13.132 -0.0372 -0.2981 -0.1879
16595TIP3    H171200   0.644   4.262  13.183 -0.4318  2.1053 -1.3016
16595TIP3    H271201   0.610   4.212  13.045 -0.5352 -0.3856 -0.3949
16596TIP3   OH271202   3.718   5.979   4.790  0.7066 -0.7531  0.3815
16596TIP3    H171203   3.693   6.014   4.875  1.5055  0.1923  0.2356
16596TIP3    H271204   3.636   5.949   4.751 -0.0931  1.4894  0.2593
16597TIP3   OH271205   2.993   6.549  16.563  0.0084  0.2624  0.4951
16597TIP3    H171206   3.008   6.581  16.652 -0.2647 -0.3150  0.7478
16597TIP3    H271207   2.899   6.560  16.549 -0.1493 -0.7580  0.7176
16598TIP3   OH271208   5.200   5.770  15.289 -0.3138 -0.1246  0.6581
16598TIP3    H171209   5.179   5.677  15.285  0.0074 -0.1862  0.3681
16598TIP3    H271210   5.174   5.805  15.204 -1.6884  0.3219  1.2561
16599TIP3   OH271211   6.658   1.183   2.738  0.2919  0.0226 -0.0891
16599TIP3    H171212   6.599   1.161   2.666  0.8444 -1.7519 -0.0205
16599TIP3    H271213   6.611   1.155   2.817 -0.4344  2.2136  0.3010
16600TIP3   OH271214   2.098   4.986  16.951  0.8133  0.1577  0.2417
16600TIP3    H171215   2.068   4.898  16.932  0.8610  0.2253 -0.1505
16600TIP3    H271216   2.046   5.014  17.027 -0.3693  0.4050 -0.6457
16601TIP3   OH271217   5.296   0.616   0.469 -0.5867 -0.2826 -0.8867
16601TIP3    H171218   5.358   0.594   0.540 -1.3430  1.4923  0.3466
16601TIP3    H271219   5.227   0.550   0.477 -0.1033 -0.7759 -0.6947
16602TIP3   OH271220   3.212   0.482  16.800  0.5018  0.3093  0.4427
16602TIP3    H171221   3.217   0.444  16.887 -1.3294  1.4668  1.0918
16602TIP3    H271222   3.120   0.471  16.774  0.8967  0.4767 -1.1053
16603TIP3   OH271223   6.118   1.447   1.383  0.1861  0.0549 -0.3385
16603TIP3    H171224   6.135   1.353   1.390  1.1550  0.3061  0.6139
16603TIP3    H271225   6.028   1.452   1.349  0.6193 -1.2169 -1.7189
16604TIP3   OH271226   5.663   5.540   5.911  0.5680 -0.2012 -0.2450
16604TIP3    H171227   5.744   5.590   5.905  0.1730  0.3270 -1.5222
16604TIP3    H271228   5.636   5.547   6.003  0.3243  2.2692 -0.4795
16605TIP3   OH271229   0.337   0.815  16.013  0.6471 -0.0656  0.2300
16605TIP3    H171230   0.358   0.869  16.089  1.0578  0.5550 -0.3132
16605TIP3    H271231   0.242   0.817  16.008  0.6465  0.3618  0.3931
16606TIP3   OH271232   2.042   5.468  16.247  0.7076  0.6035 -0.4239
16606TIP3    H171233   2.126   5.442  16.210  0.9136  0.0379  0.4149
16606TIP3    H271234   2.001   5.385  16.271  0.5604  0.9578  0.5578
16607TIP3   OH271235   1.908   6.752  15.313  0.1447 -0.0158  0.2967
16607TIP3    H171236   1.992   6.727  15.353  0.1202 -0.1675  0.2522
16607TIP3    H271237   1.927   6.755  15.219  0.2979  0.6961  0.3428
16608TIP3   OH271238   5.441   1.338   0.112 -0.4825  0.1623  0.4938
16608TIP3    H171239   5.468   1.350   0.021 -0.1586 -1.4728  0.3606
16608TIP3    H271240   5.474   1.252   0.136 -1.8494 -0.0464  1.7026
16609TIP3   OH271241   5.562   6.132  16.204 -0.0053 -0.9995  0.7205
16609TIP3    H171242   5.529   6.042  16.211 -0.8488 -0.6570  1.3501
16609TIP3    H271243   5.522   6.166  16.124  0.6950 -1.3326  0.2241
16610TIP3   OH271244   0.716   3.403  11.608  0.5156  0.5153 -0.3087
16610TIP3    H171245   0.678   3.490  11.620 -0.2280  0.7617 -3.8706
16610TIP3    H271246   0.641   3.346  11.596  1.0568 -0.3333  0.3057
16611TIP3   OH271247   3.573   0.975  13.132  0.0573 -0.0608 -0.0280
16611TIP3    H171248   3.500   1.003  13.189 -0.8540 -1.3072 -0.5697
16611TIP3    H271249   3.597   1.055  13.085 -0.9326  0.3822  0.1829
16612TIP3   OH271250   4.809   5.616  15.906  0.1369 -0.3383 -0.0951
16612TIP3    H171251   4.849   5.534  15.935  0.0526 -0.7828 -1.2172
16612TIP3    H271252   4.715   5.597  15.902  0.1536 -0.3026 -0.7139
16613TIP3   OH271253   0.518   2.080  14.730 -0.7200  0.5055  0.3251
16613TIP3    H171254   0.554   1.991  14.730 -0.1870  0.7186  0.0016
16613TIP3    H271255   0.566   2.125  14.800 -0.6930  0.6578  0.2077
16614TIP3   OH271256   5.812   3.014   5.149  0.0639  0.0917 -0.4794
16614TIP3    H171257   5.835   2.987   5.060  0.2684  1.4428 -0.8542
16614TIP3    H271258   5.870   3.089   5.167  0.6830 -0.7476  1.1396
16615TIP3   OH271259   2.749   0.010   1.922  0.0330 -0.0625 -0.1910
16615TIP3    H171260   2.821   0.063   1.958  1.5979 -1.9831 -0.3920
16615TIP3    H271261   2.705   0.069   1.861  3.0263  0.4140 -2.0238
16616TIP3   OH271262   4.335   5.249  16.589  0.0243 -0.3034  0.0280
16616TIP3    H171263   4.295   5.187  16.529 -0.0395 -1.3701  1.1545
16616TIP3    H271264   4.296   5.333  16.566 -0.9601 -0.9156 -0.5680
16617TIP3   OH271265   2.963   3.127   1.024  0.1866 -0.2701  0.3424
16617TIP3    H171266   2.873   3.129   1.056  0.6979 -0.2358  1.8334
16617TIP3    H271267   2.967   3.048   0.970 -0.4221 -0.9793  1.2993
16618TIP3   OH271268   6.514   5.783  16.961  0.0626 -0.1853 -0.2331
16618TIP3    H171269   6.474   5.803  16.877  0.6490  0.6991 -0.3129
16618TIP3    H271270   6.608   5.798  16.947  0.0111  1.3870  0.9778
16619TIP3   OH271271   1.609   0.567  12.458  0.9712  0.5252 -0.0596
16619TIP3    H171272   1.548   0.496  12.478 -0.2222  1.1546 -1.3439
16619TIP3    H271273   1.695   0.526  12.455  0.3214 -0.8203 -0.5297
16620TIP3   OH271274   5.431   6.653  16.686  0.1128  0.0078 -0.0064
16620TIP3    H171275   5.412   6.594  16.613  0.0478  0.4684 -0.3661
16620TIP3    H271276   5.365   6.721  16.679  0.4151  0.3199  0.1897
16621TIP3   OH271277   2.945   5.252  12.693 -0.0086 -0.1278 -0.3762
16621TIP3    H171278   2.932   5.271  12.786 -0.2516  1.0740 -0.6500
16621TIP3    H271279   2.903   5.167  12.681 -0.6356  0.0474  0.4640
16622TIP3   OH271280   6.468   6.447   5.169 -0.0096 -0.5420  0.2571
16622TIP3    H171281   6.538   6.392   5.132  0.5062 -0.3371  0.9264
16622TIP3    H271282   6.441   6.504   5.096 -0.9681 -2.0807 -0.6201
16623TIP3   OH271283   6.659   1.852   0.554  0.0071  0.6334 -0.2287
16623TIP3    H171284   6.743   1.852   0.602  0.6567  0.2836 -1.3481
16623TIP3    H271285   6.670   1.919   0.487 -1.1982  1.6754  0.6180
16624TIP3   OH271286   5.207   0.606  10.461  0.0852  0.2947  0.2885
16624TIP3    H171287   5.133   0.639  10.512  0.8116  2.4926 -0.0230
16624TIP3    H271288   5.284   0.640  10.507  0.9504 -2.2285  0.7927
16625TIP3   OH271289   6.618   3.039  17.160  0.6304  0.2564  0.7585
16625TIP3    H171290   6.531   3.077  17.173 -0.0264 -1.5779  2.0760
16625TIP3    H271291   6.619   3.010  17.069 -0.0927  0.4316  0.6912
16626TIP3   OH271292   0.722   1.756  12.600 -0.7375  0.0355  0.1168
16626TIP3    H171293   0.640   1.803  12.592 -0.6401  0.0326 -1.0942
16626TIP3    H271294   0.775   1.786  12.526  0.6513  0.6080  1.3119
16627TIP3   OH271295   1.674   3.668   1.117  0.1367 -0.0104  0.0078
16627TIP3    H171296   1.668   3.590   1.173 -0.7978 -1.6346 -2.2703
16627TIP3    H271297   1.712   3.636   1.035 -0.4513  1.8952 -1.0331
16628TIP3   OH271298   2.656   0.739   5.545  0.1818  0.1434  0.2989
16628TIP3    H171299   2.678   0.824   5.506  1.3185 -1.0946 -1.9006
16628TIP3    H271300   2.722   0.726   5.613  1.1094  0.2408 -0.5664
16629TIP3   OH271301   1.051   4.925  16.134  0.3702 -0.3615 -0.4857
16629TIP3    H171302   1.005   4.841  16.130  0.6743 -0.4833 -1.9959
16629TIP3    H271303   1.137   4.906  16.097  1.2882  0.0917  1.3735
16630TIP3   OH271304   2.944   2.302  13.259 -0.1416 -0.0482 -0.2712
16630TIP3    H171305   3.018   2.288  13.318 -0.4692  1.1164  0.4415
16630TIP3    H271306   2.973   2.370  13.199 -0.4360  0.0224 -0.3371
16631TIP3   OH271307   4.586   5.559   6.310 -0.2120 -0.9428 -0.4397
16631TIP3    H171308   4.590   5.466   6.331  0.0324 -0.9124 -0.3336
16631TIP3    H271309   4.671   5.578   6.269  0.0837 -0.5927  0.3100
16632TIP3   OH271310   5.431   3.304   4.490  0.5500  0.2155 -0.6796
16632TIP3    H171311   5.444   3.357   4.568  1.4831  0.1822 -0.7962
16632TIP3    H271312   5.402   3.219   4.523  2.6581 -0.3624 -0.2280
16633TIP3   OH271313   0.184   4.864  10.888  0.7356  0.0454 -0.2164
16633TIP3    H171314   0.097   4.839  10.921  1.7849 -1.9488  1.1691
16633TIP3    H271315   0.234   4.782  10.889  2.3466  0.9808 -1.9392
16634TIP3   OH271316   4.689   5.838   2.778  0.0295 -0.6141 -0.1032
16634TIP3    H171317   4.734   5.862   2.697 -0.1246  0.0078 -0.0069
16634TIP3    H271318   4.732   5.758   2.807  0.8891 -0.1692 -0.1586
16635TIP3   OH271319   3.094   6.682  16.321 -0.2102 -0.1983 -0.2628
16635TIP3    H171320   3.018   6.673  16.264 -2.2705  1.5072  2.0783
16635TIP3    H271321   3.068   6.639  16.403  0.6482  1.9076  1.1732
16636TIP3   OH271322   1.627   2.059   0.783  0.3877  0.1474 -0.2436
16636TIP3    H171323   1.707   2.109   0.764 -1.5467  2.5624 -2.4148
16636TIP3    H271324   1.568   2.123   0.824 -0.3806 -1.6567  1.5020
16637TIP3   OH271325   2.707   0.198  15.393 -0.0542 -0.0517  0.6137
16637TIP3    H171326   2.773   0.264  15.370  0.6755 -0.7505  0.6648
16637TIP3    H271327   2.758   0.127  15.434 -0.4272 -1.9241 -2.0484
16638TIP3   OH271328   5.582   4.274  14.102  0.5400  0.1184 -0.7322
16638TIP3    H171329   5.546   4.358  14.073  0.8308  1.2732  2.0859
16638TIP3    H271330   5.677   4.283  14.090  0.5493  0.0864 -0.6790
16639TIP3   OH271331   0.969   6.582  12.556  0.0968 -0.2564 -0.0144
16639TIP3    H171332   0.941   6.511  12.613  0.6686 -0.3411  0.1650
16639TIP3    H271333   0.972   6.543  12.469  1.1028 -0.6552  0.1854
16640TIP3   OH271334   6.455   4.846  11.538  0.2769  0.1086  0.2904
16640TIP3    H171335   6.457   4.807  11.625  0.7717  1.9792  1.1532
16640TIP3    H271336   6.378   4.808  11.496 -0.3024 -0.3745  1.7663
16641TIP3   OH271337   5.394   5.673   1.724 -0.1566  0.1060 -0.3852
16641TIP3    H171338   5.358   5.719   1.800 -3.6583 -0.9833 -1.2741
16641TIP3    H271339   5.408   5.583   1.755  1.1788  0.3448 -0.2611
16642TIP3   OH271340   0.279   6.571  13.411 -0.4176 -0.0942 -0.0894
16642TIP3    H171341   0.208   6.625  13.447  0.3770  0.7280  0.2478
16642TIP3    H271342   0.288   6.601  13.321 -1.1175 -0.8410 -0.4139
16643TIP3   OH271343   4.893   0.926  16.211  0.3147  0.0308  0.1245
16643TIP3    H171344   4.952   1.001  16.213  1.5044 -0.8288 -1.6779
16643TIP3    H271345   4.892   0.898  16.120 -2.5517 -0.2704  0.2070
16644TIP3   OH271346   4.902   3.588  13.268  0.0611  0.6909 -0.5839
16644TIP3    H171347   4.940   3.675  13.278 -1.2750  1.1372  0.9709
16644TIP3    H271348   4.862   3.569  13.353  0.6275 -1.6017 -0.7824
16645TIP3   OH271349   5.776   3.195   1.626  0.0192  0.1457  0.3823
16645TIP3    H171350   5.768   3.102   1.648 -0.2336  0.1031  0.1207
16645TIP3    H271351   5.842   3.229   1.687 -2.2427  0.5196  2.6874
16646TIP3   OH271352   1.984   4.725  16.947  0.5438  0.9394 -0.2260
16646TIP3    H171353   1.986   4.694  16.856  0.8025  0.4386 -0.0525
16646TIP3    H271354   1.958   4.648  16.997  2.3628  0.6887  0.3520
16647TIP3   OH271355   2.219   6.752   0.722  0.5095 -0.1687  0.2977
16647TIP3    H171356   2.218   6.703   0.640  0.4247 -0.3139  0.3853
16647TIP3    H271357   2.181   6.837   0.700  1.8942  0.3506 -0.1637
16648TIP3   OH271358   3.017   0.484  14.323  0.0094 -0.8287 -0.4167
16648TIP3    H171359   3.016   0.457  14.415 -0.1805 -1.0403 -0.4826
16648TIP3    H271360   3.110   0.500  14.305 -0.2517  2.3688  0.7380
16649TIP3   OH271361   1.935   5.862   4.425 -0.0550 -0.5212  0.4348
16649TIP3    H171362   1.840   5.857   4.411  0.0364 -1.2810 -0.0088
16649TIP3    H271363   1.969   5.783   4.382  0.7714 -0.2878  0.6463
16650TIP3   OH271364   3.729   5.257   2.882 -0.0011 -0.2824  0.2757
16650TIP3    H171365   3.763   5.237   2.795  0.5520 -0.8487  0.6158
16650TIP3    H271366   3.635   5.270   2.869  0.3079  1.1356 -0.6513
16651TIP3   OH271367   1.961   5.287   4.834  0.6915 -0.2532 -0.3241
16651TIP3    H171368   1.894   5.308   4.769  0.6649  2.2264  0.4750
16651TIP3    H271369   2.041   5.326   4.799  1.0897 -0.5844  0.2120
16652TIP3   OH271370   1.995   6.494   0.739 -0.4514  0.1990 -0.2198
16652TIP3    H171371   2.064   6.516   0.802  0.5809 -1.1080 -0.8568
16652TIP3    H271372   2.037   6.505   0.654 -1.0409 -0.5584 -0.6108
16653TIP3   OH271373   0.622   1.330   4.988 -0.0378  0.3890  0.0620
16653TIP3    H171374   0.660   1.370   5.067  0.7597  0.8928 -0.5694
16653TIP3    H271375   0.578   1.402   4.944 -0.6003  0.0766  0.1120
16654TIP3   OH271376   1.671   6.738  12.929  0.4291  0.0528  0.1167
16654TIP3    H171377   1.642   6.826  12.904  0.2264 -0.1264 -0.2653
16654TIP3    H271378   1.739   6.754  12.994 -0.7530  0.4663  1.2805
16655TIP3   OH271379   2.171   3.173  13.954 -0.1036 -0.3880  0.3183
16655TIP3    H171380   2.241   3.226  13.914 -0.8307 -0.0984 -0.6004
16655TIP3    H271381   2.137   3.228  14.025  0.5729 -0.5144  0.7465
16656TIP3   OH271382   0.310   0.198  16.405 -0.2875  0.2135 -0.5247
16656TIP3    H171383   0.312   0.124  16.345  0.8733  0.8125 -1.2241
16656TIP3    H271384   0.253   0.262  16.362  0.3720  0.5579 -0.8745
16657TIP3   OH271385   3.205   0.082   2.228  0.0910 -0.1456 -0.6290
16657TIP3    H171386   3.112   0.103   2.219  0.1910  1.1160  0.9840
16657TIP3    H271387   3.206  -0.008   2.262 -0.6316  0.7025  1.7211
16658TIP3   OH271388   5.903   4.036   1.523 -0.2247  0.2954 -0.2348
16658TIP3    H171389   5.924   3.966   1.585 -1.1138 -0.4967 -0.8081
16658TIP3    H271390   5.924   3.999   1.437 -1.5484  0.3834 -0.6127
16659TIP3   OH271391   1.391   2.840   3.233  0.1716 -0.0791  0.5510
16659TIP3    H171392   1.452   2.895   3.185 -0.6205  0.4528  0.1456
16659TIP3    H271393   1.367   2.771   3.170 -0.1869  0.1178  0.4685
16660TIP3   OH271394   2.071   1.847  14.425  0.5714  0.1095 -0.0849
16660TIP3    H171395   2.062   1.866  14.519  1.5643 -0.0115  0.0445
16660TIP3    H271396   2.003   1.899  14.384  0.6472  0.7977  0.6394
16661TIP3   OH271397   0.584   4.408  14.845 -0.5309  0.5248  0.0986
16661TIP3    H171398   0.548   4.495  14.859 -0.7038  0.7832 -1.8831
16661TIP3    H271399   0.511   4.357  14.811  0.1956  0.2705 -1.1047
16662TIP3   OH271400   4.577   2.880   2.964  0.3288 -0.0798 -0.5175
16662TIP3    H171401   4.633   2.822   2.913  0.5397 -0.8422  0.5866
16662TIP3    H271402   4.630   2.958   2.979  0.1625  0.2798 -1.7017
16663TIP3   OH271403   3.858   2.384  16.039  1.1226  0.1445  0.0551
16663TIP3    H171404   3.953   2.392  16.037  1.2040 -0.6716  0.4347
16663TIP3    H271405   3.834   2.394  16.131  0.9700 -0.9528  0.1449
16664TIP3   OH271406   0.844   5.758  16.003  0.2874  0.2688 -0.1092
16664TIP3    H171407   0.924   5.810  16.009 -0.1093  1.1641 -2.1895
16664TIP3    H271408   0.781   5.804  16.057  0.0182  1.8433 -1.7297
16665TIP3   OH271409   1.378   2.155   0.644 -0.2893  0.2512  0.1446
16665TIP3    H171410   1.334   2.240   0.645 -0.1776  0.3081  0.2516
16665TIP3    H271411   1.382   2.131   0.551  1.1224  1.1105 -0.0379
16666TIP3   OH271412   4.429   6.411   4.486 -0.6141 -0.5581  0.1036
16666TIP3    H171413   4.515   6.374   4.465 -0.9419 -0.1825 -1.9903
16666TIP3    H271414   4.443   6.458   4.568  1.4294  0.3076 -0.7025
16667TIP3   OH271415   6.148   2.876   0.635 -0.1998 -0.1313 -0.5209
16667TIP3    H171416   6.179   2.827   0.559  1.2038 -0.2389  0.1115
16667TIP3    H271417   6.091   2.815   0.681 -0.3169 -0.3777 -0.9845
16668TIP3   OH271418   6.268   3.081  13.575 -0.4272 -0.0609 -0.0667
16668TIP3    H171419   6.318   3.102  13.654 -3.1765 -1.2243  2.1004
16668TIP3    H271420   6.237   3.166  13.543  2.9892  0.6907 -1.5744
16669TIP3   OH271421   1.037   1.625  12.356 -0.3704  0.0757  0.2875
16669TIP3    H171422   1.119   1.668  12.380  0.0429 -0.1825 -0.6627
16669TIP3    H271423   1.024   1.558  12.423 -0.1718  0.5797  0.8373
16670TIP3   OH271424   5.323   4.518  11.025  0.5286  0.2701 -0.0172
16670TIP3    H171425   5.415   4.515  11.052  0.5697  0.3021 -0.1533
16670TIP3    H271426   5.324   4.561  10.940  0.1664  2.2616  0.9472
16671TIP3   OH271427   0.936   2.152   2.095 -0.4010 -0.4361 -0.0633
16671TIP3    H171428   0.927   2.243   2.066  1.1857 -0.9124 -2.1494
16671TIP3    H271429   0.927   2.100   2.015  2.6638 -1.8701  0.4245
16672TIP3   OH271430   3.217   3.469   2.805  0.9351 -0.0425 -0.4140
16672TIP3    H171431   3.312   3.472   2.809  0.9397  0.8726 -1.2993
16672TIP3    H271432   3.188   3.557   2.829  0.2872 -0.4370  0.3055
16673TIP3   OH271433   1.994   2.207  12.957  0.2264  0.2170  0.1461
16673TIP3    H171434   1.990   2.284  12.900 -0.9657  1.2495  1.6026
16673TIP3    H271435   1.905   2.198  12.991  1.0301 -0.1400  2.1987
16674TIP3   OH271436   1.261   1.078   0.538 -0.0830  0.2181  0.4372
16674TIP3    H171437   1.298   1.127   0.611  4.0301 -0.5569 -1.0252
16674TIP3    H271438   1.191   1.026   0.578  1.6259  0.3212  3.7466
16675TIP3   OH271439   0.292   4.307  10.809 -0.6813 -0.1247 -0.0310
16675TIP3    H171440   0.213   4.338  10.764  0.8073  1.8091 -1.4032
16675TIP3    H271441   0.360   4.370  10.784  0.5794  0.0943  3.6661
16676TIP3   OH271442   0.891   4.960  11.908  0.0886 -0.4603  0.1176
16676TIP3    H171443   0.880   5.005  11.992  2.3792  1.5867 -0.6573
16676TIP3    H271444   0.827   5.001  11.850  0.6693  0.2699  0.0008
16677TIP3   OH271445   5.192   1.071   2.231 -0.6771  0.1230  0.2235
16677TIP3    H171446   5.100   1.045   2.236 -0.8905  0.5933 -0.9759
16677TIP3    H271447   5.222   1.071   2.322 -1.2448 -2.1939  0.4463
16678TIP3   OH271448   5.865   6.220   2.968  0.0031  0.7973  0.1221
16678TIP3    H171449   5.901   6.298   3.009  0.2106 -0.7281  3.0261
16678TIP3    H271450   5.778   6.245   2.939 -0.4809  1.7743  2.2940
16679TIP3   OH271451   4.082   2.503  13.022  0.4977 -0.1783 -0.0775
16679TIP3    H171452   4.056   2.414  13.045 -0.0910 -0.0851 -0.3861
16679TIP3    H271453   4.000   2.550  13.012  0.7968  0.2214 -0.6408
16680TIP3   OH271454   1.462   0.706  13.173  0.1644 -0.4241  0.0466
16680TIP3    H171455   1.371   0.734  13.174  0.9705  2.3310  0.5661
16680TIP3    H271456   1.459   0.613  13.193 -2.5026 -0.2927  0.3625
16681TIP3   OH271457   2.624   6.659  13.131  0.1825  0.3214  0.3846
16681TIP3    H171458   2.692   6.715  13.093  0.7346  0.2335  1.2181
16681TIP3    H271459   2.672   6.602  13.193 -0.6067  0.0649  0.7650
16682TIP3   OH271460   4.479   4.568   2.360 -0.4016 -0.2919 -0.7224
16682TIP3    H171461   4.516   4.507   2.297 -0.0710 -1.3869  0.5058
16682TIP3    H271462   4.538   4.564   2.435 -1.3158  0.2615  0.0452
16683TIP3   OH271463   0.835   1.532  14.950 -0.6202  0.1562 -0.1150
16683TIP3    H171464   0.795   1.546  14.864 -0.3899 -0.2004 -0.2788
16683TIP3    H271465   0.866   1.442  14.948  2.2373  1.1273 -0.8080
16684TIP3   OH271466   1.399   1.040   2.323  0.1965 -0.0186 -0.5139
16684TIP3    H171467   1.461   0.976   2.288  0.9158  0.1302  0.4350
16684TIP3    H271468   1.315   0.995   2.324  0.9960 -1.5460  1.6911
16685TIP3   OH271469   1.012   6.437  16.887  0.4043 -0.2962 -0.7413
16685TIP3    H171470   0.917   6.432  16.883  0.3926  0.0584 -0.9320
16685TIP3    H271471   1.032   6.426  16.980  0.0097  2.1551 -0.3151
16686TIP3   OH271472   5.407   4.563   2.117 -0.2479  0.2693  0.3292
16686TIP3    H171473   5.343   4.530   2.180 -0.5031 -0.5994 -0.3794
16686TIP3    H271474   5.362   4.634   2.072 -0.5062  0.0659  0.2627
16687TIP3   OH271475   2.048   6.379   2.912 -0.1284  0.0254 -0.2954
16687TIP3    H171476   1.958   6.401   2.891 -0.3405  0.0910  0.6981
16687TIP3    H271477   2.051   6.283   2.910 -0.4302 -0.0044  0.5319
16688TIP3   OH271478   6.295   4.001   4.798  0.3885  0.1142 -0.3016
16688TIP3    H171479   6.368   4.028   4.854  0.0367 -0.0528  0.2371
16688TIP3    H271480   6.246   4.081   4.783 -0.0325 -0.0078  0.3890
16689TIP3   OH271481   4.151   4.456  16.460  0.7252 -0.9030  0.0137
16689TIP3    H171482   4.061   4.438  16.487  0.0991  3.5578  1.2880
16689TIP3    H271483   4.205   4.422  16.531  0.0137 -2.4920 -0.1770
16690TIP3   OH271484   1.896   3.331  15.333 -0.0302 -0.1839  0.0338
16690TIP3    H171485   1.821   3.376  15.293  0.1832 -1.6461 -2.0862
16690TIP3    H271486   1.972   3.361  15.282  0.4650 -0.8047  0.3979
16691TIP3   OH271487   3.566   5.822   2.434  0.2685 -0.3900 -0.4204
16691TIP3    H171488   3.534   5.731   2.427 -0.7837  0.0636 -1.8495
16691TIP3    H271489   3.582   5.848   2.343  1.1731  0.6464  0.0381
16692TIP3   OH271490   2.910   1.586   3.254 -0.6079 -0.2194  0.0692
16692TIP3    H171491   2.981   1.551   3.201 -0.9875  0.0532 -0.6211
16692TIP3    H271492   2.858   1.509   3.279 -0.2163 -0.3894  0.3648
16693TIP3   OH271493   4.416   2.354  12.157  0.0405 -0.2181 -0.3877
16693TIP3    H171494   4.507   2.343  12.183  0.4713  1.7905 -1.0052
16693TIP3    H271495   4.379   2.412  12.223  0.3211  2.3433 -2.4181
16694TIP3   OH271496   6.064   4.083  11.222  0.0934 -0.6619  0.5012
16694TIP3    H171497   6.010   4.058  11.297 -0.4258 -0.6154  0.1485
16694TIP3    H271498   6.147   4.111  11.260 -1.1406  2.1436  1.2700
16695TIP3   OH271499   0.956   2.391  11.673 -0.3383 -0.2359  0.7693
16695TIP3    H171500   0.946   2.485  11.657 -3.0092 -0.4511  0.9234
16695TIP3    H271501   0.972   2.383  11.767 -0.1708  0.0720  0.7651
16696TIP3   OH271502   4.631   3.229  13.701  0.0548 -1.0108 -0.7103
16696TIP3    H171503   4.668   3.311  13.668 -1.3094 -0.1698 -0.1937
16696TIP3    H271504   4.695   3.163  13.676  1.1279  0.1888 -1.2418
16697TIP3   OH271505   3.257   2.378   3.166 -0.5284  0.0681 -0.2103
16697TIP3    H171506   3.319   2.356   3.096 -1.8465 -1.6567 -0.8590
16697TIP3    H271507   3.216   2.295   3.189 -3.4343  1.3582 -0.5982
16698TIP3   OH271508   0.179   4.384  12.104 -1.1108 -0.5532  0.4696
16698TIP3    H171509   0.243   4.313  12.109 -1.1903 -0.6188  0.5507
16698TIP3    H271510   0.182   4.426  12.190  1.9163  2.1455 -0.8225
16699TIP3   OH271511   1.716   3.270   0.233 -0.5446  0.2434  0.7797
16699TIP3    H171512   1.793   3.256   0.178  0.7974  2.4819  2.0118
16699TIP3    H271513   1.641   3.250   0.176  0.8966 -0.7289 -0.8081
16700TIP3   OH271514   3.237   3.608   5.404 -0.0927 -0.3208  0.0786
16700TIP3    H171515   3.316   3.555   5.410  0.9015  1.0661 -0.3799
16700TIP3    H271516   3.219   3.635   5.494  2.1457  2.4234 -0.2193
16701TIP3   OH271517   2.331   3.845   4.150  0.0337  0.1994 -0.1417
16701TIP3    H171518   2.386   3.922   4.135  0.2471  0.1145  0.1830
16701TIP3    H271519   2.256   3.879   4.198 -1.0447  0.6039 -2.0879
16702TIP3   OH271520   1.727   4.823   5.279  0.0617  0.4221  0.8957
16702TIP3    H171521   1.775   4.816   5.197  1.3366 -1.2987  1.7305
16702TIP3    H271522   1.789   4.864   5.339 -0.9548  1.9170  0.9362
16703TIP3   OH271523   0.369   2.015   2.937  0.2888  0.0136  0.1230
16703TIP3    H171524   0.305   2.049   3.001  0.6219 -3.2025  2.2599
16703TIP3    H271525   0.454   2.029   2.979  0.6139 -0.6605 -0.3059
16704TIP3   OH271526   4.701   1.992  15.862 -0.0790 -0.0434 -0.3607
16704TIP3    H171527   4.776   1.936  15.881 -0.3298  0.3317  1.8163
16704TIP3    H271528   4.629   1.955  15.915 -1.4723 -0.4380 -2.4500
16705TIP3   OH271529   1.219   4.073   2.379 -0.5281 -0.2861 -0.3489
16705TIP3    H171530   1.299   4.093   2.331  1.5687 -1.4102  2.5402
16705TIP3    H271531   1.211   3.977   2.374 -2.3993 -0.0807 -1.6687
16706TIP3   OH271532   6.570   4.143  16.871  0.0704  0.6996  0.1477
16706TIP3    H171533   6.620   4.062  16.854 -0.0497  0.5825  0.3563
16706TIP3    H271534   6.499   4.116  16.929 -1.3263  0.4906 -1.6077
16707TIP3   OH271535   0.119   1.470   3.473  0.3149 -0.1675  0.3534
16707TIP3    H171536   0.061   1.402   3.509 -1.4794  1.3750  0.4221
16707TIP3    H271537   0.147   1.520   3.549  0.6226 -0.0385  0.1564
16708TIP3   OH271538   4.688   3.480  13.069  0.4742  0.7191  0.2023
16708TIP3    H171539   4.695   3.544  12.998  2.0966 -0.4284 -0.6997
16708TIP3    H271540   4.759   3.503  13.128  2.6719 -1.7408 -1.3880
16709TIP3   OH271541   3.375   6.217  12.077 -0.3506  0.2250  0.4578
16709TIP3    H171542   3.429   6.295  12.066  1.1176 -0.8888 -0.3340
16709TIP3    H271543   3.287   6.245  12.049  0.6561  0.9463 -2.1757
16710TIP3   OH271544   0.632   5.966   4.841 -0.2368 -0.0854  0.2048
16710TIP3    H171545   0.624   6.014   4.759 -0.4119 -0.9545 -0.2882
16710TIP3    H271546   0.727   5.958   4.855 -0.2090  0.4721  0.3273
16711TIP3   OH271547   0.158   2.559  14.292  0.6462 -0.1473 -0.3374
16711TIP3    H171548   0.181   2.525  14.206 -0.2999 -0.6673 -0.3799
16711TIP3    H271549   0.202   2.644  14.296 -0.6294  0.6154 -1.9685
16712TIP3   OH271550   5.737   1.369   3.037  0.3307 -0.3122  0.2343
16712TIP3    H171551   5.650   1.358   3.000 -0.0909  0.8867  0.8662
16712TIP3    H271552   5.729   1.337   3.127  0.5442 -0.2053  0.2913
16713TIP3   OH271553   2.998   5.876  12.967  0.1951  0.2088  0.3252
16713TIP3    H171554   2.958   5.944  13.021  0.1893  0.3143  0.1879
16713TIP3    H271555   2.988   5.907  12.877 -0.1722 -0.1686  0.2350
16714TIP3   OH271556   5.908   4.951  13.893 -0.2389 -0.1711 -0.1894
16714TIP3    H171557   5.908   5.045  13.879 -1.3480 -0.3699 -1.6492
16714TIP3    H271558   5.999   4.929  13.912 -0.1470  1.3160  1.1342
16715TIP3   OH271559   0.836   5.244  13.137  0.5085 -0.2031 -0.0944
16715TIP3    H171560   0.771   5.175  13.124  0.4640 -0.0268 -0.7808
16715TIP3    H271561   0.830   5.298  13.059  0.4666  0.6462  0.4975
16716TIP3   OH271562   4.933   0.700  12.431 -0.5315 -0.2766  0.3737
16716TIP3    H171563   4.913   0.628  12.372 -1.0920  1.3744 -1.5049
16716TIP3    H271564   5.023   0.685  12.458 -0.2608 -1.0622 -0.9193
16717TIP3   OH271565   1.531   3.453   2.319 -0.3903 -0.6147 -0.1297
16717TIP3    H171566   1.532   3.494   2.232  2.8741 -0.8716 -0.2957
16717TIP3    H271567   1.453   3.488   2.362 -1.3711  0.4810 -2.7056
16718TIP3   OH271568   3.305   5.676  15.743 -0.0027 -0.0744 -0.4268
16718TIP3    H171569   3.267   5.636  15.664  2.5282 -1.0761 -1.1852
16718TIP3    H271570   3.256   5.638  15.815 -1.2733 -0.3723 -1.4183
16719TIP3   OH271571   0.316   3.321   2.661  0.0572 -0.0320  0.1024
16719TIP3    H171572   0.318   3.248   2.600 -0.0682  0.8961 -1.0279
16719TIP3    H271573   0.247   3.298   2.724 -0.3475 -0.6194 -0.5562
16720TIP3   OH271574   3.629   0.721   4.734  0.1510  0.5181 -0.7724
16720TIP3    H171575   3.694   0.698   4.801  0.4988  0.7701 -1.0245
16720TIP3    H271576   3.622   0.642   4.681  0.7656  0.7272 -1.1646
16721TIP3   OH271577   0.033   4.941  12.823  0.4337  0.7675 -0.0913
16721TIP3    H171578   0.032   4.969  12.914  1.5281 -2.0966  0.8415
16721TIP3    H271579  -0.032   4.871  12.818  0.8367  0.4698 -1.3926
16722TIP3   OH271580   0.962   2.512   5.572  0.3145 -0.3714  0.2079
16722TIP3    H171581   0.918   2.598   5.575 -0.6980 -0.8937  0.7633
16722TIP3    H271582   0.990   2.503   5.481 -1.4518 -0.3612 -0.3612
16723TIP3   OH271583   4.687   3.667  12.537  0.4266 -0.3493  0.0227
16723TIP3    H171584   4.731   3.582  12.528  0.7259 -0.1335 -0.6088
16723TIP3    H271585   4.636   3.676  12.457 -1.5060 -0.9985  1.1658
16724TIP3   OH271586   3.044   1.540  15.643  0.9923 -0.2193  0.0063
16724TIP3    H171587   2.958   1.503  15.624  0.7245 -0.3073  1.3504
16724TIP3    H271588   3.099   1.465  15.667  1.9635 -0.3893 -2.6291
16725TIP3   OH271589   2.571   0.885  16.970 -0.5933  0.3700  0.3429
16725TIP3    H171590   2.582   0.804  17.020 -1.1634 -0.2336 -0.4985
16725TIP3    H271591   2.626   0.873  16.893 -0.8876  0.6789  0.0825
16726TIP3   OH271592   6.633   0.487  10.257 -0.1211 -0.3397  0.0850
16726TIP3    H171593   6.559   0.546  10.244 -0.9548 -1.4082 -0.1128
16726TIP3    H271594   6.629   0.463  10.349 -1.1003 -1.7865 -0.3122
16727TIP3   OH271595   3.315   1.928   4.598  0.3132  0.0376  0.2324
16727TIP3    H171596   3.304   1.935   4.503  1.6971 -1.1307 -0.0253
16727TIP3    H271597   3.324   2.019   4.628  0.7804  0.3631 -0.8667
16728TIP3   OH271598   5.949   4.756   6.310 -0.5894 -0.4242  0.6073
16728TIP3    H171599   6.011   4.690   6.279  0.8573  0.4897  1.4867
16728TIP3    H271600   5.932   4.811   6.234  2.1872  1.2299  1.1358
16729TIP3   OH271601   6.531   5.264  16.201  0.0176 -0.0791  0.3665
16729TIP3    H171602   6.470   5.336  16.185 -0.7228 -0.7121  0.3186
16729TIP3    H271603   6.583   5.292  16.276 -1.0361  0.0115  1.0710
16730TIP3   OH271604   1.738   3.709  13.120 -0.2139 -0.5826  0.1875
16730TIP3    H171605   1.749   3.766  13.196 -1.7403  0.2616 -0.2205
16730TIP3    H271606   1.750   3.766  13.044  0.1021 -1.1815 -0.2186
16731TIP3   OH271607   6.560   1.993  12.625  0.1902 -0.4559  0.3814
16731TIP3    H171608   6.572   1.921  12.687  0.7350  0.3051  1.1649
16731TIP3    H271609   6.532   2.067  12.679  0.3029  0.1081 -0.3317
16732TIP3   OH271610   5.707   3.713   4.223  0.4221 -0.1932 -0.3783
16732TIP3    H171611   5.659   3.633   4.201  0.2026 -0.0863 -0.2898
16732TIP3    H271612   5.663   3.782   4.173  0.6134 -0.1298 -0.4575
16733TIP3   OH271613   3.626   0.203  10.607  0.3177 -0.0235  0.3358
16733TIP3    H171614   3.589   0.277  10.560  0.4320  0.3044  0.7536
16733TIP3    H271615   3.557   0.175  10.667  0.2559 -0.2853  0.1420
16734TIP3   OH271616   0.532   4.721   2.112  0.6196  0.1490 -0.1984
16734TIP3    H171617   0.456   4.766   2.147  1.6786  0.4931  1.7332
16734TIP3    H271618   0.510   4.703   2.020 -0.4599  3.1453 -0.5650
16735TIP3   OH271619   1.073   4.677   5.418 -0.3650 -0.4281  0.0521
16735TIP3    H171620   1.040   4.749   5.471  0.3353 -0.0807  0.0224
16735TIP3    H271621   1.162   4.662   5.450 -0.4350 -1.1457 -0.0740
16736TIP3   OH271622   6.091   5.479  16.732 -0.2548  0.1007 -0.0400
16736TIP3    H171623   6.154   5.413  16.763  0.0208  0.5732  0.4113
16736TIP3    H271624   6.010   5.459  16.778 -0.3115 -0.2343 -0.2857
16737TIP3   OH271625   6.143   0.026  15.739 -0.0411  0.4196 -0.1557
16737TIP3    H171626   6.097   0.108  15.758  0.7739  0.8172  0.1133
16737TIP3    H271627   6.161   0.030  15.645 -0.2544  0.4172 -0.1969
16738TIP3   OH271628   4.695   2.699  16.521 -0.8963 -0.2492  0.3786
16738TIP3    H171629   4.633   2.629  16.503 -2.3539  0.7091  1.5659
16738TIP3    H271630   4.682   2.762  16.450 -0.1702 -0.7655 -0.2284
16739TIP3   OH271631   1.362   5.061  16.094 -0.0013  0.2442  0.2020
16739TIP3    H171632   1.305   5.104  16.030 -0.4525 -1.3116 -0.4662
16739TIP3    H271633   1.451   5.080  16.064 -0.2085 -0.2302 -0.7334
16740TIP3   OH271634   1.867   5.526   3.090  0.2786 -0.1230  0.5642
16740TIP3    H171635   1.926   5.559   3.022  0.9047 -0.6455  0.8473
16740TIP3    H271636   1.787   5.503   3.043  0.3774  0.3763  0.1406
16741TIP3   OH271637   1.989   3.561  16.775 -0.8024  0.0768 -0.7264
16741TIP3    H171638   1.907   3.607  16.792  1.8837  4.3381  1.8602
16741TIP3    H271639   2.026   3.605  16.699 -0.1563 -0.6710 -0.8516
16742TIP3   OH271640   3.304   1.937   2.223  0.2209 -0.3091  0.2745
16742TIP3    H171641   3.379   1.980   2.265  2.3627 -1.7223 -1.8969
16742TIP3    H271642   3.286   1.861   2.279  0.7779 -0.2611  0.5289
16743TIP3   OH271643   2.397   0.560   1.977  0.4985  0.3553 -0.2251
16743TIP3    H171644   2.488   0.532   1.967 -0.0153 -1.6339  0.5340
16743TIP3    H271645   2.353   0.485   2.016 -0.9036  2.2910  2.0320
16744TIP3   OH271646   0.431   3.342  16.530 -1.1777 -0.3171 -0.2184
16744TIP3    H171647   0.385   3.293  16.463 -2.2895  1.9290 -1.1738
16744TIP3    H271648   0.394   3.310  16.613 -2.6118 -0.3697 -0.8661
16745TIP3   OH271649   0.683   0.804  12.348  0.2335 -0.3596  0.2152
16745TIP3    H171650   0.601   0.828  12.304  0.1561 -2.3734 -0.7691
16745TIP3    H271651   0.729   0.887  12.359 -1.3318  0.6270 -0.4583
16746TIP3   OH271652   2.789   0.787  15.408 -0.0798 -0.5122  0.1701
16746TIP3    H171653   2.762   0.734  15.333 -0.5780 -0.4552  0.3117
16746TIP3    H271654   2.786   0.727  15.482  0.4405 -0.5758  0.1450
16747TIP3   OH271655   2.855   6.746   2.346 -0.7859  0.0211 -0.0631
16747TIP3    H171656   2.786   6.681   2.342 -1.4983  0.7642  0.0383
16747TIP3    H271657   2.916   6.713   2.412 -0.7927 -0.8697 -0.4957
16748TIP3   OH271658   0.321   3.543   5.495 -0.5094 -0.8271  0.1524
16748TIP3    H171659   0.384   3.610   5.522  0.4985 -2.0179  0.8196
16748TIP3    H271660   0.239   3.571   5.535 -0.2624  0.3933 -0.1708
16749TIP3   OH271661   4.725   6.301  12.647 -0.4448  0.2849  0.4098
16749TIP3    H171662   4.648   6.351  12.675  0.6009  3.3459 -1.8754
16749TIP3    H271663   4.711   6.284  12.554 -0.6687 -3.6591  1.0820
16750TIP3   OH271664   0.929   0.561   3.638 -0.5618 -0.0605 -0.5491
16750TIP3    H171665   0.998   0.576   3.574 -0.7505 -1.9825 -1.2114
16750TIP3    H271666   0.847   0.562   3.588 -0.8201 -0.1989 -0.1404
16751TIP3   OH271667   1.097   4.375   2.150 -0.3427 -0.4110 -0.0046
16751TIP3    H171668   1.071   4.337   2.234 -0.0873 -0.4470  0.0594
16751TIP3    H271669   1.021   4.426   2.122 -0.1879  0.1592  0.5818
16752TIP3   OH271670   6.657   2.452  10.737  0.0352  0.4643 -0.4261
16752TIP3    H171671   6.624   2.541  10.750  0.0409  0.2849  0.9198
16752TIP3    H271672   6.752   2.461  10.740  0.0256  0.1476  1.7944
16753TIP3   OH271673   6.172   2.994   5.862  0.4519  0.0183  0.0732
16753TIP3    H171674   6.159   3.081   5.823  0.1036  1.0232  2.3489
16753TIP3    H271675   6.238   2.953   5.807  0.8741  1.8771 -0.8451
16754TIP3   OH271676   1.458   3.256  13.028  0.3731  0.0562 -0.4378
16754TIP3    H171677   1.422   3.215  12.949 -1.6239  0.1012  0.3968
16754TIP3    H271678   1.493   3.340  12.998 -1.7136  0.7372 -1.0632
16755TIP3   OH271679   3.288   3.100   6.306  0.3194  0.2879  0.0039
16755TIP3    H171680   3.375   3.129   6.332  0.3214  1.0983 -0.9066
16755TIP3    H271681   3.230   3.139   6.372  0.2721  2.7745 -1.4526
16756TIP3   OH271682   4.932   0.355  16.494 -0.8673 -0.1580 -0.4393
16756TIP3    H171683   5.001   0.289  16.500 -0.2733  0.5721  1.0960
16756TIP3    H271684   4.854   0.306  16.466  0.3655 -0.9014 -2.7123
16757TIP3   OH271685   2.527   1.522   0.150  0.1725 -0.0004 -0.5859
16757TIP3    H171686   2.437   1.498   0.129  0.6428 -1.1083 -1.3987
16757TIP3    H271687   2.519   1.600   0.205 -1.3801 -1.5353  1.4515
16758TIP3   OH271688   0.474   5.263   0.755 -0.5213  0.1200 -0.3389
16758TIP3    H171689   0.440   5.341   0.799 -0.9532 -1.0249  1.4480
16758TIP3    H271690   0.535   5.224   0.818 -0.4386 -1.0703 -1.1258
16759TIP3   OH271691   5.543   0.412  12.221  0.2963  0.4255  0.0741
16759TIP3    H171692   5.572   0.488  12.272  0.9803  0.0239  0.2854
16759TIP3    H271693   5.595   0.416  12.140 -1.4299  1.5788 -1.0167
16760TIP3   OH271694   4.077   3.906  15.595  0.1088 -0.1768  0.1172
16760TIP3    H171695   4.138   3.891  15.668  0.0703  0.8888  0.3813
16760TIP3    H271696   4.111   3.984  15.551  0.8551 -1.5447 -1.8052
16761TIP3   OH271697   0.601   0.164  11.346 -0.2345 -0.2454  0.0432
16761TIP3    H171698   0.540   0.172  11.274  0.3696 -0.1889 -0.4649
16761TIP3    H271699   0.687   0.156  11.305  0.3603  1.8926  0.7677
16762TIP3   OH271700   3.576   0.142  13.905  0.3340 -0.6710 -0.0588
16762TIP3    H171701   3.624   0.138  13.823  1.1725  1.9126  0.2633
16762TIP3    H271702   3.486   0.119  13.882  0.7535 -0.8388 -1.5308
16763TIP3   OH271703   3.358   2.150  16.482 -0.2924  0.1473 -0.3935
16763TIP3    H171704   3.271   2.110  16.471  0.6562 -1.8818 -0.7646
16763TIP3    H271705   3.411   2.112  16.412  0.5981  2.3267 -0.9556
16764TIP3   OH271706   3.559   3.729   4.736  0.2092 -0.2550  0.1279
16764TIP3    H171707   3.519   3.661   4.681 -0.0819  0.2901 -0.3312
16764TIP3    H271708   3.641   3.751   4.691  0.3534 -0.3733  0.3309
16765TIP3   OH271709   1.986   0.306  13.851 -0.1620  0.3890 -0.1746
16765TIP3    H171710   1.935   0.252  13.791 -0.6931  2.2365 -1.4064
16765TIP3    H271711   2.069   0.320  13.806  0.0081  0.5335  0.1826
16766TIP3   OH271712   3.790   0.347   2.190 -0.5121  0.0637  0.5395
16766TIP3    H171713   3.882   0.341   2.217 -0.7124 -0.6270  1.0767
16766TIP3    H271714   3.758   0.257   2.193 -0.4828 -0.0878 -2.2454
16767TIP3   OH271715   6.522   5.348   1.212  0.3597  0.2569  0.2672
16767TIP3    H171716   6.436   5.360   1.171  0.0257 -1.4684  0.4487
16767TIP3    H271717   6.508   5.371   1.304  0.0312 -0.2912  0.3518
16768TIP3   OH271718   1.200   1.115  17.174 -0.4353 -0.3179 -0.2830
16768TIP3    H171719   1.133   1.076  17.118  0.6878 -0.3550 -1.6279
16768TIP3    H271720   1.267   1.046  17.184 -0.8013 -0.4527  1.4350
16769TIP3   OH271721   2.838   0.649  14.221  0.5904 -0.4032 -0.5416
16769TIP3    H171722   2.779   0.678  14.290 -2.0692 -2.0214 -2.0666
16769TIP3    H271723   2.891   0.580  14.261  0.3500 -0.0487  0.3924
16770TIP3   OH271724   6.180   4.203  16.817  0.1416 -0.8793 -0.4154
16770TIP3    H171725   6.182   4.155  16.733  0.5084 -0.6339 -0.5462
16770TIP3    H271726   6.089   4.198  16.844  0.0089 -0.9278 -0.8530
16771TIP3   OH271727   5.530   2.157  16.296  0.0389  0.2416 -0.4199
16771TIP3    H171728   5.584   2.228  16.263  1.8954 -2.0813 -2.6044
16771TIP3    H271729   5.539   2.087  16.230 -1.6915 -2.0121  1.6269
16772TIP3   OH271730   3.089   1.778   2.965 -0.0658 -0.1330 -0.1096
16772TIP3    H171731   3.108   1.694   3.007 -1.3094 -0.1546  0.4365
16772TIP3    H271732   3.104   1.842   3.035  1.6408  0.1927 -0.7384
16773TIP3   OH271733   0.625   1.782  16.732  0.2568  0.3501 -0.2382
16773TIP3    H171734   0.563   1.723  16.775  0.0043  1.5919  1.1293
16773TIP3    H271735   0.705   1.731  16.724  0.0169 -0.2113  0.8613
16774TIP3   OH271736   4.991   4.214   3.618 -0.2241 -0.4851 -0.5175
16774TIP3    H171737   5.085   4.198   3.616 -0.1197  0.0357  0.1699
16774TIP3    H271738   4.956   4.142   3.671 -0.0561  0.1157  0.3986
16775TIP3   OH271739   2.772   5.307  13.169 -0.2438  0.8633 -0.2978
16775TIP3    H171740   2.828   5.276  13.240 -0.8126 -0.2401 -0.3218
16775TIP3    H271741   2.703   5.241  13.162 -0.3863  1.1448 -1.6463
16776TIP3   OH271742   6.293   4.033   0.567 -0.0235 -0.6303 -0.1726
16776TIP3    H171743   6.340   4.006   0.489 -1.8866  0.2316 -1.6246
16776TIP3    H271744   6.359   4.081   0.619  1.0804 -0.7452 -1.4483
16777TIP3   OH271745   0.257   6.150  13.155  0.0544  0.4223 -0.5422
16777TIP3    H171746   0.275   6.220  13.092 -1.3291 -0.0902 -1.5449
16777TIP3    H271747   0.161   6.144  13.157  0.1165 -0.4202  0.6757
16778TIP3   OH271748   3.214   2.717   0.272  0.0268  0.0045 -0.1107
16778TIP3    H171749   3.157   2.779   0.226 -0.1597  0.2474  0.4359
16778TIP3    H271750   3.282   2.772   0.312 -2.2545  0.3833  3.5844
16779TIP3   OH271751   5.842   2.114  11.178 -0.1245 -0.1463  0.1628
16779TIP3    H171752   5.812   2.053  11.111 -0.8580 -0.3086  0.6382
16779TIP3    H271753   5.937   2.118  11.167  0.1088 -2.5399  1.1045
16780TIP3   OH271754   5.254   2.860   2.000 -0.0718 -0.3379  0.0141
16780TIP3    H171755   5.326   2.838   1.940 -2.2560 -3.0382 -1.7267
16780TIP3    H271756   5.232   2.777   2.043 -1.3858  0.7065  1.4065
16781TIP3   OH271757   4.908   1.364   4.613  0.4382  0.4145  0.0645
16781TIP3    H171758   4.843   1.432   4.632 -0.6320 -0.6733  0.3727
16781TIP3    H271759   4.973   1.373   4.682  0.3830  1.2052  0.0243
16782TIP3   OH271760   1.057   4.451   0.429  0.0194  0.3746 -0.1475
16782TIP3    H171761   0.970   4.448   0.469  0.0142 -0.4791 -0.2322
16782TIP3    H271762   1.041   4.481   0.339 -0.2891 -0.7702 -0.4758
16783TIP3   OH271763   3.652   2.967   1.340 -0.0859  0.3138  0.3321
16783TIP3    H171764   3.571   2.922   1.364 -0.4385  0.9202  0.2757
16783TIP3    H271765   3.671   3.025   1.414  0.3981  0.0428  0.4269
16784TIP3   OH271766   0.689   2.988  12.417 -0.0425 -0.1785  0.6926
16784TIP3    H171767   0.627   2.917  12.398 -1.1504  0.7827  0.6626
16784TIP3    H271768   0.752   2.949  12.477  1.3152 -2.1836 -1.8902
16785TIP3   OH271769   6.091   2.558  12.745 -0.6455  0.4022  0.2777
16785TIP3    H171770   6.145   2.616  12.799 -0.7713  0.4197  0.3850
16785TIP3    H271771   6.104   2.471  12.783 -0.5552  0.3782  0.1947
16786TIP3   OH271772   1.251   1.557  11.667 -0.2731  0.1152  0.0097
16786TIP3    H171773   1.234   1.590  11.579 -1.4505 -1.3417 -0.3433
16786TIP3    H271774   1.345   1.567  11.679  0.1425 -1.0058 -2.0075
16787TIP3   OH271775   1.101   6.025   0.688  0.3308 -0.1931 -0.1865
16787TIP3    H171776   1.010   5.995   0.690  0.4199 -0.4143  0.4880
16787TIP3    H271777   1.119   6.054   0.777  1.3129 -1.3080 -0.0101
16788TIP3   OH271778   1.620   0.925   0.581 -0.2407 -0.2858  0.4811
16788TIP3    H171779   1.677   0.849   0.581  0.9014  0.5473  1.5468
16788TIP3    H271780   1.550   0.903   0.643  0.6698 -0.0529  1.6041
16789TIP3   OH271781   4.026   5.566  12.593 -0.4243  0.2236 -0.6099
16789TIP3    H171782   4.118   5.542  12.592 -0.2813  0.6685  0.9148
16789TIP3    H271783   3.979   5.483  12.582  0.1422 -0.0168 -1.2541
16790TIP3   OH271784   3.533   5.098   5.535 -0.1031  0.1627  0.1933
16790TIP3    H171785   3.461   5.053   5.490  0.3670 -0.7372  0.3535
16790TIP3    H271786   3.605   5.098   5.472 -0.5464  1.9784 -0.3672
16791TIP3   OH271787   3.320   4.264  14.925 -0.0233  0.5024 -0.1950
16791TIP3    H171788   3.264   4.242  14.850 -1.2240 -1.9938  1.3627
16791TIP3    H271789   3.269   4.328  14.975 -0.7582 -0.4509  0.2960
16792TIP3   OH271790   2.904   4.979   1.218 -0.6343  0.2814  0.2576
16792TIP3    H171791   2.898   5.015   1.307  0.6346  2.0616 -0.3423
16792TIP3    H271792   2.820   5.001   1.178 -0.2776  1.6836  0.2427
16793TIP3   OH271793   0.416   3.907   5.400  0.0183 -0.0526  0.4317
16793TIP3    H171794   0.429   3.847   5.474 -3.7155 -1.7756 -0.1840
16793TIP3    H271795   0.420   3.995   5.439  2.0775 -0.7832  1.9386
16794TIP3   OH271796   0.658   5.203   0.028  0.0910  0.5523  0.0478
16794TIP3    H171797   0.579   5.150   0.019  0.5781 -0.0136 -1.0152
16794TIP3    H271798   0.701   5.169   0.106  0.0714 -0.1911 -0.2604
16795TIP3   OH271799   1.343   2.114   5.902  0.0538  0.7719  0.1884
16795TIP3    H171800   1.325   2.032   5.948 -0.2065 -0.1862 -1.5733
16795TIP3    H271801   1.439   2.118   5.899  0.1036 -1.3361 -2.8855
16796TIP3   OH271802   2.295   4.052  12.025  0.0815  0.0481  0.1704
16796TIP3    H171803   2.343   4.038  12.106 -1.0891 -0.8186  0.7260
16796TIP3    H271804   2.212   4.005  12.037 -0.7191  1.1256 -0.9418
16797TIP3   OH271805   3.447   4.462  13.891 -0.2773 -0.7801  0.2278
16797TIP3    H171806   3.498   4.453  13.811 -0.1013  0.6763  0.1662
16797TIP3    H271807   3.375   4.521  13.867 -0.7797 -1.1180  0.8805
16798TIP3   OH271808   0.536   6.072   0.906  0.0174  0.7708 -0.0884
16798TIP3    H171809   0.463   6.011   0.920  0.3239  0.0424 -1.5373
16798TIP3    H271810   0.613   6.025   0.940  0.5785 -0.5272 -2.9987
16799TIP3   OH271811   3.162   2.932   2.105  0.2820  0.0957  0.3601
16799TIP3    H171812   3.170   3.014   2.153  3.6690 -0.5882  1.1145
16799TIP3    H271813   3.179   2.864   2.169  0.1644 -1.0714 -0.8147
16800TIP3   OH271814   4.344   0.131   1.166 -0.4657  0.1763 -0.1494
16800TIP3    H171815   4.343   0.172   1.253 -1.1622  0.4100 -0.2599
16800TIP3    H271816   4.258   0.154   1.129 -1.1277 -1.9321  0.0451
16801TIP3   OH271817   5.034   6.096  10.801 -0.1531 -0.0788  0.2707
16801TIP3    H171818   5.064   6.130  10.717  1.0064 -0.2029  0.6209
16801TIP3    H271819   5.115   6.080  10.850 -0.8035 -0.4185  1.2438
16802TIP3   OH271820   0.675   3.699   4.860  0.2277 -0.3087 -0.4523
16802TIP3    H171821   0.609   3.765   4.838  0.6066 -0.4961 -2.2103
16802TIP3    H271822   0.738   3.703   4.788  0.9835 -1.6519  0.1162
16803TIP3   OH271823   1.680   1.302  15.373 -0.0451 -0.0467  0.0348
16803TIP3    H171824   1.654   1.309  15.464 -0.0674  0.7107 -0.0239
16803TIP3    H271825   1.638   1.222  15.341  0.4507 -0.6285  0.8409
16804TIP3   OH271826   0.990   2.172   1.493  0.1919 -0.4867 -0.1383
16804TIP3    H171827   0.949   2.086   1.486  1.6760 -1.1987 -0.2446
16804TIP3    H271828   0.981   2.196   1.585 -0.2507 -0.7422 -0.1152
16805TIP3   OH271829   5.220   0.854  12.510 -0.0038  0.0058 -0.3875
16805TIP3    H171830   5.227   0.768  12.469  0.2485 -0.4177  0.5410
16805TIP3    H271831   5.291   0.905  12.470 -1.6091  0.5294 -2.6815
16806TIP3   OH271832   1.396   2.469   6.451  0.0549  0.0914 -0.0473
16806TIP3    H171833   1.412   2.550   6.401  0.3624 -1.2162 -2.1524
16806TIP3    H271834   1.482   2.428   6.457 -0.6355 -1.7389 -2.0307
16807TIP3   OH271835   2.014   5.331  11.045  0.0446  0.6517 -0.1630
16807TIP3    H171836   1.938   5.285  11.009 -0.6414  0.1883  1.8499
16807TIP3    H271837   1.981   5.418  11.069  0.0677  0.3456  1.0002
16808TIP3   OH271838   0.536   5.683  11.423 -0.0028 -0.4365  0.0965
16808TIP3    H171839   0.600   5.740  11.466 -0.8107  0.3871  0.2191
16808TIP3    H271840   0.587   5.635  11.358  1.0247 -0.8600  1.1761
16809TIP3   OH271841   3.716   3.094   6.153 -0.1645  0.1886  0.0047
16809TIP3    H171842   3.811   3.102   6.140  0.1029 -1.4225  0.7768
16809TIP3    H271843   3.680   3.088   6.064  0.5778 -0.2575 -0.2778
16810TIP3   OH271844   4.279   4.218  17.058 -0.1353 -0.3941  0.4633
16810TIP3    H171845   4.339   4.284  17.092 -1.2275  0.1586  1.3754
16810TIP3    H271846   4.196   4.237  17.103 -0.7809 -1.6030 -0.2144
16811TIP3   OH271847   3.096   1.203   0.583  0.8751 -0.6249  0.1840
16811TIP3    H171848   3.079   1.233   0.494  2.0496  0.7553  0.3989
16811TIP3    H271849   3.027   1.139   0.601  0.3567 -0.5609 -1.5396
16812TIP3   OH271850   5.514   2.607  13.693 -0.7265 -0.1216 -0.4316
16812TIP3    H171851   5.593   2.557  13.674 -0.9729 -0.0851 -1.6302
16812TIP3    H271852   5.544   2.690  13.727 -0.2299  0.1769 -1.5957
16813TIP3   OH271853   5.681   5.733   4.443 -0.4125  0.4470  0.7056
16813TIP3    H171854   5.703   5.738   4.350 -1.1015 -0.2835  0.4976
16813TIP3    H271855   5.592   5.768   4.448 -0.9504 -0.8921  0.8624
16814TIP3   OH271856   0.305   3.288  11.294  0.0645  0.7224  0.4790
16814TIP3    H171857   0.300   3.262  11.202 -1.0318  0.5590  0.5773
16814TIP3    H271858   0.338   3.378  11.292 -0.3668  0.8731 -0.1017
16815TIP3   OH271859   2.109   4.919   2.164  0.1092  0.1644  0.1084
16815TIP3    H171860   2.161   4.896   2.087 -0.7893  1.1983 -0.8301
16815TIP3    H271861   2.173   4.927   2.235  0.9182 -1.0217 -0.4737
16816TIP3   OH271862   2.340   3.701   2.933  0.3780  0.0273 -0.1016
16816TIP3    H171863   2.424   3.665   2.903 -0.0406 -1.0103 -0.0249
16816TIP3    H271864   2.361   3.746   3.015  0.8249 -0.3552 -0.0094
16817TIP3   OH271865   6.060   4.780  11.755  0.0166 -0.6903 -0.3291
16817TIP3    H171866   5.979   4.730  11.758  0.0206 -0.6062  1.5241
16817TIP3    H271867   6.129   4.715  11.769  0.2353 -0.6475 -1.1677
16818TIP3   OH271868   1.717   1.095   5.671  0.1843  0.1239  0.8217
16818TIP3    H171869   1.721   1.124   5.580 -3.2734  2.0802  1.2250
16818TIP3    H271870   1.649   1.028   5.673  2.4699 -2.2574  1.4366
16819TIP3   OH271871   0.376   3.815  13.020  0.2908  0.4631 -0.2996
16819TIP3    H171872   0.357   3.886  12.959  1.7335  0.0772 -1.2288
16819TIP3    H271873   0.472   3.808  13.019  0.2921 -0.0899  1.3967
16820TIP3   OH271874   3.584   3.267  12.371  0.4362 -0.0283  0.1869
16820TIP3    H171875   3.568   3.216  12.451 -2.9225  1.2646  0.4387
16820TIP3    H271876   3.583   3.202  12.301  0.0578 -0.7661  0.8628
16821TIP3   OH271877   4.076   2.168   4.415  0.0175  0.3516  0.0479
16821TIP3    H171878   4.007   2.182   4.479 -0.5432 -1.7514 -0.0635
16821TIP3    H271879   4.110   2.081   4.435  1.0503  0.4111 -1.3721
16822TIP3   OH271880   0.245   6.407  16.218 -0.0194 -0.1431 -0.0462
16822TIP3    H171881   0.273   6.357  16.294 -0.0084  0.8787  0.6321
16822TIP3    H271882   0.149   6.400  16.218  0.1148 -2.3890 -1.5047
16823TIP3   OH271883   5.065   0.903  15.219  0.1281 -0.6437 -0.0226
16823TIP3    H171884   4.977   0.894  15.182  0.6780  0.6531 -1.6725
16823TIP3    H271885   5.050   0.907  15.314 -1.3610 -3.1948 -0.0888
16824TIP3   OH271886   4.327   5.669  15.711  0.8292 -0.3003  0.2917
16824TIP3    H171887   4.386   5.662  15.636 -0.2090 -0.0215 -0.5664
16824TIP3    H271888   4.383   5.657  15.787  2.0189  0.1198 -0.5041
16825TIP3   OH271889   1.271   6.371  16.106 -0.3389  0.3425 -0.1438
16825TIP3    H171890   1.180   6.343  16.109 -0.3299  0.3884  0.9964
16825TIP3    H271891   1.269   6.465  16.124  0.0824 -0.0711  2.3381
16826TIP3   OH271892   5.537   6.299   4.173  0.4721  0.0023 -0.1717
16826TIP3    H171893   5.481   6.370   4.140 -0.1466 -0.1698  0.4909
16826TIP3    H271894   5.593   6.340   4.238 -0.1676 -0.1820  0.5112
16827TIP3   OH271895   4.883   2.199   2.465 -0.5300 -0.1205  0.0711
16827TIP3    H171896   4.862   2.188   2.372 -0.9018 -2.1288  0.3835
16827TIP3    H271897   4.817   2.262   2.497  0.5408  1.7848 -1.3396
16828TIP3   OH271898   0.494   6.613  14.058 -0.3636 -0.2309  0.0490
16828TIP3    H171899   0.540   6.697  14.059 -0.6549  0.0217 -3.0256
16828TIP3    H271900   0.524   6.569  14.137  0.6138  2.3259  1.1811
16829TIP3   OH271901   1.697   3.436  14.652 -0.1432  0.4796  0.0825
16829TIP3    H171902   1.774   3.379  14.649  0.2550  0.9334  1.1634
16829TIP3    H271903   1.664   3.427  14.741 -1.5691  0.0136 -0.4812
16830TIP3   OH271904   3.581   2.517  14.099  0.3076 -0.4422 -0.0425
16830TIP3    H171905   3.491   2.531  14.128  0.0801  2.0851 -1.7917
16830TIP3    H271906   3.577   2.440  14.042 -1.0314  0.5105 -1.2732
16831TIP3   OH271907   4.137   4.790   2.089 -0.3821  0.0158  0.0009
16831TIP3    H171908   4.142   4.886   2.092  1.7337 -0.0435 -0.6047
16831TIP3    H271909   4.188   4.761   2.165  0.8294 -0.6564 -1.0636
16832TIP3   OH271910   1.918   0.166  16.329  0.0820  0.3214  0.4316
16832TIP3    H171911   1.936   0.237  16.268 -0.4829  1.3740  1.4475
16832TIP3    H271912   1.927   0.086  16.278  2.6795  1.0155 -0.2754
16833TIP3   OH271913   1.183   2.958  17.035  0.2782  0.2894  0.0392
16833TIP3    H171914   1.130   3.021  16.985  0.1546 -0.1344 -0.3741
16833TIP3    H271915   1.120   2.893  17.066  0.4127  0.3381  0.4112
16834TIP3   OH271916   3.655   3.525  12.098  0.3878  0.3095 -0.2295
16834TIP3    H171917   3.719   3.498  12.164  1.2836  2.7531 -0.0696
16834TIP3    H271918   3.574   3.538  12.147  0.5217  0.1316  0.0451
16835TIP3   OH271919   0.864   1.127   1.485  0.0459  0.1396  0.3003
16835TIP3    H171920   0.819   1.204   1.520  0.6225  1.5502 -1.9100
16835TIP3    H271921   0.812   1.102   1.409 -0.1146 -1.6617  0.9809
16836TIP3   OH271922   0.997   6.281  11.430  0.1955 -0.0050 -0.3342
16836TIP3    H171923   1.078   6.295  11.479  0.7370 -2.8490 -0.3177
16836TIP3    H271924   1.025   6.272  11.339 -0.3542  1.1264 -0.6245
16837TIP3   OH271925   1.007   5.213  14.756  0.2902 -0.5380 -0.1975
16837TIP3    H171926   0.916   5.225  14.728  0.2581  1.6120  0.7287
16837TIP3    H271927   1.023   5.119  14.747 -2.0807 -0.9689 -0.1944
16838TIP3   OH271928   4.007   3.683  13.869  0.0001  0.5853 -0.1655
16838TIP3    H171929   3.951   3.678  13.946  0.3678  0.5964  0.1058
16838TIP3    H271930   3.991   3.600  13.823  0.3914  0.2122  0.3521
16839TIP3   OH271931   5.190   4.676   5.696 -0.0639  0.1014 -0.4377
16839TIP3    H171932   5.204   4.642   5.608 -0.5596  1.8501 -1.2045
16839TIP3    H271933   5.260   4.740   5.708 -0.6002  0.5957  0.0640
16840TIP3   OH271934   2.141   1.672  16.892  0.1403  0.0449 -0.0109
16840TIP3    H171935   2.141   1.760  16.928  1.1663 -0.0329  0.1769
16840TIP3    H271936   2.082   1.677  16.816  0.5782  1.0023 -0.2857
16841TIP3   OH271937   5.102   0.131  10.277 -0.1444  0.1729  0.0315
16841TIP3    H171938   5.062   0.087  10.202 -0.4911 -1.4953  1.1811
16841TIP3    H271939   5.194   0.104  10.276 -0.4854 -1.0768  1.0726
16842TIP3   OH271940   1.973   6.330   5.741 -0.3624  0.6995 -0.2177
16842TIP3    H171941   1.882   6.358   5.736 -1.3796 -2.4563 -0.4051
16842TIP3    H271942   1.996   6.308   5.650  0.2944  0.5589 -0.0227
16843TIP3   OH271943   1.752   0.927   1.237 -0.1700  0.0715 -0.1758
16843TIP3    H171944   1.730   0.883   1.318  0.4286 -0.3019 -0.2166
16843TIP3    H271945   1.704   0.880   1.169  0.1471 -0.2615 -0.1681
16844TIP3   OH271946   4.097   0.408  17.094 -0.1762  0.0245 -0.2936
16844TIP3    H171947   4.004   0.419  17.073 -0.3106 -1.5715 -0.6094
16844TIP3    H271948   4.097   0.376  17.184  0.1324  1.1164  0.1025
16845TIP3   OH271949   0.184   5.085   2.728 -0.1541 -0.3870 -0.5510
16845TIP3    H171950   0.272   5.049   2.733  0.1122  0.3176 -0.0193
16845TIP3    H271951   0.196   5.179   2.742 -0.7945 -0.0326 -2.3308
16846TIP3   OH271952   0.639   5.633   1.335  0.4945  0.1471  0.5501
16846TIP3    H171953   0.678   5.720   1.342  1.3358 -0.0360 -1.4862
16846TIP3    H271954   0.548   5.649   1.308  1.0306  0.3796 -1.1898
16847TIP3   OH271955   1.779   5.408   3.520  0.1007  0.3960 -0.1617
16847TIP3    H171956   1.805   5.476   3.582 -1.7683  1.1711 -0.1722
16847TIP3    H271957   1.773   5.453   3.436  0.3067 -0.1169 -0.4507
16848TIP3   OH271958   6.053   2.204  17.195  0.0121 -0.6539  0.1823
16848TIP3    H171959   6.100   2.149  17.258  0.4408 -0.1506  0.3039
16848TIP3    H271960   6.035   2.145  17.122  0.3053 -1.0096  0.3896
16849TIP3   OH271961   2.436   2.594   3.187  0.2760  0.4669 -0.2106
16849TIP3    H171962   2.414   2.685   3.203  0.4394  0.5187 -0.2792
16849TIP3    H271963   2.357   2.555   3.150 -0.5124  0.0696  1.7892
16850TIP3   OH271964   2.018   3.532   1.884  0.5902  0.0943  0.3192
16850TIP3    H171965   2.020   3.437   1.880 -0.2533 -0.0510  2.6758
16850TIP3    H271966   1.979   3.558   1.800 -1.8752 -1.7951  0.8135
16851TIP3   OH271967   1.678   5.438  11.683 -0.1844 -0.4122 -0.3822
16851TIP3    H171968   1.587   5.418  11.705 -0.6172 -1.8033 -3.1468
16851TIP3    H271969   1.725   5.356  11.701 -0.0277 -0.6155 -1.6553
16852TIP3   OH271970   1.521   0.393  16.412  0.1117 -0.1690  0.2359
16852TIP3    H171971   1.591   0.446  16.374  0.4500 -0.7414  0.0625
16852TIP3    H271972   1.547   0.379  16.503  0.4213 -0.7343  0.0556
16853TIP3   OH271973   5.964   5.888   1.654  0.2913  0.0062  0.3993
16853TIP3    H171974   6.055   5.911   1.671 -0.1552  2.1419  0.0988
16853TIP3    H271975   5.919   5.973   1.650 -1.5886 -0.9968 -0.0659
16854TIP3   OH271976   1.257   4.930   5.658 -0.0631 -0.0467 -0.1562
16854TIP3    H171977   1.240   4.992   5.587 -0.3597  0.3212  0.2374
16854TIP3    H271978   1.264   4.984   5.737  1.4266 -0.3301 -0.0686
16855TIP3   OH271979   2.500   3.011   3.809 -0.3495 -0.2419  0.0777
16855TIP3    H171980   2.426   3.038   3.864 -1.2493 -0.1993 -1.1329
16855TIP3    H271981   2.577   3.050   3.851 -0.8650 -1.2423  2.0079
16856TIP3   OH271982   2.567   1.590   3.803  0.4955 -0.3903  0.2540
16856TIP3    H171983   2.634   1.542   3.851  0.1506 -0.1255  1.0092
16856TIP3    H271984   2.541   1.661   3.862  1.1229  0.8466 -0.9168
16857TIP3   OH271985   2.566   4.481   1.105  0.7228  0.1330 -0.3436
16857TIP3    H171986   2.596   4.402   1.150  0.8971  1.3528  1.6867
16857TIP3    H271987   2.568   4.550   1.171 -0.5477  1.6077 -1.7888
16858TIP3   OH271988   1.334   1.036  13.405  0.0814  0.4641 -0.1404
16858TIP3    H171989   1.409   0.991  13.366 -0.3753  0.0900 -0.5827
16858TIP3    H271990   1.284   1.070  13.331 -0.1695  0.7464  0.1534
16859TIP3   OH271991   1.508   6.517  16.352 -0.1942 -0.2568 -0.4216
16859TIP3    H171992   1.413   6.519  16.364  0.0261  1.2934  1.3564
16859TIP3    H271993   1.535   6.434  16.389 -0.5932  0.4106  1.4127
16860TIP3   OH271994   5.192   5.569   5.357  0.5038  0.6169 -0.6760
16860TIP3    H171995   5.250   5.553   5.431  0.2805  0.5659 -0.5120
16860TIP3    H271996   5.132   5.495   5.357  0.2804  0.7984 -0.6948
16861TIP3   OH271997   5.813   2.378   5.479 -0.5017  0.2295  0.3526
16861TIP3    H171998   5.813   2.386   5.574  0.2288 -1.6315  0.5323
16861TIP3    H271999   5.768   2.456   5.448  2.9655  3.0184  2.0258
16862TIP3   OH272000   6.375   6.628   2.317  0.0687 -0.0889 -0.1997
16862TIP3    H172001   6.400   6.555   2.260  0.1618 -0.2217  0.0089
16862TIP3    H272002   6.285   6.608   2.344 -0.9978  1.3618 -2.4978
16863TIP3   OH272003   5.755   5.285   4.299  0.3569  0.4033 -0.0520
16863TIP3    H172004   5.781   5.300   4.208 -2.5129  1.8499 -0.6794
16863TIP3    H272005   5.805   5.351   4.349  1.2694  0.1784 -0.6522
16864TIP3   OH272006   3.999   5.529   0.137 -0.2611 -0.1027  0.1426
16864TIP3    H172007   4.039   5.464   0.195  0.4779  0.6101  0.4572
16864TIP3    H272008   4.000   5.488   0.051  0.9981 -0.1811  0.1761
16865TIP3   OH272009   2.459   1.764   4.909 -0.5509 -0.2215 -0.4144
16865TIP3    H172010   2.364   1.755   4.901 -0.5658 -0.7097  0.3350
16865TIP3    H272011   2.471   1.852   4.945 -0.7442 -0.3661  0.0089
16866TIP3   OH272012   2.934   1.396   2.734  0.0203 -0.1427  0.3952
16866TIP3    H172013   2.891   1.369   2.653 -1.1478 -0.5693  1.1475
16866TIP3    H272014   3.008   1.335   2.743 -0.8254 -1.1585  0.5033
16867TIP3   OH272015   0.864   4.042  12.473  0.1405 -0.1713  0.8262
16867TIP3    H172016   0.777   4.084  12.470 -0.3552 -1.1646  0.9939
16867TIP3    H272017   0.857   3.969  12.412  0.9849 -0.0428  0.5722
16868TIP3   OH272018   6.360   4.609   0.274  0.2898 -0.4070 -0.0521
16868TIP3    H172019   6.383   4.667   0.202  1.2576 -1.2171 -0.4013
16868TIP3    H272020   6.287   4.653   0.317 -0.4245 -0.0143 -1.6363
16869TIP3   OH272021   1.992   2.683  13.187 -0.2206  0.4246  0.0440
16869TIP3    H172022   1.972   2.642  13.271  1.1209  1.5161  0.8992
16869TIP3    H272023   1.915   2.736  13.168 -1.4299 -1.4475 -0.4567
16870TIP3   OH272024   0.675   6.701   2.155 -0.5195 -0.1506  0.9152
16870TIP3    H172025   0.659   6.618   2.110 -0.1862  0.3154 -0.0830
16870TIP3    H272026   0.760   6.689   2.198 -0.7821 -0.5588  1.3146
16871TIP3   OH272027   0.836   1.986  12.089  0.1563 -0.0917 -0.3301
16871TIP3    H172028   0.856   2.005  11.998 -1.4567  1.1286 -0.4371
16871TIP3    H272029   0.878   1.901  12.105  1.6317  0.3417 -1.7830
16872TIP3   OH272030   3.331   5.827  16.404  0.2082  0.2131  0.2395
16872TIP3    H172031   3.357   5.752  16.351  0.5927  0.9419 -0.6150
16872TIP3    H272032   3.303   5.893  16.340  2.1935  1.6874  0.8416
16873TIP3   OH272033   0.789   1.134   1.179 -0.1823  0.2467  0.4787
16873TIP3    H172034   0.750   1.063   1.129  0.6482 -0.3010  0.6112
16873TIP3    H272035   0.857   1.169   1.122  0.6724 -0.2884  1.1716
16874TIP3   OH272036   2.132   1.269  10.523  0.3431 -0.3993  0.4729
16874TIP3    H172037   2.082   1.284  10.443 -1.2701 -0.7871  1.3893
16874TIP3    H272038   2.134   1.354  10.566  0.2336 -0.4501  0.5772
16875TIP3   OH272039   1.108   4.803  14.460  0.0824 -0.5286  0.1267
16875TIP3    H172040   1.068   4.741  14.398 -0.3251  0.3887 -0.5444
16875TIP3    H272041   1.200   4.779  14.463  0.2477 -0.1292 -1.4052
16876TIP3   OH272042   5.521   5.238  12.144  0.5022  0.4428 -0.7634
16876TIP3    H172043   5.596   5.185  12.171 -0.5065 -0.2058  0.8242
16876TIP3    H272044   5.529   5.319  12.194 -0.4360 -0.0630  0.2146
16877TIP3   OH272045   4.306   1.150   2.605  0.7678 -0.3547 -0.0409
16877TIP3    H172046   4.358   1.070   2.607  2.1249  0.5244  0.5199
16877TIP3    H272047   4.247   1.143   2.681  1.2330 -0.5998  0.2994
16878TIP3   OH272048   5.029   5.643  13.650 -0.2444  0.3286 -0.2475
16878TIP3    H172049   4.939   5.675  13.658 -0.9182 -2.0450  2.4923
16878TIP3    H272050   5.075   5.683  13.724  0.2925 -0.5467 -0.1038
16879TIP3   OH272051   2.055   1.696  13.327 -0.1919 -0.2987  0.2691
16879TIP3    H172052   2.015   1.611  13.310  0.1143 -0.5471  0.7599
16879TIP3    H272053   1.982   1.751  13.356 -0.4194 -0.3491 -0.2174
16880TIP3   OH272054   5.979   1.605  11.163  0.0884 -0.8120  0.1249
16880TIP3    H172055   5.972   1.700  11.174  2.3812 -0.8058  2.1193
16880TIP3    H272056   6.065   1.592  11.123 -0.0344 -2.0593  0.2467
16881TIP3   OH272057   2.832   0.095  12.214  0.2404 -0.4335 -0.5062
16881TIP3    H172058   2.823   0.141  12.131  0.9351  0.5539 -0.0572
16881TIP3    H272059   2.812   0.162  12.280  0.0164 -1.1201  0.1276
16882TIP3   OH272060   3.788   2.417   1.946 -0.3133  0.3732  0.1612
16882TIP3    H172061   3.695   2.436   1.934  0.3510  3.3206 -0.6955
16882TIP3    H272062   3.819   2.485   2.005  0.6879 -2.4531  3.0215
16883TIP3   OH272063   2.857   1.388   0.431  0.1348  0.9736 -0.3245
16883TIP3    H172064   2.923   1.363   0.366  0.0988  0.1365 -0.0361
16883TIP3    H272065   2.828   1.306   0.470 -0.1577  1.4380  0.4589
16884TIP3   OH272066   1.693   5.811   0.711  0.0736 -0.0534 -0.1794
16884TIP3    H172067   1.710   5.905   0.719 -0.7171 -0.0262  1.2865
16884TIP3    H272068   1.622   5.794   0.772 -0.7205 -1.3669 -1.4307
16885TIP3   OH272069   5.534   5.203  11.855  0.0772 -0.3934 -0.0773
16885TIP3    H172070   5.625   5.172  11.854 -0.0322 -0.8498  1.8349
16885TIP3    H272071   5.516   5.219  11.948 -1.6024  0.2854 -0.5138
16886TIP3   OH272072   5.297   1.589   3.745 -0.5591  0.1331  0.3764
16886TIP3    H172073   5.316   1.670   3.697 -0.3401  0.0855  0.3816
16886TIP3    H272074   5.202   1.580   3.740 -0.7717  1.3468  1.9243
16887TIP3   OH272075   0.518   3.507   1.057  0.7987  0.4872 -0.0870
16887TIP3    H172076   0.506   3.584   1.001 -1.0870  0.7234  0.6036
16887TIP3    H272077   0.547   3.543   1.141  2.8873  0.1909 -0.6614
16888TIP3   OH272078   2.774   4.869  15.531  0.2155 -0.2546 -0.0374
16888TIP3    H172079   2.805   4.899  15.616 -0.5951 -1.7747  0.8257
16888TIP3    H272080   2.684   4.899  15.526  0.4981  0.4945 -0.7006
16889TIP3   OH272081   5.615   0.418  15.912  0.4791  0.0955  0.5243
16889TIP3    H172082   5.609   0.345  15.973  2.6343  0.3000  1.0322
16889TIP3    H272083   5.616   0.377  15.825  2.1049 -0.5497  0.8172
16890TIP3   OH272084   2.879   6.521  15.800  0.2117  0.2973  0.3027
16890TIP3    H172085   2.870   6.483  15.713 -0.3466  0.1274  0.4363
16890TIP3    H272086   2.875   6.447  15.860  1.4421  0.3237  0.4304
16891TIP3   OH272087   4.690   6.247  11.611 -0.0533 -0.2049 -0.1106
16891TIP3    H172088   4.606   6.203  11.628 -0.1555  0.3700  0.9626
16891TIP3    H272089   4.723   6.269  11.698  1.9056 -1.6863 -0.4480
16892TIP3   OH272090   2.453   2.512  13.427 -0.3734  0.3880  0.0268
16892TIP3    H172091   2.392   2.529  13.356  0.6638 -0.4499 -1.0879
16892TIP3    H272092   2.526   2.573  13.411  1.0733 -1.6032 -1.1618
16893TIP3   OH272093   5.242   3.534   0.643  0.1792  0.3476 -0.0467
16893TIP3    H172094   5.148   3.545   0.654  0.2878  1.0045  0.2408
16893TIP3    H272095   5.258   3.559   0.552 -0.1293 -1.1677 -0.5295
16894TIP3   OH272096   5.754   2.835   0.961 -0.4861  0.6047  0.0214
16894TIP3    H172097   5.794   2.756   0.925  1.1540  1.1806  0.5363
16894TIP3    H272098   5.726   2.809   1.049  1.0714  0.8785  0.6190
16895TIP3   OH272099   2.406   3.755   5.454 -0.2473  0.6905  0.4336
16895TIP3    H172100   2.426   3.795   5.539  0.8554 -0.5213  0.7564
16895TIP3    H272101   2.402   3.829   5.393  1.5627  1.3331  1.0590
16896TIP3   OH272102   1.747   3.934  12.979  0.2186  0.4261 -0.4563
16896TIP3    H172103   1.726   4.016  13.023 -0.6937 -0.4935  0.8862
16896TIP3    H272104   1.755   3.957  12.886 -1.3764  1.7994 -0.2791
16897TIP3   OH272105   0.275   4.307  15.701  0.3809 -0.0221  0.0842
16897TIP3    H172106   0.284   4.369  15.629  2.5370 -0.6692 -0.2328
16897TIP3    H272107   0.282   4.221  15.660  1.4326 -0.4012  1.0406
16898TIP3   OH272108   2.322   5.632  13.018 -0.2179  0.1989 -0.3264
16898TIP3    H172109   2.378   5.556  13.031 -0.0259  0.0582 -1.9578
16898TIP3    H272110   2.234   5.600  13.035 -0.2777 -0.7349 -2.2861
16899TIP3   OH272111   6.355   4.556   4.154 -0.2270  0.0396  0.5798
16899TIP3    H172112   6.298   4.558   4.231  1.4638 -2.4876  1.9504
16899TIP3    H272113   6.440   4.528   4.187  0.4359 -1.4854 -2.2406
16900TIP3   OH272114   0.411   1.083   2.906  0.0057  0.1107 -0.4630
16900TIP3    H172115   0.414   1.110   2.998 -0.3445  1.4103 -0.8333
16900TIP3    H272116   0.326   1.112   2.875 -0.5132 -1.6735 -0.8105
16901TIP3   OH272117   0.724   5.277   2.416  0.0731 -0.3397 -0.7716
16901TIP3    H172118   0.808   5.256   2.458 -0.0723  0.6907  0.0550
16901TIP3    H272119   0.678   5.193   2.412  1.5061 -1.0837 -2.0764
16902TIP3   OH272120   0.756   4.389   5.536  0.1332  0.8538  0.1894
16902TIP3    H172121   0.849   4.392   5.513  0.1367  2.5743  0.3757
16902TIP3    H272122   0.722   4.313   5.488  1.9869 -0.8661  1.5243
16903TIP3   OH272123   4.097   4.670   4.173 -0.3325  0.2479 -0.5083
16903TIP3    H172124   4.017   4.649   4.223  0.6755  1.0864  1.5064
16903TIP3    H272125   4.067   4.726   4.102 -1.2966  2.3878  1.5060
16904TIP3   OH272126   5.998   6.434   3.128  0.2755  0.1113  0.1036
16904TIP3    H172127   6.035   6.482   3.203  0.5817  1.3497 -0.8180
16904TIP3    H272128   6.021   6.487   3.052 -2.8246  0.6060 -0.5759
16905TIP3   OH272129   2.910   1.187  14.245 -0.0714 -0.3173  0.1084
16905TIP3    H172130   2.888   1.139  14.165 -2.5301  0.8828  0.0260
16905TIP3    H272131   2.849   1.153  14.311  0.6915  0.0240  1.0056
16906TIP3   OH272132   6.382   0.029   5.970 -0.0554 -0.4358 -0.4167
16906TIP3    H172133   6.328   0.010   6.047  1.5108 -0.0113  0.8032
16906TIP3    H272134   6.354   0.116   5.942  0.7103  0.2131  0.8285
16907TIP3   OH272135   1.063   5.406  16.393  0.0865  0.5580  0.3876
16907TIP3    H172136   1.134   5.456  16.351  0.1433  0.3724  0.2642
16907TIP3    H272137   1.073   5.426  16.486  0.5492  0.2176  0.4124
16908TIP3   OH272138   5.066   3.998  15.641 -0.1333  0.3253 -0.2493
16908TIP3    H172139   5.039   4.057  15.570 -1.1763 -0.0163 -0.1452
16908TIP3    H272140   4.989   3.992  15.698  0.8302  0.9101  1.1353
16909TIP3   OH272141   5.548   4.898  13.254  0.4700  0.4264  0.5449
16909TIP3    H172142   5.495   4.875  13.330  0.1055 -0.1154  0.1293
16909TIP3    H272143   5.571   4.990  13.268  2.8272 -0.4373  2.7349
16910TIP3   OH272144   1.470   3.602   0.364 -0.1726  0.6715  0.1657
16910TIP3    H172145   1.413   3.601   0.287 -0.0466 -1.1481  0.0657
16910TIP3    H272146   1.417   3.563   0.433 -0.3903  2.5796  1.0921
16911TIP3   OH272147   1.413   3.350   3.764 -0.0319 -0.0517 -0.7560
16911TIP3    H172148   1.329   3.355   3.719 -0.8000  0.5806  0.7348
16911TIP3    H272149   1.442   3.441   3.771  0.0223 -0.1429  0.1513
16912TIP3   OH272150   2.969   6.219   3.392 -0.8373  0.4165  0.2466
16912TIP3    H172151   2.889   6.177   3.425 -1.1163  1.1173  0.4676
16912TIP3    H272152   3.022   6.146   3.358 -1.5706 -0.0469  0.0900
16913TIP3   OH272153   2.517   0.798  11.108  0.1083 -0.1294 -0.1581
16913TIP3    H172154   2.539   0.838  11.192  1.2553  1.0506 -1.0086
16913TIP3    H272155   2.589   0.736  11.093  0.2068  0.0867 -0.5566
16914TIP3   OH272156   3.583   5.842   5.480 -0.3227 -0.0258 -0.2920
16914TIP3    H172157   3.632   5.803   5.552  0.7114  0.1173 -0.9001
16914TIP3    H272158   3.617   5.931   5.473  0.4610 -0.4143 -1.7174
16915TIP3   OH272159   2.784   1.760  10.805  0.3285  0.0585 -0.2746
16915TIP3    H172160   2.837   1.839  10.810  0.0032  0.0917  3.2804
16915TIP3    H272161   2.839   1.691  10.844 -0.9800 -0.5866  0.4701
16916TIP3   OH272162   6.074   5.425   2.882  0.7496  0.5583 -0.4253
16916TIP3    H172163   5.999   5.409   2.825 -0.7809 -0.2393  1.7601
16916TIP3    H272164   6.039   5.418   2.971  2.7448  3.3164  0.6537
16917TIP3   OH272165   4.869   5.659  11.374 -0.5435 -0.2511  0.2940
16917TIP3    H172166   4.834   5.746  11.354 -1.0629 -0.5034  0.1270
16917TIP3    H272167   4.830   5.636  11.458 -0.4436 -0.3477  0.3147
16918TIP3   OH272168   1.657   4.599   2.922 -0.4996 -0.3290 -0.0804
16918TIP3    H172169   1.636   4.508   2.942 -0.3161  0.3737  3.4922
16918TIP3    H272170   1.740   4.615   2.966 -0.3358  1.4940 -0.9926
16919TIP3   OH272171   1.383   6.518  12.758 -0.2320 -0.1361 -0.3738
16919TIP3    H172172   1.385   6.456  12.685  0.5748  1.7561 -2.0285
16919TIP3    H272173   1.327   6.589  12.727  0.4243  0.8712  0.7027
16920TIP3   OH272174   5.382   6.200  13.997 -0.4654  0.1861 -0.0336
16920TIP3    H172175   5.404   6.293  13.996 -2.7166  0.8493  3.3911
16920TIP3    H272176   5.451   6.159  13.945 -0.2451  3.8869 -2.9002
16921TIP3   OH272177   6.751   6.105  13.125 -0.3992  0.7376 -0.0346
16921TIP3    H172178   6.735   6.012  13.107  1.0668 -0.0525  2.4487
16921TIP3    H272179   6.682   6.131  13.186  0.2583  0.7423  0.7270
16922TIP3   OH272180   6.653   3.595  13.251 -0.8031  0.4501  0.1119
16922TIP3    H172181   6.596   3.546  13.192 -0.5224 -0.8025  0.8791
16922TIP3    H272182   6.693   3.529  13.307  0.6738  1.4103  0.2260
16923TIP3   OH272183   1.090   1.974  14.244 -0.4466  0.0281 -0.1293
16923TIP3    H172184   1.078   1.930  14.328  3.1001  0.7807  0.8331
16923TIP3    H272185   1.063   2.064  14.260 -1.6814 -0.2769 -0.3938
16924TIP3   OH272186   1.131   6.703   2.176  0.0167 -0.2763  0.2815
16924TIP3    H172187   1.172   6.772   2.228 -1.2357  1.0056 -0.4030
16924TIP3    H272188   1.194   6.685   2.107  0.0149  0.7428  0.0047
16925TIP3   OH272189   4.336   5.337  15.375 -0.0708  0.3030  0.4546
16925TIP3    H172190   4.255   5.363  15.331  0.0771 -0.5562 -0.3272
16925TIP3    H272191   4.376   5.420  15.402 -1.0146  0.7479  0.5052
16926TIP3   OH272192   3.674   6.092  16.546 -0.0810  0.1780  0.8070
16926TIP3    H172193   3.735   6.019  16.530 -0.9621 -0.3108 -0.3807
16926TIP3    H272194   3.698   6.157  16.480 -0.7685  0.0196  0.3913
16927TIP3   OH272195   1.107   1.943  15.331  0.1711 -0.2258  0.0842
16927TIP3    H172196   1.170   1.935  15.403  1.3111  3.0708 -0.4626
16927TIP3    H272197   1.024   1.964  15.374  0.8608  1.7778  0.5073
16928TIP3   OH272198   5.851   4.317   5.877  0.0593 -0.1277 -0.3780
16928TIP3    H172199   5.888   4.392   5.830 -1.3417  0.0744 -1.2174
16928TIP3    H272200   5.925   4.260   5.895  0.7172  0.0289 -2.4468
16929TIP3   OH272201   0.830   6.201  16.706 -0.0053 -0.1455  0.3127
16929TIP3    H172202   0.783   6.118  16.720 -1.1835  0.4817  0.1363
16929TIP3    H272203   0.773   6.267  16.746  0.5384  0.6786 -0.2804
16930TIP3   OH272204   4.078   0.517  12.294  0.1002 -0.0037  0.2732
16930TIP3    H172205   3.989   0.534  12.323  0.3958  0.6306  0.8310
16930TIP3    H272206   4.127   0.595  12.320  0.6128  0.0855 -0.9130
16931TIP3   OH272207   1.799   1.247  16.450 -0.2600 -0.1689  0.7356
16931TIP3    H172208   1.735   1.303  16.406  1.4165  0.6028 -0.8225
16931TIP3    H272209   1.820   1.180  16.385  2.3565  1.0663  0.2154
16932TIP3   OH272210   4.277   3.734   4.240  0.3146 -0.1403 -0.1964
16932TIP3    H172211   4.240   3.814   4.204  1.2088  0.1137 -0.5508
16932TIP3    H272212   4.221   3.714   4.315 -0.7598  0.0408 -0.9345
16933TIP3   OH272213   1.112   5.796   3.250 -0.3872  0.1467  0.6759
16933TIP3    H172214   1.027   5.801   3.207  0.2421  0.4545 -0.5802
16933TIP3    H272215   1.132   5.703   3.254  0.0906  0.1697 -0.8396
16934TIP3   OH272216   1.093   1.130  10.919 -0.3007  0.1003 -0.2654
16934TIP3    H172217   1.126   1.220  10.919 -3.1082  1.1997  1.7551
16934TIP3    H272218   1.018   1.132  10.979  1.5424 -4.3437  2.3953
16935TIP3   OH272219   6.384   2.833   2.904 -0.9046  0.7282  0.3619
16935TIP3    H172220   6.304   2.838   2.956 -1.6117  1.4530 -0.7849
16935TIP3    H272221   6.426   2.918   2.916 -1.8012  1.4362 -1.4072
16936TIP3   OH272222   0.983   1.962   1.004 -0.1974 -0.0376  0.0101
16936TIP3    H172223   0.936   2.030   1.052 -0.6958  0.3102 -0.9656
16936TIP3    H272224   1.059   2.007   0.967 -0.5651  0.0081 -0.6950
16937TIP3   OH272225   6.666   4.937   5.160 -0.1248 -0.3653 -0.1880
16937TIP3    H172226   6.646   4.880   5.234  2.1598  0.4890  1.1194
16937TIP3    H272227   6.635   5.023   5.188 -0.1359 -0.2251 -0.6303
16938TIP3   OH272228   6.697   5.761  11.960  0.3358  0.4945  0.6205
16938TIP3    H172229   6.705   5.855  11.940  1.4134  0.6017  1.4951
16938TIP3    H272230   6.707   5.718  11.875 -0.9581  1.1911  0.0854
16939TIP3   OH272231   3.948   1.781   5.175 -0.1549  0.1352  0.7097
16939TIP3    H172232   3.945   1.685   5.178  0.2576  0.1200  0.6236
16939TIP3    H272233   3.925   1.808   5.264  1.2053 -0.0795  1.1326
16940TIP3   OH272234   5.535   1.788  16.372  0.1504 -0.0905 -0.1914
16940TIP3    H172235   5.553   1.832  16.289  0.4124 -3.4975 -2.0465
16940TIP3    H272236   5.441   1.796  16.384  0.2039  0.9703 -0.4808
16941TIP3   OH272237   6.585   1.922  13.775 -0.0745  0.0813  0.2899
16941TIP3    H172238   6.669   1.967  13.776 -0.7205  1.2851  1.4101
16941TIP3    H272239   6.567   1.905  13.683  0.5851  1.3534 -0.0739
16942TIP3   OH272240   5.883   2.379   3.466  0.6497 -0.0678  0.1973
16942TIP3    H172241   5.797   2.360   3.502 -0.1066  0.1363 -1.4514
16942TIP3    H272242   5.879   2.472   3.441  1.7718  0.2768  1.2826
16943TIP3   OH272243   3.508   6.431   2.548 -0.0521  0.2373 -0.4693
16943TIP3    H172244   3.518   6.375   2.625 -1.4352 -1.4361 -1.4925
16943TIP3    H272245   3.415   6.428   2.528  0.3173  0.5754 -2.2846
16944TIP3   OH272246   3.998   1.886   0.204  0.4315  0.5243 -0.8548
16944TIP3    H172247   3.991   1.911   0.296 -1.5264 -1.0454 -0.5470
16944TIP3    H272248   4.092   1.880   0.188  0.8804  3.2849  0.3309
16945TIP3   OH272249   0.265   2.361  11.713 -0.7749  0.2028  0.0902
16945TIP3    H172250   0.209   2.421  11.763  0.1219  1.3504 -0.2615
16945TIP3    H272251   0.248   2.384  11.622  0.2734  0.5680 -0.0150
16946TIP3   OH272252   1.063   5.917   2.113  1.0394 -0.1427  0.0918
16946TIP3    H172253   0.983   5.867   2.130  1.3912 -0.3522  1.1942
16946TIP3    H272254   1.052   5.952   2.025 -0.4744  0.2136  0.4188
16947TIP3   OH272255   1.073   2.085   3.544  0.4866  0.3344 -0.6860
16947TIP3    H172256   1.121   2.157   3.502 -0.2316  0.4867 -1.2703
16947TIP3    H272257   1.028   2.041   3.471  1.0382 -0.7983 -0.3502
16948TIP3   OH272258   2.455   4.293   6.661  0.0440 -1.0055  0.2772
16948TIP3    H172259   2.404   4.229   6.710 -1.1333 -0.3196 -0.0195
16948TIP3    H272260   2.545   4.262   6.666 -0.2324 -1.5950  1.8451
16949TIP3   OH272261   4.799   5.576   2.529  0.3726 -0.2479  0.3841
16949TIP3    H172262   4.717   5.565   2.481  0.8341 -0.5818 -0.3320
16949TIP3    H272263   4.823   5.668   2.517  1.6549 -0.8408 -1.9317
16950TIP3   OH272264   1.923   0.710  13.595  0.0450 -0.0721 -0.2311
16950TIP3    H172265   1.948   0.662  13.674  1.6040 -0.1866 -0.7739
16950TIP3    H272266   2.003   0.715  13.544  0.0875  3.6264  0.0593
16951TIP3   OH272267   1.368   0.244   0.760  0.0849  0.2106  0.1853
16951TIP3    H172268   1.284   0.291   0.767  0.3529  0.5991  0.8640
16951TIP3    H272269   1.345   0.153   0.777 -0.4319  0.0969 -1.0808
16952TIP3   OH272270   6.517   1.665  16.003 -0.0964  0.1178  0.7049
16952TIP3    H172271   6.428   1.633  16.017 -0.2751  1.1795  2.1047
16952TIP3    H272272   6.573   1.597  16.039 -0.3158 -0.9298 -0.9291
16953TIP3   OH272273   3.924   6.271   3.849 -0.1911  0.2162 -0.1041
16953TIP3    H172274   3.963   6.355   3.873 -2.4675  0.9730  1.0981
16953TIP3    H272275   3.996   6.221   3.812  1.7701  1.7944  1.4581
16954TIP3   OH272276   2.540   4.131  13.695  0.1641  0.9036 -0.2062
16954TIP3    H172277   2.625   4.149  13.656  0.2066 -0.0142 -0.5404
16954TIP3    H272278   2.539   4.037  13.709 -0.5001  1.0087  0.4992
16955TIP3   OH272279   4.298   5.387  12.262  0.6393 -0.5544  0.0556
16955TIP3    H172280   4.293   5.439  12.342  0.5078 -0.5057  0.0167
16955TIP3    H272281   4.373   5.329  12.275  0.2690 -0.9436  0.4458
16956TIP3   OH272282   2.427   3.303  13.857 -0.5397 -0.3221  0.1896
16956TIP3    H172283   2.421   3.317  13.763 -0.0305 -0.3100  0.1574
16956TIP3    H272284   2.503   3.245  13.868 -0.6747 -0.4275  0.5796
16957TIP3   OH272285   5.343   5.889   5.919  0.4110 -0.2731  0.3957
16957TIP3    H172286   5.315   5.809   5.965  0.2320 -0.0199  0.7314
16957TIP3    H272287   5.291   5.958   5.959  0.0371 -0.0912 -0.3962
16958TIP3   OH272288   0.952   2.692  11.106 -0.4896  0.3575 -0.0035
16958TIP3    H172289   0.959   2.734  11.020  0.8553 -0.7636 -0.4569
16958TIP3    H272290   1.013   2.619  11.102 -1.1323 -0.2821  1.5821
16959TIP3   OH272291   0.861   0.838  11.296  0.1372  0.4349 -0.3375
16959TIP3    H172292   0.798   0.910  11.295 -1.1215 -0.6571 -1.7405
16959TIP3    H272293   0.915   0.853  11.219  1.5695  1.3074  0.8055
16960TIP3   OH272294   0.015   4.832  15.598  0.4131 -0.4891 -0.3056
16960TIP3    H172295   0.056   4.808  15.515 -1.8620 -3.0920 -0.7676
16960TIP3    H272296  -0.048   4.900  15.575  0.0315 -0.9599 -0.6551
16961TIP3   OH272297   6.046   5.552   5.352 -0.3569 -0.2990  0.5926
16961TIP3    H172298   5.955   5.573   5.372 -0.7548 -2.1251  0.7797
16961TIP3    H272299   6.066   5.476   5.406  1.0320 -0.4167 -0.0583
16962TIP3   OH272300   3.020   0.851   4.606  0.1699 -0.3115  0.7198
16962TIP3    H172301   2.928   0.876   4.614  0.6040  1.0749  1.3644
16962TIP3    H272302   3.020   0.782   4.539 -1.2662  0.0336  0.3554
16963TIP3   OH272303   3.319   0.063  13.812  0.0647 -0.2750 -0.1401
16963TIP3    H172304   3.308   0.111  13.730  0.6965  0.7816  0.3891
16963TIP3    H272305   3.234   0.021  13.827 -1.3619  2.7344  0.7033
16964TIP3   OH272306   5.349   3.063  15.323 -0.1095  0.1892  0.3653
16964TIP3    H172307   5.369   3.155  15.308 -0.4735  0.1383 -0.4439
16964TIP3    H272308   5.319   3.030  15.239 -0.9963 -0.4092  0.9047
16965TIP3   OH272309   1.752   2.423  14.163 -0.2547  0.6289 -0.0333
16965TIP3    H172310   1.768   2.378  14.080 -2.6929  0.7293 -0.5832
16965TIP3    H272311   1.806   2.502  14.158 -0.1300  0.4752 -1.3885
16966TIP3   OH272312   0.334   5.467  14.028 -0.4214 -0.2798 -0.0892
16966TIP3    H172313   0.268   5.486  14.095 -0.7911  2.0593 -1.0688
16966TIP3    H272314   0.414   5.509  14.060 -1.2156  3.0594 -2.2197
16967TIP3   OH272315   1.659   2.975  11.491 -0.1078  0.3363 -0.4399
16967TIP3    H172316   1.612   3.056  11.512  2.5573  1.4985  1.2347
16967TIP3    H272317   1.735   3.004  11.440  0.8869 -1.0856  0.2141
16968TIP3   OH272318   0.936   1.517   5.434 -0.2119  0.0181  0.1589
16968TIP3    H172319   0.952   1.605   5.400  0.3944  0.2319  0.9709
16968TIP3    H272320   0.951   1.459   5.359 -0.2208  0.5772 -0.2778
16969TIP3   OH272321   3.613   3.107  14.566 -0.2170 -0.0764 -0.5910
16969TIP3    H172322   3.577   3.181  14.518  0.9652  1.2383  0.5147
16969TIP3    H272323   3.540   3.073  14.617 -0.3986  1.2534  0.0387
16970TIP3   OH272324   2.094   0.235   3.485 -0.0834  0.6450  0.3815
16970TIP3    H172325   2.189   0.225   3.478 -0.4090 -2.1817 -0.7412
16970TIP3    H272326   2.061   0.209   3.399 -1.9663  0.1488  1.2338
16971TIP3   OH272327   1.220   0.072   4.269  0.7358 -0.3074  0.8206
16971TIP3    H172328   1.314   0.080   4.257  0.7619 -1.0048  0.5217
16971TIP3    H272329   1.199   0.131   4.341  1.1036  1.3691 -0.4172
16972TIP3   OH272330   5.940   0.783   5.135  0.0050  0.0431  0.1361
16972TIP3    H172331   5.873   0.768   5.069 -0.6745  1.2871  0.5421
16972TIP3    H272332   6.023   0.783   5.086 -0.5068  1.1449 -0.7328
16973TIP3   OH272333   5.006   4.706   2.289 -0.6151 -0.2617 -0.0406
16973TIP3    H172334   4.934   4.666   2.338  0.4633 -0.1607  1.6720
16973TIP3    H272335   5.073   4.639   2.286 -0.0577  0.2907  0.0054
16974TIP3   OH272336   2.333   0.800  15.557 -0.2203 -0.2767  0.3698
16974TIP3    H172337   2.249   0.845  15.561 -0.9580 -1.5679 -0.1072
16974TIP3    H272338   2.381   0.832  15.634 -1.5746 -0.3443  1.2683
16975TIP3   OH272339   4.435   5.935   4.892 -0.0145 -0.2669  0.6383
16975TIP3    H172340   4.408   5.952   4.982  0.4063  0.4345  0.6325
16975TIP3    H272341   4.530   5.921   4.897  0.1360  0.5587  0.2000
16976TIP3   OH272342   1.509   1.558   2.301 -0.0116 -0.0223  0.5084
16976TIP3    H172343   1.603   1.572   2.298 -0.1424  1.0756  1.3033
16976TIP3    H272344   1.476   1.623   2.364 -1.3905  0.1547 -0.3633
16977TIP3   OH272345   1.042   1.795   2.987 -0.4473  0.0163  0.2427
16977TIP3    H172346   1.079   1.880   3.009 -1.1948  0.4982 -0.3613
16977TIP3    H272347   0.993   1.769   3.065 -0.2952  0.1752  0.3907
16978TIP3   OH272348   5.025   3.772   2.787 -0.4825  0.1529 -0.3469
16978TIP3    H172349   4.982   3.695   2.824  0.7909  0.0398  0.9695
16978TIP3    H272350   5.068   3.814   2.862 -1.1267  2.1329 -1.0481
16979TIP3   OH272351   6.488   6.115   6.471 -0.1977 -0.3865  0.1620
16979TIP3    H172352   6.491   6.051   6.400  1.6414 -0.0943 -0.0488
16979TIP3    H272353   6.510   6.065   6.549 -0.6704 -0.3887  0.2967
16980TIP3   OH272354   2.889   2.709  13.023 -0.1986  0.3592 -0.2912
16980TIP3    H172355   2.828   2.635  13.030  1.1476 -0.9016 -1.4673
16980TIP3    H272356   2.970   2.676  13.061 -0.0067  1.7676  0.5591
16981TIP3   OH272357   2.469   6.128   2.025 -0.1390  0.2320 -0.1631
16981TIP3    H172358   2.475   6.170   1.939  0.1546  1.8950  0.6461
16981TIP3    H272359   2.539   6.169   2.076 -2.0166  1.2169  1.6843
16982TIP3   OH272360   1.055   2.981   3.557  0.0787 -0.0717  0.0089
16982TIP3    H172361   1.007   2.934   3.489  1.8004 -0.5176 -0.9367
16982TIP3    H272362   1.129   3.020   3.511  1.9585 -1.3892  1.8263
16983TIP3   OH272363   6.423   2.141  13.013  0.0672  0.1932 -0.3750
16983TIP3    H172364   6.441   2.235  13.013  1.0116  0.0597  1.7817
16983TIP3    H272365   6.462   2.109  13.095 -0.1910 -2.0871 -1.0905
16984TIP3   OH272366   4.726   2.248  15.856 -0.0078 -0.2123  0.1658
16984TIP3    H172367   4.795   2.273  15.794 -1.5794  1.3250 -1.0358
16984TIP3    H272368   4.748   2.159  15.883  1.8652 -0.1155 -1.0069
16985TIP3   OH272369   3.456   2.423  14.502 -0.3011  0.2643  0.2324
16985TIP3    H172370   3.405   2.343  14.512 -0.0274 -0.1237 -1.3696
16985TIP3    H272371   3.410   2.473  14.435 -0.0974  1.1466  0.7411
16986TIP3   OH272372   4.288   1.617   6.175  0.2600  0.1661 -0.5513
16986TIP3    H172373   4.213   1.558   6.172 -0.1238  0.6667 -1.0714
16986TIP3    H272374   4.336   1.600   6.095  1.6218 -1.3163  0.5566
16987TIP3   OH272375   3.515   5.866  10.263  0.1745  0.0890 -0.2309
16987TIP3    H172376   3.591   5.865  10.205 -0.8032  3.2948 -1.6250
16987TIP3    H272377   3.484   5.775  10.263  2.6061 -0.7798 -1.4649
16988TIP3   OH272378   0.037   2.446   0.042 -0.2190 -0.5776 -0.1425
16988TIP3    H172379   0.062   2.355   0.056  2.6225 -0.1446 -1.9034
16988TIP3    H272380  -0.040   2.442  -0.014 -0.9147 -1.8995  0.8719
16989TIP3   OH272381   6.519   1.691  11.951 -0.3462  0.3327  0.4335
16989TIP3    H172382   6.498   1.779  11.984 -0.1458  0.4336  0.2911
16989TIP3    H272383   6.614   1.683  11.963  0.0024  0.9957 -1.5998
16990TIP3   OH272384   2.187   1.264  16.973  0.2275  0.5446  0.0206
16990TIP3    H172385   2.202   1.244  16.880 -0.7757 -1.4313  0.2557
16990TIP3    H272386   2.232   1.347  16.987  2.8259 -0.4923 -1.5821
16991TIP3   OH272387   1.781   6.691  13.411 -0.1987 -0.2430 -1.2082
16991TIP3    H172388   1.797   6.647  13.328 -1.6984  0.9780 -2.1681
16991TIP3    H272389   1.697   6.656  13.441  0.7258 -1.2923  0.2193
16992TIP3   OH272390   0.009   3.534   2.869 -0.4405  0.0266 -0.5673
16992TIP3    H172391  -0.076   3.542   2.913 -0.5594  1.1001 -0.9908
16992TIP3    H272392   0.023   3.619   2.827  2.6185  1.2104  2.6086
16993TIP3   OH272393   3.301   0.964  16.175 -0.6470  0.1329  0.0129
16993TIP3    H172394   3.349   0.958  16.093 -0.0522 -0.8014  0.4187
16993TIP3    H272395   3.317   0.880  16.219 -0.9461  0.6178  1.0779
16994TIP3   OH272396   4.726   0.796   5.028 -0.2713 -0.5199  0.6734
16994TIP3    H172397   4.671   0.874   5.040 -1.6048 -1.4289  0.5166
16994TIP3    H272398   4.772   0.812   4.946 -0.9816 -0.1529  0.3407
16995TIP3   OH272399   1.816   1.737   4.463  0.4245 -0.0490 -0.0238
16995TIP3    H172400   1.739   1.757   4.517 -0.4944 -0.3689 -1.1905
16995TIP3    H272401   1.879   1.700   4.524 -0.7233 -0.7097  0.7766
16996TIP3   OH272402   3.091   0.892   0.523 -0.2077 -0.2559 -0.3158
16996TIP3    H172403   3.158   0.958   0.508 -0.9271  0.1196 -1.9585
16996TIP3    H272404   3.128   0.811   0.486 -0.1195 -0.3464 -0.0309
16997TIP3   OH272405   4.408   1.689   4.838  0.6103  0.3373 -0.0197
16997TIP3    H172406   4.474   1.634   4.880 -0.0595  1.0226  1.9657
16997TIP3    H272407   4.416   1.668   4.745  1.5287 -1.8529  0.5105
16998TIP3   OH272408   1.399   1.361   4.301 -0.4402 -0.1550 -0.2310
16998TIP3    H172409   1.348   1.421   4.357 -0.2083  0.8405 -1.0647
16998TIP3    H272410   1.384   1.393   4.212  2.1644  0.5607 -0.4517
16999TIP3   OH272411   5.039   3.082  12.961  0.0121 -0.3635  0.2359
16999TIP3    H172412   4.949   3.112  12.954 -0.5006 -1.7256  0.8110
16999TIP3    H272413   5.040   3.025  13.038  1.0525 -1.3952 -0.5225
17000TIP3   OH272414   6.255   1.984   5.459 -0.3425  0.0034 -0.0827
17000TIP3    H172415   6.309   2.039   5.516  0.6081 -0.3371 -0.6428
17000TIP3    H272416   6.200   2.045   5.411 -1.2168  0.2938  1.2502
17001TIP3   OH272417   4.920   1.875  11.301 -0.6531 -0.2562 -0.6871
17001TIP3    H172418   4.862   1.922  11.242 -1.3814 -0.5609 -0.2249
17001TIP3    H272419   4.971   1.817  11.245 -1.4488 -0.6534 -0.9951
17002TIP3   OH272420   5.805   3.068   3.676  0.2340 -0.2712  0.8070
17002TIP3    H172421   5.846   2.990   3.639 -0.7140  0.2470 -1.4375
17002TIP3    H272422   5.875   3.133   3.681  0.0528  0.1876 -1.7441
17003TIP3   OH272423   0.727   0.798  15.368 -0.5901 -0.0136  0.0018
17003TIP3    H172424   0.749   0.813  15.460  0.4716  0.0702 -0.2665
17003TIP3    H272425   0.688   0.710  15.367  0.6002 -0.5585  0.3408
17004TIP3   OH272426   1.611   1.602   5.258 -0.2140  0.3144 -0.1807
17004TIP3    H172427   1.643   1.681   5.303  0.8065 -0.3671  0.3067
17004TIP3    H272428   1.688   1.545   5.253 -1.2378 -1.1540  0.5520
17005TIP3   OH272429   4.960   1.956  12.644  0.4391 -0.0263  0.4586
17005TIP3    H172430   4.963   1.978  12.737  0.6476  0.7107  0.2808
17005TIP3    H272431   5.042   1.910  12.627  0.0219 -0.9143  0.8257
17006TIP3   OH272432   3.436   4.104  12.280 -0.4897  0.5512  0.0045
17006TIP3    H172433   3.447   4.012  12.257 -3.0710  0.5448 -1.3471
17006TIP3    H272434   3.397   4.102  12.367 -0.1607  0.4003  0.1511
17007TIP3   OH272435   5.883   5.055  16.947 -0.6041  0.1875 -0.2668
17007TIP3    H172436   5.936   5.059  17.027 -1.5183 -1.7017  0.4621
17007TIP3    H272437   5.930   5.110  16.885  1.3718 -0.1654  0.8525
17008TIP3   OH272438   6.131   0.486   3.469 -0.0296 -0.2528 -0.2280
17008TIP3    H172439   6.113   0.392   3.466  0.2610 -0.3168  0.0148
17008TIP3    H272440   6.054   0.523   3.511  0.3407 -0.5142  0.6987
17009TIP3   OH272441   2.559   3.942  16.280 -0.3297  0.5882  0.6125
17009TIP3    H172442   2.610   4.018  16.308 -0.3057  1.1332 -0.8525
17009TIP3    H272443   2.618   3.894  16.221 -1.0376  0.5365 -0.0725
17010TIP3   OH272444   4.336   4.080   0.693  0.5016  0.0751  1.1893
17010TIP3    H172445   4.337   4.175   0.678 -1.8272 -0.0888 -0.2490
17010TIP3    H272446   4.270   4.067   0.761  1.4964 -0.4592  2.0790
17011TIP3   OH272447   2.468   6.017  12.836 -0.0091 -0.7294  0.2666
17011TIP3    H172448   2.525   5.971  12.775  0.1740  0.1157 -0.2078
17011TIP3    H272449   2.381   6.013  12.796 -0.2674 -1.9080  0.9296
17012TIP3   OH272450   5.530   6.097   3.652  0.3788  0.2711  0.1077
17012TIP3    H172451   5.543   6.143   3.735 -2.0405  0.9634  0.1473
17012TIP3    H272452   5.495   6.011   3.678  0.4150  0.1757 -0.1598
17013TIP3   OH272453   2.471   6.622   0.801  0.5260 -0.1988  0.4340
17013TIP3    H172454   2.526   6.659   0.732 -0.4103 -0.3244 -0.3854
17013TIP3    H272455   2.388   6.669   0.794  0.4192 -0.2223  1.4660
17014TIP3   OH272456   2.043   5.032   1.575 -0.4790  0.1558 -0.6724
17014TIP3    H172457   2.012   5.103   1.520 -2.4970  0.4345  0.7739
17014TIP3    H272458   2.038   4.954   1.519 -1.6072  0.5798 -1.1778
17015TIP3   OH272459   0.228   5.911   0.015  0.1996  0.4300  0.3481
17015TIP3    H172460   0.157   5.962   0.054 -0.6848 -1.5708  1.4186
17015TIP3    H272461   0.285   5.891   0.089 -0.7962 -2.2718  0.4204
17016TIP3   OH272462   3.624   3.035  12.879  0.3817  0.5762  0.5293
17016TIP3    H172463   3.557   2.967  12.887  1.6219 -0.4677  2.2782
17016TIP3    H272464   3.605   3.097  12.949  1.6429 -0.0931  1.4837
17017TIP3   OH272465   5.764   1.642   5.817 -0.1780 -0.3253 -0.4062
17017TIP3    H172466   5.688   1.590   5.792 -1.6323  1.1783  0.7388
17017TIP3    H272467   5.796   1.601   5.897  0.4508 -1.1783 -1.0874
17018TIP3   OH272468   2.800   4.586  11.732 -0.2296  0.9372  0.1674
17018TIP3    H172469   2.882   4.578  11.683 -1.3746 -0.3951 -1.5922
17018TIP3    H272470   2.773   4.677  11.719  0.3522  1.0530 -0.2451
17019TIP3   OH272471   6.443   2.329   3.030 -0.1069  0.1120  0.1862
17019TIP3    H172472   6.400   2.270   2.967  0.8550  0.6600 -1.0001
17019TIP3    H272473   6.410   2.416   3.007 -0.9415  0.1384  1.4487
17020TIP3   OH272474   2.659   5.941  11.462 -0.1177 -0.2119  0.0133
17020TIP3    H172475   2.698   5.856  11.482  2.0925  0.4925 -1.1303
17020TIP3    H272476   2.668   5.950  11.368 -1.3774  0.8069 -0.0235
17021TIP3   OH272477   3.062   6.454   3.786 -0.0894  0.2219  0.7015
17021TIP3    H172478   3.111   6.535   3.775  0.7771 -0.4096 -0.2084
17021TIP3    H272479   3.119   6.399   3.839 -0.6683  0.2024  1.3040
17022TIP3   OH272480   2.679   4.374  14.075 -0.5144  0.3922 -0.2464
17022TIP3    H172481   2.741   4.420  14.019 -1.5550  4.6075  1.8372
17022TIP3    H272482   2.593   4.407  14.049 -1.1960  0.7229  2.2200
17023TIP3   OH272483   4.224   1.618   4.164  0.8673  0.5281 -0.6484
17023TIP3    H172484   4.257   1.589   4.079  0.8155 -1.1150 -0.1210
17023TIP3    H272485   4.293   1.597   4.226  0.6726  1.2017 -0.1959
17024TIP3   OH272486   2.772   3.160   6.484 -0.1599 -0.0292  0.3029
17024TIP3    H172487   2.705   3.228   6.481 -0.7615 -0.6442 -0.4743
17024TIP3    H272488   2.851   3.205   6.514 -0.7664  0.8303  0.6133
17025TIP3   OH272489   1.715   2.715   4.843 -0.0492  0.5450  0.1373
17025TIP3    H172490   1.698   2.802   4.807  1.0728  0.0197 -1.7431
17025TIP3    H272491   1.653   2.706   4.916  0.1658  3.0949  0.6651
17026TIP3   OH272492   5.147   5.270   5.125 -0.1475 -0.7030 -0.1680
17026TIP3    H172493   5.159   5.175   5.118  0.0527 -0.5802 -1.4933
17026TIP3    H272494   5.138   5.285   5.219  1.3192 -1.8699  0.1911
17027TIP3   OH272495   1.047   4.948   4.695  0.5925  0.1647 -0.1482
17027TIP3    H172496   1.055   4.906   4.781  1.6498 -1.7963 -1.1828
17027TIP3    H272497   1.041   5.041   4.715  0.1058 -0.3160  2.0920
17028TIP3   OH272498   1.266   4.780   1.698 -0.2108  0.2569 -0.3330
17028TIP3    H172499   1.336   4.731   1.655  0.0591 -0.0574  0.4433
17028TIP3    H272500   1.309   4.859   1.731  0.1145 -0.6221  1.4207
17029TIP3   OH272501   5.176   4.521   1.174 -0.5814  0.2156  0.0100
17029TIP3    H172502   5.183   4.611   1.141 -0.7021  0.0114 -0.5830
17029TIP3    H272503   5.082   4.505   1.181 -0.5726  0.9793  2.4888
17030TIP3   OH272504   6.637   6.551  13.614  0.5866  0.0522 -0.5937
17030TIP3    H172505   6.613   6.588  13.699 -0.2888  1.0162 -1.2454
17030TIP3    H272506   6.642   6.457  13.629 -0.0207  0.1797  0.4184
17031TIP3   OH272507   6.590   2.362   4.468  0.2754 -0.1115 -0.5040
17031TIP3    H172508   6.580   2.269   4.448  1.2680 -0.7021  1.5895
17031TIP3    H272509   6.521   2.382   4.531  1.7155 -0.1317  1.1359
17032TIP3   OH272510   5.288   0.225  11.541 -0.8848 -0.1833 -0.0427
17032TIP3    H172511   5.365   0.175  11.568 -0.4637  0.3362 -0.2930
17032TIP3    H272512   5.323   0.301  11.494 -1.5472  0.0211 -0.2108
17033TIP3   OH272513   2.683   4.759   3.215 -0.4777  0.1020  0.4989
17033TIP3    H172514   2.664   4.842   3.259 -0.9665  1.3824 -2.0228
17033TIP3    H272515   2.760   4.777   3.162 -1.1982 -0.7476 -0.8599
17034TIP3   OH272516   3.495   6.566  11.571 -0.3232 -0.2133  0.3957
17034TIP3    H172517   3.520   6.551  11.479 -0.4194  0.7835  0.2014
17034TIP3    H272518   3.440   6.643  11.568 -0.5411 -0.3366  1.2726
17035TIP3   OH272519   5.290   6.221   1.063  0.0121 -0.2551 -0.0612
17035TIP3    H172520   5.313   6.206   0.971  2.5567 -0.5499  0.5935
17035TIP3    H272521   5.196   6.201   1.067  0.0254 -1.0108 -2.4140
17036TIP3   OH272522   3.934   2.166   4.981 -0.3091  0.1883 -0.0022
17036TIP3    H172523   3.910   2.087   4.932 -0.9005  0.5761 -0.3381
17036TIP3    H272524   3.973   2.224   4.915  0.9935 -0.1811  0.4163
17037TIP3   OH272525   2.368   3.780   3.224 -0.1173  0.1361  0.4548
17037TIP3    H172526   2.399   3.868   3.201  0.3667 -0.6399 -1.9420
17037TIP3    H272527   2.273   3.787   3.222 -0.0764  0.3168 -0.8319
17038TIP3   OH272528   3.849   3.295  17.045  0.6713  0.2168 -0.0548
17038TIP3    H172529   3.761   3.288  17.008 -0.1735  2.9204  1.2858
17038TIP3    H272530   3.853   3.228  17.113 -0.2607 -0.1238 -0.3322
17039TIP3   OH272531   6.012   0.101  11.298 -0.0921 -0.4352 -0.5499
17039TIP3    H172532   5.964   0.037  11.350 -0.3508  0.8837  0.8968
17039TIP3    H272533   6.073   0.049  11.245 -1.8730 -1.9934 -1.1010
17040TIP3   OH272534   5.209   1.999  13.795  0.1060  0.0987 -0.3437
17040TIP3    H172535   5.247   2.081  13.765  0.3591  0.5970  1.2795
17040TIP3    H272536   5.132   2.025  13.845  0.5292 -0.5851  0.7054
17041TIP3   OH272537   2.763   6.660  11.758  0.1938 -0.6902  0.0698
17041TIP3    H172538   2.852   6.657  11.722 -0.8030 -0.1529 -2.5384
17041TIP3    H272539   2.776   6.660  11.853  3.0837  2.3450 -0.2221
17042TIP3   OH272540   0.368   4.887  11.576 -0.5831 -0.7366  0.1779
17042TIP3    H172541   0.313   4.960  11.548 -1.7278 -1.4925  0.4189
17042TIP3    H272542   0.315   4.840  11.641  1.0864 -0.4208  1.7900
17043TIP3   OH272543   3.002   6.525  10.981 -0.1724  0.1117 -0.5886
17043TIP3    H172544   3.039   6.441  11.009 -2.1525 -1.3042 -2.1024
17043TIP3    H272545   3.077   6.585  10.980  1.1971 -1.5170  0.8840
17044TIP3   OH272546   6.502   5.928   5.298 -0.8041  0.1041  0.2055
17044TIP3    H172547   6.471   5.963   5.214  1.5726 -1.3131 -1.3105
17044TIP3    H272548   6.490   5.833   5.290  1.0165 -0.1972  0.7781
17045TIP3   OH272549   5.790   2.543  13.932 -0.3660 -0.1184  0.2685
17045TIP3    H172550   5.712   2.559  13.985 -1.3989  1.3212 -1.6366
17045TIP3    H272551   5.841   2.624  13.941 -1.2828  0.7551 -2.1340
17046TIP3   OH272552   0.425   4.977  12.803  0.0072  0.3477  0.3881
17046TIP3    H172553   0.482   5.024  12.743 -0.0007  0.0697  0.1592
17046TIP3    H272554   0.421   5.032  12.881  1.0305  0.1168  0.6209
17047TIP3   OH272555   2.792   5.708   5.616  0.1298  0.5573 -0.5161
17047TIP3    H172556   2.842   5.783   5.648 -1.4797  0.6377  2.0495
17047TIP3    H272557   2.836   5.632   5.653 -0.1164  0.4675 -0.4024
17048TIP3   OH272558   0.475   0.880   6.311  0.1517  0.0870 -0.0827
17048TIP3    H172559   0.519   0.821   6.250  0.5513 -0.4833  0.7505
17048TIP3    H272560   0.399   0.830   6.341 -0.7323  0.8291 -1.0396
17049TIP3   OH272561   5.551   0.125  13.978 -0.2831  0.0355 -0.0966
17049TIP3    H172562   5.483   0.065  13.946 -0.5324  0.3317 -0.1181
17049TIP3    H272563   5.515   0.212  13.964 -1.1088  0.1628  2.5424
17050TIP3   OH272564   1.159   1.984  10.757 -0.6436  0.0810 -0.0177
17050TIP3    H172565   1.235   1.926  10.754 -1.2325 -0.6676 -1.2813
17050TIP3    H272566   1.087   1.927  10.786 -0.8243  0.6507  0.6497
17051TIP3   OH272567   3.368   2.712   5.587 -0.1286 -0.6574 -0.3478
17051TIP3    H172568   3.424   2.638   5.563 -1.5679 -1.7701 -0.3786
17051TIP3    H272569   3.301   2.715   5.519  0.9146  1.8202 -1.3282
17052TIP3   OH272570   1.121   5.768   4.104 -0.0292  0.3640 -0.1264
17052TIP3    H172571   1.129   5.855   4.144  0.1810  1.0917 -1.6769
17052TIP3    H272572   1.027   5.752   4.100 -0.0532  0.2937  0.6154
17053TIP3   OH272573   2.676   5.082   6.383  0.7329  0.5840 -0.3320
17053TIP3    H172574   2.705   5.029   6.458 -1.2696  0.8057  0.6391
17053TIP3    H272575   2.741   5.153   6.378  0.4769  1.0075  1.6943
17054TIP3   OH272576   0.300   0.541   0.423  0.1038  0.2794  0.3509
17054TIP3    H172577   0.353   0.500   0.492 -0.6141  1.0827  1.3950
17054TIP3    H272578   0.333   0.503   0.341  1.5365 -0.0626  1.0740
17055TIP3   OH272579   4.503   5.140   2.471  0.4234 -0.0040 -0.0333
17055TIP3    H172580   4.519   5.189   2.552 -0.7005  0.3048  0.0067
17055TIP3    H272581   4.590   5.129   2.432  0.8236  0.9186  0.5916
17056TIP3   OH272582   3.875   2.582   2.967 -0.4776 -0.4524  0.3503
17056TIP3    H172583   3.856   2.655   3.026  0.1574 -0.3975  0.4975
17056TIP3    H272584   3.846   2.612   2.881 -1.4007 -0.5285  0.6345
17057TIP3   OH272585   4.190   1.387  11.153  0.1821 -0.0746  0.0686
17057TIP3    H172586   4.104   1.408  11.188 -0.1457 -1.4209  0.0996
17057TIP3    H272587   4.180   1.299  11.117  1.7292 -0.5004  0.6682
17058TIP3   OH272588   5.929   5.085   3.298 -0.1162 -0.3460 -0.1114
17058TIP3    H172589   5.941   5.179   3.313 -0.5811 -0.1904 -0.7164
17058TIP3    H272590   5.836   5.076   3.277 -0.0648 -0.9408 -0.0788
17059TIP3   OH272591   5.323   4.765   1.900  0.0079 -0.0088 -0.4541
17059TIP3    H172592   5.355   4.691   1.848 -0.4664 -0.8588  0.4445
17059TIP3    H272593   5.399   4.821   1.913 -0.2461  1.1969 -3.6604
17060TIP3   OH272594   4.184   4.519   2.630  0.2916  0.0573 -0.1623
17060TIP3    H172595   4.129   4.442   2.646  2.6534 -1.9853 -1.4067
17060TIP3    H272596   4.255   4.511   2.695  0.7990  0.9467 -0.6038
17061TIP3   OH272597   6.735   2.852  13.497 -0.1009 -0.2974 -0.2413
17061TIP3    H172598   6.652   2.887  13.531  0.6923  0.2836  1.1317
17061TIP3    H272599   6.798   2.866  13.567  0.9604 -1.6350 -0.8937
17062TIP3   OH272600   2.194   6.003  16.283 -0.3169  0.7667 -0.7328
17062TIP3    H172601   2.236   6.089  16.290 -1.5753  1.4595 -1.4491
17062TIP3    H272602   2.167   5.983  16.372 -1.1305  1.6999 -0.7545
17063TIP3   OH272603   2.596   1.749  11.785 -0.5883  0.2262 -0.1033
17063TIP3    H172604   2.637   1.702  11.712 -0.8357 -1.4697  0.8276
17063TIP3    H272605   2.543   1.683  11.829  0.5918  0.9087  2.3907
17064TIP3   OH272606   1.266   5.269  13.836  0.1093 -0.6744 -0.0522
17064TIP3    H172607   1.174   5.269  13.862  0.1564  0.1851  0.1188
17064TIP3    H272608   1.266   5.230  13.748 -0.6426  1.1032 -0.8538
17065TIP3   OH272609   1.824   0.211  16.740  0.1992 -0.5286 -0.0456
17065TIP3    H172610   1.831   0.132  16.794  1.7579  0.2149  0.8703
17065TIP3    H272611   1.896   0.204  16.677  0.7511  0.4758  0.4645
17066TIP3   OH272612   1.582   6.290  14.639 -0.1238 -0.1770  0.4453
17066TIP3    H172613   1.556   6.368  14.589  0.1931 -0.2033  0.2341
17066TIP3    H272614   1.578   6.219  14.575 -1.3013 -0.4868  0.8684
17067TIP3   OH272615   4.260   0.944   1.065 -0.0105  0.7153  0.0620
17067TIP3    H172616   4.236   0.883   1.135  1.7437 -1.1098 -0.8730
17067TIP3    H272617   4.319   0.894   1.009 -1.5636  2.0253 -2.8887
17068TIP3   OH272618   4.369   1.335  13.010 -0.1992  0.3560 -0.2050
17068TIP3    H172619   4.309   1.340  12.936  0.5240  0.7588 -0.7704
17068TIP3    H272620   4.313   1.323  13.087 -0.9694  0.3272 -0.7778
17069TIP3   OH272621   2.551   3.806   0.062 -0.1690  0.1845 -0.6707
17069TIP3    H172622   2.507   3.788   0.145 -0.2248 -1.5009 -1.0458
17069TIP3    H272623   2.513   3.889   0.033 -0.0536  0.8537  1.0378
17070TIP3   OH272624   5.493   1.203   3.301  0.3599  0.2792  0.0277
17070TIP3    H172625   5.582   1.229   3.277  0.4655 -0.6126 -0.5791
17070TIP3    H272626   5.501   1.112   3.328 -0.1916  0.5255  1.0245
17071TIP3   OH272627   6.435   1.552  15.566 -0.0983 -0.0025 -1.0249
17071TIP3    H172628   6.378   1.583  15.637 -0.4993  2.0269 -2.1739
17071TIP3    H272629   6.403   1.465  15.545 -0.6366 -0.2111  0.5815
17072TIP3   OH272630   1.872   1.068   4.536 -0.0825 -0.6712  0.5095
17072TIP3    H172631   1.910   1.051   4.450 -1.7993  1.7129 -0.7506
17072TIP3    H272632   1.939   1.119   4.582 -0.4883  0.8365 -0.5704
17073TIP3   OH272633   3.161   2.104  10.534 -0.2891 -0.0481 -0.3586
17073TIP3    H172634   3.093   2.124  10.470  0.5035 -0.6196 -1.3938
17073TIP3    H272635   3.239   2.148  10.501  0.1119 -0.3017  0.2439
17074TIP3   OH272636   1.303   0.264   1.065 -0.5767  0.4449  0.5049
17074TIP3    H172637   1.389   0.302   1.050  0.5969 -1.7802  1.4188
17074TIP3    H272638   1.291   0.203   0.992 -1.4554  0.8305  0.3148
17075TIP3   OH272639   1.421   0.683  13.989 -0.7245 -0.1605 -0.5920
17075TIP3    H172640   1.490   0.711  14.049  0.8136 -0.5129 -2.1271
17075TIP3    H272641   1.409   0.757  13.930 -0.6724 -0.5989 -1.1649
17076TIP3   OH272642   4.800   6.756  12.277  0.0591 -0.0472  0.0770
17076TIP3    H172643   4.880   6.720  12.238  0.0055 -0.9529  0.7792
17076TIP3    H272644   4.785   6.702  12.355 -1.7427 -0.4940 -0.5500
17077TIP3   OH272645   2.719   0.087  10.587  0.5789  0.0630  0.2102
17077TIP3    H172646   2.738   0.002  10.628  0.0238  0.4567  1.3030
17077TIP3    H272647   2.703   0.146  10.661 -1.1961  0.6071 -0.5862
17078TIP3   OH272648   2.965   3.993   2.620  0.4702 -0.7615  0.6477
17078TIP3    H172649   2.983   4.085   2.638  2.0103 -0.8502 -0.3737
17078TIP3    H272650   2.888   3.994   2.564  1.4321  0.0054 -0.6952
17079TIP3   OH272651   4.095   0.713  14.469 -0.1622  0.1433 -0.4276
17079TIP3    H172652   4.052   0.707  14.384  0.1404 -0.3867 -0.5484
17079TIP3    H272653   4.179   0.667  14.457  0.2570  0.8128 -0.0858
17080TIP3   OH272654   6.651   3.887   1.326  0.8495  0.5679 -0.1683
17080TIP3    H172655   6.667   3.796   1.299  2.3958 -0.1629  2.9117
17080TIP3    H272656   6.739   3.926   1.330  0.5175  1.1702  1.7909
17081TIP3   OH272657   2.107   1.265  13.215  0.1082  0.1862  0.9339
17081TIP3    H172658   2.083   1.185  13.167  2.3004  0.7676 -1.2753
17081TIP3    H272659   2.171   1.236  13.280  2.0554  0.2688 -0.8595
17082TIP3   OH272660   4.036   3.466   5.644  0.4724  1.3146 -0.0727
17082TIP3    H172661   4.092   3.478   5.721 -1.0486  0.6249  1.1756
17082TIP3    H272662   4.031   3.553   5.604  2.9919  1.2434 -0.6296
17083TIP3   OH272663   2.004   3.850   1.672  0.8849  0.8331  0.3877
17083TIP3    H172664   1.997   3.796   1.593  0.5288  1.0865  0.2454
17083TIP3    H272665   1.924   3.831   1.721  2.8659 -2.2884  2.5715
17084TIP3   OH272666   0.551   0.024   0.551 -0.3572 -0.2422 -0.4638
17084TIP3    H172667   0.482   0.010   0.616 -0.2648 -0.8874 -0.5015
17084TIP3    H272668   0.506   0.017   0.467 -0.4114  0.2419 -0.4766
17085TIP3   OH272669   4.151   2.869   5.490  0.1847 -0.4798 -0.5136
17085TIP3    H172670   4.211   2.844   5.420 -1.4623 -1.2801 -1.6760
17085TIP3    H272671   4.163   2.802   5.558  1.1801 -0.1828 -0.4029
17086TIP3   OH272672   3.609   5.975  14.399  0.4848 -0.1890 -0.1239
17086TIP3    H172673   3.616   6.036  14.325 -3.7236 -2.2431 -2.4197
17086TIP3    H272674   3.535   6.007  14.450 -0.2070 -1.9073  0.0092
17087TIP3   OH272675   1.082   1.991  12.218  0.3691 -0.1224  0.2955
17087TIP3    H172676   1.158   1.942  12.188  2.0132  2.7579 -0.3804
17087TIP3    H272677   1.020   1.987  12.145  2.0648  2.0340 -1.3100
17088TIP3   OH272678   0.602   3.576   5.800 -0.2953 -0.0917 -0.1855
17088TIP3    H172679   0.676   3.548   5.853  0.7888  0.5337 -1.3475
17088TIP3    H272680   0.576   3.497   5.752  1.2800  0.2679 -1.7049
17089TIP3   OH272681   0.275   2.186  14.939  0.1089  0.5322  0.2222
17089TIP3    H172682   0.343   2.122  14.917 -0.4121  0.1926 -0.4199
17089TIP3    H272683   0.218   2.188  14.862 -0.7272  0.6567  0.8376
17090TIP3   OH272684   6.343   0.306   3.135  0.5783  0.2423 -0.0507
17090TIP3    H172685   6.288   0.246   3.185  1.4859  1.3386  2.3601
17090TIP3    H272686   6.308   0.393   3.156  1.1280  0.7481 -1.1752
17091TIP3   OH272687   4.507   4.380   2.936  0.1290 -0.3798  0.3050
17091TIP3    H172688   4.547   4.311   2.989  0.1026 -0.8780 -0.3187
17091TIP3    H272689   4.446   4.334   2.879  0.6657  0.0653 -0.6457
17092TIP3   OH272690   1.350   1.791   3.608 -0.0524  0.0132 -0.2997
17092TIP3    H172691   1.329   1.719   3.549  1.5323 -1.2202  0.5830
17092TIP3    H272692   1.265   1.828   3.632 -0.9920 -2.2323  0.0198
17093TIP3   OH272693   2.099   0.367  12.830 -0.0915  0.3346 -0.7525
17093TIP3    H172694   2.158   0.405  12.765  0.0648 -1.2190 -1.5475
17093TIP3    H272695   2.135   0.394  12.914  1.4922 -0.1886 -1.2372
17094TIP3   OH272696   6.363   1.327   2.916  0.3008  0.5184 -0.0721
17094TIP3    H172697   6.388   1.377   2.994 -1.5934  0.5021  0.5770
17094TIP3    H272698   6.383   1.236   2.938  1.9552  0.7721 -0.5113
17095TIP3   OH272699   4.089   5.547   0.896 -0.2640  0.2608 -0.8631
17095TIP3    H172700   4.068   5.640   0.887 -1.0365  0.2027  0.2488
17095TIP3    H272701   4.063   5.508   0.813 -3.6516  0.3773  0.0662
17096TIP3   OH272702   1.561   0.286  14.430  0.1260  0.6055  0.3022
17096TIP3    H172703   1.572   0.367  14.380 -0.1428 -0.3589 -1.3742
17096TIP3    H272704   1.626   0.227  14.392 -0.9426 -0.5441  0.2492
17097TIP3   OH272705   4.893   0.630   3.400  0.1846  0.0131  0.1962
17097TIP3    H172706   4.821   0.570   3.420  1.2626 -0.8464  1.5885
17097TIP3    H272707   4.965   0.572   3.373  0.3747  0.8608 -1.1973
17098TIP3   OH272708   4.075   3.944   4.828 -0.4629 -0.0525 -0.6059
17098TIP3    H172709   4.034   4.014   4.878  0.5170 -0.4878  0.8428
17098TIP3    H272710   4.167   3.945   4.856 -0.6361 -2.4936  0.1433
17099TIP3   OH272711   5.536   2.994  12.671 -0.1817 -0.6263  0.4812
17099TIP3    H172712   5.561   2.960  12.585 -1.2170 -1.4719  0.5040
17099TIP3    H272713   5.459   3.049  12.653 -0.1071 -0.4187  0.7997
17100TIP3   OH272714   3.886   2.128   5.287 -0.3733  0.2645 -0.0608
17100TIP3    H172715   3.910   2.121   5.194 -1.1823  2.8777 -0.5253
17100TIP3    H272716   3.791   2.125   5.287 -0.3401 -0.8040  0.8137
17101TIP3   OH272717   5.220   5.122  16.430 -0.1662  0.0102  0.6124
17101TIP3    H172718   5.214   5.027  16.432 -0.4564 -0.0299 -0.9849
17101TIP3    H272719   5.169   5.151  16.505 -0.9911 -1.0749  0.4892
17102TIP3   OH272720   2.467   0.196   5.669 -1.1490  0.4571  0.2420
17102TIP3    H172721   2.381   0.198   5.627 -1.3886 -0.3504  0.6931
17102TIP3    H272722   2.449   0.192   5.763 -0.6350 -0.8399  0.2975
17103TIP3   OH272723   5.419   0.972   1.807 -0.0957 -0.3322 -0.5124
17103TIP3    H172724   5.344   1.028   1.786  0.5617 -0.1864 -2.6046
17103TIP3    H272725   5.434   0.921   1.727  0.4862 -2.1725  0.7178
17104TIP3   OH272726   2.832   3.518   2.574 -0.2404  0.1270  0.3064
17104TIP3    H172727   2.889   3.546   2.502  0.7569 -1.3050  0.4904
17104TIP3    H272728   2.750   3.493   2.532  1.0921 -2.8715 -0.6943
17105TIP3   OH272729   1.439   5.237  17.059  0.0794 -0.2169 -0.0557
17105TIP3    H172730   1.490   5.180  17.116  0.6334  2.0777  1.8534
17105TIP3    H272731   1.352   5.196  17.056  1.2009 -2.5654 -0.9340
17106TIP3   OH272732   4.063   4.722   4.901  0.3544 -0.2343 -0.1365
17106TIP3    H172733   4.009   4.772   4.962 -1.2754 -1.3346 -0.6285
17106TIP3    H272734   4.103   4.788   4.844  0.4102  0.6694  0.9406
17107TIP3   OH272735   2.297   2.569  14.984 -0.2965 -0.7858  0.3054
17107TIP3    H172736   2.290   2.494  14.926  1.5117  0.4382 -1.5478
17107TIP3    H272737   2.338   2.638  14.931 -0.9582  1.1899  2.2489
17108TIP3   OH272738   1.807   5.065  12.400  0.0301 -0.1309  0.4887
17108TIP3    H172739   1.863   4.991  12.420  0.4720 -0.5518 -2.1385
17108TIP3    H272740   1.744   5.032  12.336 -1.7738  0.9605  1.6254
17109TIP3   OH272741   3.192   2.853  16.174  0.6437 -0.3858  0.1940
17109TIP3    H172742   3.189   2.932  16.228 -1.8539 -0.1527 -0.2281
17109TIP3    H272743   3.224   2.883  16.089  1.6594 -0.2221  0.6214
17110TIP3   OH272744   3.817   5.450   6.527 -0.0667  0.2316  0.5948
17110TIP3    H172745   3.789   5.503   6.601 -2.6319  0.7212 -0.6820
17110TIP3    H272746   3.823   5.511   6.454  0.9370 -0.5156  0.0363
17111TIP3   OH272747   6.711   0.656   5.493  0.1040  0.1731 -0.2640
17111TIP3    H172748   6.717   0.656   5.589  0.5616 -0.3421 -0.2897
17111TIP3    H272749   6.619   0.637   5.475 -0.2695  1.5943  0.0806
17112TIP3   OH272750   6.340   1.190   0.748  1.1061  0.4898 -0.3837
17112TIP3    H172751   6.385   1.110   0.774  0.6951  0.4599  0.2184
17112TIP3    H272752   6.411   1.255   0.740  1.1795  0.6066  1.1921
17113TIP3   OH272753   0.631   3.804  11.414 -0.1814 -0.0305  0.3733
17113TIP3    H172754   0.703   3.752  11.381 -0.5085 -0.2015 -0.0785
17113TIP3    H272755   0.657   3.895  11.399 -0.0700 -0.0937  0.1877
17114TIP3   OH272756   0.069   3.900  16.062 -0.0131 -0.3413 -0.2117
17114TIP3    H172757  -0.016   3.877  16.024 -0.0268 -2.6789  1.1206
17114TIP3    H272758   0.121   3.930  15.987 -1.9222  0.9045 -1.0753
17115TIP3   OH272759   3.448   2.464  16.060 -0.7323  0.2299 -0.0350
17115TIP3    H172760   3.445   2.560  16.063  1.2546  0.2926  0.0323
17115TIP3    H272761   3.403   2.443  15.978 -0.9564  1.2215 -0.1859
17116TIP3   OH272762   5.962   6.149  12.991 -0.1852 -0.0662  0.4143
17116TIP3    H172763   6.006   6.234  12.994 -0.4756  0.1009  0.0269
17116TIP3    H272764   6.033   6.086  12.984  0.0277  0.1521  0.5847
17117TIP3   OH272765   1.865   4.468  16.476  0.3016 -0.5163 -0.2591
17117TIP3    H172766   1.807   4.545  16.476  0.3009 -0.5163 -0.2599
17117TIP3    H272767   1.805   4.394  16.484  0.3601 -0.4673  0.6638
17118TIP3   OH272768   3.440   2.975  13.698 -0.0251 -0.2278 -0.8839
17118TIP3    H172769   3.497   3.001  13.625  0.9520 -3.9963 -1.5331
17118TIP3    H272770   3.500   2.936  13.762 -1.4448 -0.8215  0.0934
17119TIP3   OH272771   1.929   2.487  11.004 -0.2681  0.2715  0.3960
17119TIP3    H172772   1.852   2.435  10.978  0.2106  0.4176 -1.4120
17119TIP3    H272773   1.914   2.573  10.964  2.3400 -0.6566 -2.8550
17120TIP3   OH272774   5.555   0.642  11.723 -0.3226 -1.0275  0.0679
17120TIP3    H172775   5.499   0.679  11.791  0.0569  1.6317 -1.0309
17120TIP3    H272776   5.640   0.684  11.736  0.2085 -1.7678 -1.0020
17121TIP3   OH272777   4.630   5.885   2.295 -0.1445  0.0366 -0.5170
17121TIP3    H172778   4.613   5.792   2.312 -0.6494  0.0450 -0.9858
17121TIP3    H272779   4.553   5.930   2.331  1.2424  0.4914  2.0395
17122TIP3   OH272780   1.477   5.275  14.754  0.0574 -0.0171  0.4018
17122TIP3    H172781   1.566   5.265  14.789  0.8401  2.1337 -0.8831
17122TIP3    H272782   1.453   5.187  14.724  1.9422 -0.5300  0.3295
17123TIP3   OH272783   1.435   0.890   4.916  0.0425  0.2145  0.5130
17123TIP3    H172784   1.454   0.935   4.834 -0.5323 -0.2949  0.0928
17123TIP3    H272785   1.441   0.958   4.983  0.7005  0.5904  0.0700
17124TIP3   OH272786   0.264   4.264  16.679  0.1965  0.5830 -0.1526
17124TIP3    H172787   0.336   4.304  16.629  1.7945 -0.0762  1.5758
17124TIP3    H272788   0.287   4.278  16.770 -0.5368 -1.9783  0.4707
17125TIP3   OH272789   1.525   6.208   4.625 -0.1320  0.1170  0.9585
17125TIP3    H172790   1.539   6.295   4.662  0.4671  0.4811 -0.1064
17125TIP3    H272791   1.517   6.150   4.702 -0.6433  1.1158  1.6648
17126TIP3   OH272792   3.530   5.010   6.081 -0.2714  0.1778  0.2217
17126TIP3    H172793   3.598   4.948   6.111  1.5664  1.5268 -1.0371
17126TIP3    H272794   3.448   4.973   6.115  1.2853 -0.3224  3.7085
17127TIP3   OH272795   0.194   5.555  16.896  0.0612 -0.0259 -0.2789
17127TIP3    H172796   0.135   5.480  16.897 -0.1784  0.1615 -0.5759
17127TIP3    H272797   0.200   5.580  16.804 -0.3347  0.6994 -0.1082
17128TIP3   OH272798   2.043   0.084  14.010 -0.1157 -0.1437 -0.1697
17128TIP3    H172799   2.005   0.163  13.972  0.4519 -0.3956 -1.2487
17128TIP3    H272800   2.137   0.093  13.998  0.0922 -0.1590  1.3041
17129TIP3   OH272801   6.607   2.836   3.160  0.3393 -0.4253  0.0913
17129TIP3    H172802   6.587   2.761   3.104 -0.0620 -0.7918  0.7171
17129TIP3    H272803   6.582   2.912   3.107  0.4837 -0.7445 -0.4390
17130TIP3   OH272804   0.064   5.633  14.091  0.2220  0.1784 -0.0034
17130TIP3    H172805   0.055   5.672  14.178  0.7854 -1.0089  0.6000
17130TIP3    H272806   0.139   5.678  14.052  1.7004 -1.2000  1.1983
17131TIP3   OH272807   3.027   0.272  14.730  0.9189  0.6127  0.1890
17131TIP3    H172808   2.944   0.315  14.752  0.2989  0.4615 -1.7482
17131TIP3    H272809   3.093   0.338  14.748  0.4849  0.4258  2.6414
17132TIP3   OH272810   5.753   4.028  13.401  0.4003 -0.1042 -0.3105
17132TIP3    H172811   5.762   4.105  13.458 -0.3863 -0.2974  0.0825
17132TIP3    H272812   5.840   4.014  13.365  0.7790  0.3490  0.4284
17133TIP3   OH272813   1.618   0.863  16.086 -0.1173  0.0470 -0.4642
17133TIP3    H172814   1.633   0.854  15.992  0.6854  0.0700 -0.3432
17133TIP3    H272815   1.535   0.820  16.102 -0.2642  0.0585 -1.1921
17134TIP3   OH272816   2.069   1.826   1.268 -0.4567  0.7877  0.3870
17134TIP3    H172817   1.979   1.820   1.300 -0.6211  1.0660 -0.0235
17134TIP3    H272818   2.123   1.796   1.342 -0.9372 -0.3060  0.2992
17135TIP3   OH272819   0.914   4.694  16.137 -0.0913  0.0047  0.4118
17135TIP3    H172820   0.830   4.656  16.111 -1.3779  2.3604  0.9277
17135TIP3    H272821   0.976   4.622  16.130 -2.4296 -2.2049  1.5082
17136TIP3   OH272822   1.401   6.588  14.975 -0.7982  0.0361 -0.0995
17136TIP3    H172823   1.399   6.648  15.049 -1.0971  2.8664 -2.3149
17136TIP3    H272824   1.312   6.587  14.942 -0.6497 -1.1375 -0.4908
17137TIP3   OH272825   6.430   1.177  12.837 -0.0766 -0.2539  0.3349
17137TIP3    H172826   6.436   1.173  12.741  0.1066  0.0782  0.3303
17137TIP3    H272827   6.339   1.199  12.855 -0.6654 -2.5305  0.3080
17138TIP3   OH272828   5.901   4.694  13.686  0.4666  0.3272 -0.8866
17138TIP3    H172829   5.883   4.770  13.631 -0.4580  1.3273  0.7658
17138TIP3    H272830   5.815   4.657  13.705  0.6540  0.7626  0.9320
17139TIP3   OH272831   6.730   6.202   0.616 -0.8898  0.8334  0.4783
17139TIP3    H172832   6.822   6.177   0.610 -1.3040 -0.5020 -0.8747
17139TIP3    H272833   6.701   6.166   0.700 -0.4208  0.3961  0.4572
17140TIP3   OH272834   3.682   5.404   6.250 -0.3321  0.4633  0.3471
17140TIP3    H172835   3.628   5.355   6.312  0.4947  0.2208  0.8896
17140TIP3    H272836   3.762   5.353   6.243  0.1709  1.2620  0.2170
17141TIP3   OH272837   5.089   1.294  15.679  0.0999 -0.6556  0.1573
17141TIP3    H172838   5.064   1.205  15.703 -2.8852  0.3085  0.8224
17141TIP3    H272839   5.033   1.316  15.605  2.9249 -0.3474 -1.9826
17142TIP3   OH272840   5.950   5.196   4.892 -0.1548  0.3422  0.7431
17142TIP3    H172841   5.868   5.193   4.941  0.0905  0.1654  1.1434
17142TIP3    H272842   6.015   5.228   4.955  0.2557 -0.3316  0.6673
17143TIP3   OH272843   4.529   4.373   2.099 -0.1788 -0.3050  0.2519
17143TIP3    H172844   4.572   4.307   2.045 -0.6365 -0.0020 -0.4887
17143TIP3    H272845   4.526   4.451   2.045  0.9473  0.5290  1.3656
17144TIP3   OH272846   0.123   2.037   2.702  0.1184  0.6823  0.1426
17144TIP3    H172847   0.088   2.110   2.650 -0.1606  0.8489  0.5683
17144TIP3    H272848   0.120   1.962   2.643  0.1404  0.9505 -0.2037
17145TIP3   OH272849   4.866   5.427   2.762  0.2491 -0.0863  0.0274
17145TIP3    H172850   4.960   5.408   2.754  0.0513 -0.9157 -0.3161
17145TIP3    H272851   4.847   5.483   2.686  0.3543 -0.3545 -0.1991
17146TIP3   OH272852   2.330   1.371  11.242 -0.6253  0.2524 -0.0711
17146TIP3    H172853   2.325   1.312  11.167 -0.6179  0.6264 -0.3704
17146TIP3    H272854   2.412   1.348  11.286 -0.4937  0.2097 -0.3342
17147TIP3   OH272855   0.228   3.734   0.474 -0.2894 -1.0767  0.1055
17147TIP3    H172856   0.223   3.694   0.561 -0.5887  2.1428  1.6622
17147TIP3    H272857   0.144   3.713   0.433 -1.5409  0.1719  1.9430
17148TIP3   OH272858   3.400   3.666  16.256  0.6174 -0.2160 -0.2428
17148TIP3    H172859   3.492   3.638  16.259  0.9528  0.9906  1.4301
17148TIP3    H272860   3.403   3.758  16.231 -0.1967 -0.3369 -0.8294
17149TIP3   OH272861   3.512   5.667  12.610 -0.1751  0.0034 -0.6068
17149TIP3    H172862   3.573   5.633  12.545  1.1202  0.7597  0.1699
17149TIP3    H272863   3.520   5.607  12.684 -0.3821  0.1024 -0.5031
17150TIP3   OH272864   1.843   1.663  12.768  0.1968  0.3145  0.4842
17150TIP3    H172865   1.903   1.728  12.731 -0.4855  2.0380  2.3203
17150TIP3    H272866   1.813   1.612  12.693 -1.8665  4.2998 -1.5307
17151TIP3   OH272867   3.733   4.376  13.141  0.8464 -0.1786  0.2929
17151TIP3    H172868   3.763   4.324  13.066 -0.8426 -0.1830 -0.4000
17151TIP3    H272869   3.651   4.416  13.112 -0.2129 -0.7432  2.3548
17152TIP3   OH272870   0.039   0.106   3.620 -0.2307  0.1237  0.3027
17152TIP3    H172871  -0.005   0.182   3.655  0.0702  0.3935  0.1020
17152TIP3    H272872   0.095   0.075   3.691 -0.8423 -0.2931  0.5963
17153TIP3   OH272873   4.616   3.340   1.842 -0.7131  0.3747 -0.3379
17153TIP3    H172874   4.541   3.355   1.900 -1.4581 -3.4198 -0.1834
17153TIP3    H272875   4.577   3.335   1.754 -0.3960  0.2335 -0.4702
17154TIP3   OH272876   0.143   6.268   5.876 -0.3290 -0.3140  0.0236
17154TIP3    H172877   0.207   6.319   5.926  0.7335 -0.2519 -1.3709
17154TIP3    H272878   0.162   6.177   5.900  0.1469 -0.2805 -0.2098
17155TIP3   OH272879   5.436   5.336  10.815 -0.2614  0.7895 -0.6818
17155TIP3    H172880   5.367   5.399  10.793 -0.5584 -0.3416 -3.2244
17155TIP3    H272881   5.492   5.335  10.738 -0.3241 -2.1082 -0.7463
17156TIP3   OH272882   5.954   3.369   1.133 -0.0255 -0.5354 -0.1024
17156TIP3    H172883   5.934   3.321   1.213 -0.1686  0.8303  0.6999
17156TIP3    H272884   5.908   3.322   1.064  0.7673 -2.2124  0.4795
17157TIP3   OH272885   3.369   3.958   4.701  0.0726  0.4309  0.1213
17157TIP3    H172886   3.452   4.002   4.686  0.7019 -0.1631  1.8493
17157TIP3    H272887   3.387   3.893   4.769 -1.5638 -0.3894 -0.1914
17158TIP3   OH272888   1.294   1.445   3.597  0.1470  0.2281 -0.8645
17158TIP3    H172889   1.271   1.498   3.522 -1.0043 -0.3180 -0.9051
17158TIP3    H272890   1.294   1.355   3.564  0.5618  0.0695 -0.4398
17159TIP3   OH272891   6.105   4.806  10.945 -0.1944  0.2549  0.4712
17159TIP3    H172892   6.038   4.872  10.933 -1.0523 -0.6936 -0.0235
17159TIP3    H272893   6.069   4.727  10.906  1.4108 -0.1519 -0.2423
17160TIP3   OH272894   3.748   1.899   4.495 -0.8382 -0.3790 -0.2991
17160TIP3    H172895   3.715   1.851   4.419  1.7141  0.6222 -2.1065
17160TIP3    H272896   3.808   1.838   4.538  0.5124  0.2828 -1.1985
17161TIP3   OH272897   6.494   4.288  13.098 -0.7259  0.6603 -0.3066
17161TIP3    H172898   6.504   4.318  13.188 -0.2578 -0.8348  0.1534
17161TIP3    H272899   6.408   4.321  13.071 -0.1932  2.4593  0.1409
17162TIP3   OH272900   0.441   1.604  15.510 -0.3764  0.4132 -0.4685
17162TIP3    H172901   0.368   1.576  15.454 -0.0970 -0.0696 -0.5904
17162TIP3    H272902   0.493   1.661  15.454 -0.0530 -0.1347 -0.7261
17163TIP3   OH272903   2.114   1.666  14.188 -0.6180 -0.2305  0.1653
17163TIP3    H172904   2.042   1.645  14.248  0.8064 -0.5994  1.8056
17163TIP3    H272905   2.179   1.710  14.243 -0.2441  1.4931 -1.6121
17164TIP3   OH272906   3.876   2.704  16.308 -0.5875  0.7882 -0.4721
17164TIP3    H172907   3.834   2.765  16.369 -1.6204  0.2579 -0.6339
17164TIP3    H272908   3.829   2.718  16.225  0.7255  1.4268 -1.1314
17165TIP3   OH272909   4.346   4.748   0.893  0.3664  0.1653  0.0170
17165TIP3    H172910   4.409   4.773   0.960  0.5014 -2.5828  0.9952
17165TIP3    H272911   4.269   4.720   0.941 -0.4280  0.4565 -1.0733
17166TIP3   OH272912   5.930   0.815  14.579  0.0961  0.1750  0.1859
17166TIP3    H172913   5.922   0.720  14.587 -2.4677  0.3294 -0.0846
17166TIP3    H272914   5.845   0.843  14.543  0.5146  2.6424  1.0343
17167TIP3   OH272915   5.256   1.637  12.304 -0.1126  0.3450  0.0316
17167TIP3    H172916   5.181   1.594  12.346  0.1078 -0.3309 -0.2533
17167TIP3    H272917   5.332   1.595  12.343  0.0979 -0.0776 -0.8264
17168TIP3   OH272918   4.848   2.049   2.965  0.3804 -0.3037 -0.6524
17168TIP3    H172919   4.781   2.092   2.911  0.9956  0.3674 -0.8791
17168TIP3    H272920   4.802   2.026   3.046  0.1649  1.1530 -0.3624
17169TIP3   OH272921   5.692   3.703  15.967 -0.7321  0.2219  0.3600
17169TIP3    H172922   5.699   3.729  15.875  0.0128 -0.5792  0.1783
17169TIP3    H272923   5.728   3.614  15.969 -2.1248 -0.3408  1.1596
17170TIP3   OH272924   0.466   0.956  14.315  0.4823  0.1137 -0.3446
17170TIP3    H172925   0.520   1.032  14.338 -0.0183  0.8644 -1.6006
17170TIP3    H272926   0.484   0.892  14.384  2.9319  0.3568 -0.7106
17171TIP3   OH272927   4.733   0.525   0.489 -0.1858 -0.0928  0.0563
17171TIP3    H172928   4.734   0.583   0.565  1.8623 -0.4318  0.3199
17171TIP3    H272929   4.772   0.578   0.419  0.7561 -0.7931  0.0441
17172TIP3   OH272930   0.316   5.171  16.386 -0.0948 -0.3646  0.1209
17172TIP3    H172931   0.346   5.115  16.314 -2.0548 -0.8765 -0.3444
17172TIP3    H272932   0.279   5.248  16.342 -0.2342 -0.1452  0.6213
17173TIP3   OH272933   4.183   1.944   1.442  0.4413 -0.0947 -0.0382
17173TIP3    H172934   4.195   1.851   1.461  0.9796 -0.3627 -1.5974
17173TIP3    H272935   4.215   1.955   1.352 -2.7142  0.9157 -1.1390
17174TIP3   OH272936   1.426   4.200   4.210 -0.4154  0.7312 -0.1111
17174TIP3    H172937   1.504   4.252   4.228 -1.0889  1.4342  0.8372
17174TIP3    H272938   1.460   4.117   4.176  0.6787  1.6704 -1.3655
17175TIP3   OH272939   1.164   2.803   5.654  0.0138 -0.6608 -0.2018
17175TIP3    H172940   1.209   2.731   5.696  0.4466  0.5167  1.4072
17175TIP3    H272941   1.231   2.846   5.600 -0.3845 -1.7762 -1.6260
17176TIP3   OH272942   3.111   2.989  12.931 -0.4374 -0.9090 -0.0398
17176TIP3    H172943   3.115   2.904  12.976 -1.3970 -1.3402 -0.7545
17176TIP3    H272944   3.019   2.998  12.905 -0.3558  0.3983  0.1139
17177TIP3   OH272945   1.895   2.519   2.021 -0.0087  0.2442 -0.8833
17177TIP3    H172946   1.953   2.506   1.946  0.4858  0.5461 -0.5555
17177TIP3    H272947   1.943   2.484   2.096 -1.0303 -1.2505 -0.8982
17178TIP3   OH272948   2.670   6.560   5.478  0.3736 -0.0646 -0.0127
17178TIP3    H172949   2.634   6.620   5.543  1.5359  0.2880  0.3087
17178TIP3    H272950   2.745   6.607   5.441  1.0433 -1.1464 -0.0547
17179TIP3   OH272951   4.490   4.888   2.132  0.6171  0.5058  0.5992
17179TIP3    H172952   4.451   4.973   2.110 -0.5563 -0.2645 -0.3227
17179TIP3    H272953   4.426   4.846   2.190  0.2528 -0.6034 -0.5942
17180TIP3   OH272954   4.507   3.100  12.587 -0.2009 -0.1477 -0.2246
17180TIP3    H172955   4.477   3.054  12.665  1.5246 -0.9875 -0.0363
17180TIP3    H272956   4.598   3.072  12.576  0.5405  2.3085 -0.7608
17181TIP3   OH272957   2.249   5.274  13.762 -0.8009  0.0266 -0.0008
17181TIP3    H172958   2.293   5.195  13.728 -0.9639  0.1227 -0.4387
17181TIP3    H272959   2.166   5.242  13.798 -0.3036 -0.1807  0.9898
17182TIP3   OH272960   5.581   3.629  12.930 -0.0082 -0.2588 -0.0149
17182TIP3    H172961   5.531   3.710  12.946 -3.2256 -1.8879 -1.3069
17182TIP3    H272962   5.561   3.573  13.005  1.3509 -0.2823  0.3404
17183TIP3   OH272963   6.593   4.489   0.059  0.3192 -0.1149 -0.3415
17183TIP3    H172964   6.530   4.491  -0.012 -0.0924 -1.7263 -0.0356
17183TIP3    H272965   6.663   4.431   0.028  0.3691 -0.4413  0.3677
17184TIP3   OH272966   3.386   1.120   1.720 -0.6673  0.6775  0.0627
17184TIP3    H172967   3.447   1.056   1.683 -1.1873  0.3884 -0.3118
17184TIP3    H272968   3.440   1.196   1.741 -0.2566  0.6063 -0.7231
17185TIP3   OH272969   6.557   3.440   1.083 -0.4730  0.9442  0.1010
17185TIP3    H172970   6.593   3.407   1.001 -0.6293  0.5802  0.1770
17185TIP3    H272971   6.466   3.411   1.082 -0.3676  0.5898  0.5895
17186TIP3   OH272972   0.096   5.274   0.780  0.4232 -0.5621 -0.3281
17186TIP3    H172973   0.157   5.328   0.829  0.1098 -0.9724  0.5199
17186TIP3    H272974   0.127   5.278   0.690  2.4108 -1.7274  0.2773
17187TIP3   OH272975   6.287   0.299   0.985  0.3811 -0.1390  1.0019
17187TIP3    H172976   6.313   0.219   0.941  0.1626  0.5162 -0.3521
17187TIP3    H272977   6.353   0.364   0.959 -1.0678  0.8540 -0.3005
17188TIP3   OH272978   5.939   2.506  15.854  0.3745  0.3837 -0.6683
17188TIP3    H172979   5.964   2.428  15.903 -1.2693 -1.3524 -2.4907
17188TIP3    H272980   6.008   2.518  15.790  0.9458  0.8127  0.0210
17189TIP3   OH272981   0.320   1.861  15.745 -0.0021  0.0028  0.0047
17189TIP3    H172982   0.352   1.774  15.769  2.5544  0.3012 -2.1669
17189TIP3    H272983   0.236   1.845  15.704  0.4983 -1.4742 -0.4875
17190TIP3   OH272984   2.935   6.509  13.939  0.0931 -0.4984 -0.5656
17190TIP3    H172985   2.908   6.596  13.909 -1.8980 -0.5691  0.9054
17190TIP3    H272986   2.887   6.496  14.021 -0.2588 -3.3248 -1.1791
17191TIP3   OH272987   4.105   5.523   3.744 -0.0181  0.5223 -0.4727
17191TIP3    H172988   4.175   5.567   3.695  0.9254 -0.2867  0.1355
17191TIP3    H272989   4.046   5.490   3.676  2.3758 -2.4400 -1.2401
17192TIP3   OH272990   4.582   5.779   3.188  0.4688 -0.0471 -0.0638
17192TIP3    H172991   4.516   5.776   3.257 -0.7419  0.1868 -1.2028
17192TIP3    H272992   4.662   5.808   3.232 -0.4882  0.8774  1.0799
17193TIP3   OH272993   4.806   5.170  16.345  0.0971 -0.1005 -0.0373
17193TIP3    H172994   4.836   5.079  16.338  1.5557  0.3223  0.4630
17193TIP3    H272995   4.820   5.192  16.437 -1.7483  0.1430  0.2072
17194TIP3   OH272996   1.832   0.451  12.651 -0.0854  0.2842 -0.3348
17194TIP3    H172997   1.906   0.460  12.710  0.8417 -0.3178 -1.3865
17194TIP3    H272998   1.831   0.357  12.629 -0.8096  0.3928 -0.7702
17195TIP3   OH272999   3.222   2.598   2.758 -0.1145 -0.3330  1.0020
17195TIP3    H173000   3.310   2.631   2.775 -0.3280  0.4775  0.5802
17195TIP3    H273001   3.164   2.671   2.780 -0.7083 -0.9750  1.5999
17196TIP3   OH273002   1.366   6.448  12.218  0.1152 -0.2592  0.3248
17196TIP3    H173003   1.460   6.440  12.206 -0.2051  0.4765 -3.2639
17196TIP3    H273004   1.352   6.539  12.243  0.2598 -0.1360 -0.0518
17197TIP3   OH273005   1.426   5.211   2.742  0.4464 -0.2507  0.0864
17197TIP3    H173006   1.467   5.176   2.821  1.5907 -0.1602 -0.4514
17197TIP3    H273007   1.462   5.158   2.671  1.4278  1.3314 -0.6364
17198TIP3   OH273008   1.270   6.368   4.341 -0.1165  0.7983  0.6018
17198TIP3    H173009   1.316   6.349   4.259 -0.3077  2.2546  0.1425
17198TIP3    H273010   1.261   6.463   4.342  1.0957  0.9310  2.9684
17199TIP3   OH273011   2.610   1.928  12.148  0.2753 -0.0453 -0.7949
17199TIP3    H173012   2.521   1.964  12.150 -0.0066 -0.7227 -0.8092
17199TIP3    H273013   2.667   2.005  12.145 -0.2568  0.4316  0.6630
17200TIP3   OH273014   3.165   6.293   4.025  0.1324  0.1980 -0.4552
17200TIP3    H173015   3.161   6.271   4.118 -1.4411  1.9561 -0.0611
17200TIP3    H273016   3.252   6.331   4.013  0.5551 -0.5710  0.1841
17201TIP3   OH273017   1.111   6.367   4.633 -0.4577  0.3855 -0.7796
17201TIP3    H173018   1.160   6.367   4.551  2.3314  0.6058  0.8495
17201TIP3    H273019   1.137   6.447   4.678  1.0563 -1.5927  2.0401
17202TIP3   OH273020   4.584   1.328  12.584  0.4846 -0.2585 -0.2065
17202TIP3    H173021   4.600   1.384  12.509 -0.0876 -1.3522 -1.1664
17202TIP3    H273022   4.581   1.387  12.659  1.6998  0.7719 -0.9549
17203TIP3   OH273023   0.897   5.740   1.837  0.2376 -0.2909  0.5340
17203TIP3    H173024   0.869   5.651   1.819 -0.6118 -0.0611  0.7140
17203TIP3    H273025   0.843   5.795   1.780  0.4230  0.1369  0.7636
17204TIP3   OH273026   4.699   2.359  11.449 -0.5733 -0.3822 -0.1169
17204TIP3    H173027   4.716   2.336  11.358  0.8640 -1.6228  0.4471
17204TIP3    H273028   4.707   2.277  11.497  1.5835  0.7509  1.5288
17205TIP3   OH273029   3.521   4.972   2.749 -0.2304  0.2012  0.0262
17205TIP3    H173030   3.597   5.015   2.790 -0.0913 -0.5045  0.5127
17205TIP3    H273031   3.483   4.919   2.818 -1.7204  1.2604  0.0280
17206TIP3   OH273032   4.652   3.886   1.932  0.1578  0.0381 -0.8083
17206TIP3    H173033   4.664   3.876   2.026 -2.7633 -2.0883 -0.5815
17206TIP3    H273034   4.624   3.977   1.920 -1.1520 -0.1570  0.6190
17207TIP3   OH273035   3.102   4.563   6.231  0.2553  0.2923 -0.5444
17207TIP3    H173036   3.040   4.492   6.217  0.2600  0.3378 -0.8021
17207TIP3    H273037   3.047   4.641   6.245  0.2416  0.0975  0.5109
17208TIP3   OH273038   0.062   4.913  15.308 -0.4619 -0.3424 -0.1953
17208TIP3    H173039  -0.002   4.969  15.352 -0.0479 -0.7415  0.9319
17208TIP3    H273040   0.117   4.973  15.258 -1.2346  0.0694 -0.5617
17209TIP3   OH273041   0.668   1.311   3.853  0.2000 -0.1203  0.1237
17209TIP3    H173042   0.742   1.326   3.911  1.1921 -0.3209 -1.0678
17209TIP3    H273043   0.599   1.277   3.910  1.1279 -0.2386  1.1899
17210TIP3   OH273044   1.516   4.620   3.209 -0.6524  0.1633  0.0809
17210TIP3    H173045   1.451   4.639   3.143 -0.1375 -0.1311 -0.5182
17210TIP3    H273046   1.510   4.525   3.222 -1.8659  0.4324  1.6369
17211TIP3   OH273047   6.393   4.552  12.255 -0.5753 -0.2669  0.3001
17211TIP3    H173048   6.450   4.622  12.288 -0.0970 -0.6015  0.1906
17211TIP3    H273049   6.445   4.472  12.266 -0.4467 -0.3960 -1.1905
17212TIP3   OH273050   5.811   4.288   5.527 -0.1501 -0.2763 -0.4065
17212TIP3    H173051   5.898   4.268   5.562 -0.0291  0.5810 -0.1995
17212TIP3    H273052   5.812   4.383   5.514 -0.7501 -0.3778 -1.2430
17213TIP3   OH273053   2.800   1.664   5.790 -0.3610 -0.8516 -0.1031
17213TIP3    H173054   2.765   1.711   5.714  1.7458  0.5480 -0.2408
17213TIP3    H273055   2.747   1.695   5.864  1.6509  2.6353 -0.0104
17214TIP3   OH273056   6.652   5.252  10.919  0.2326 -0.4163  0.3357
17214TIP3    H173057   6.745   5.262  10.939  0.0311 -1.6031  1.9899
17214TIP3    H273058   6.607   5.263  11.004 -1.2477  1.3409 -0.6295
17215TIP3   OH273059   1.234   0.377  12.716 -0.1138  0.1171 -0.5347
17215TIP3    H173060   1.244   0.464  12.677 -0.8786 -0.7320 -2.6743
17215TIP3    H273061   1.212   0.320  12.643 -2.0201 -1.4518  1.1892
17216TIP3   OH273062   0.226   0.731  16.462 -0.7111  0.4162 -0.8370
17216TIP3    H173063   0.262   0.644  16.478 -1.8441 -0.0319 -0.6761
17216TIP3    H273064   0.303   0.788  16.454  0.0519 -0.6696 -1.4025
17217TIP3   OH273065   3.588   3.344  11.497 -0.1494 -0.2129  0.0822
17217TIP3    H173066   3.578   3.435  11.524  0.3218 -0.1864  0.1762
17217TIP3    H273067   3.513   3.327  11.440  0.6673  0.7360 -1.3022
17218TIP3   OH273068   2.827   5.813  14.953 -0.5491 -0.7686 -0.1846
17218TIP3    H173069   2.799   5.759  15.027  0.6670 -1.5296 -0.2569
17218TIP3    H273070   2.921   5.825  14.967 -0.6904  0.7635 -0.5441
17219TIP3   OH273071   2.111   5.689   2.011 -0.4386  0.0727  0.3411
17219TIP3    H173072   2.202   5.705   2.034  0.5174 -0.8608 -2.4905
17219TIP3    H273073   2.109   5.598   1.981 -2.1875  0.2336 -0.1022
17220TIP3   OH273074   1.241   1.402   1.307 -0.2396  0.2738  0.1669
17220TIP3    H173075   1.334   1.386   1.290  0.3877  0.7310  2.8182
17220TIP3    H273076   1.231   1.497   1.294 -0.2808  0.2558  0.0701
17221TIP3   OH273077   1.458   6.252  14.176  0.3185  0.2080 -0.6949
17221TIP3    H173078   1.538   6.221  14.135  1.0663 -1.1354  1.6753
17221TIP3    H273079   1.453   6.345  14.153  1.7743 -0.0330 -2.0559
17222TIP3   OH273080   5.644   3.534   0.444  0.1345 -0.2335 -0.5863
17222TIP3    H173081   5.657   3.504   0.534  0.8045 -0.6232 -0.8011
17222TIP3    H273082   5.696   3.614   0.438  0.5420 -0.5117 -0.7831
17223TIP3   OH273083   1.042   4.891  15.630 -0.3963  0.1908 -0.3798
17223TIP3    H173084   1.003   4.923  15.712  1.8665  0.0236  0.8138
17223TIP3    H273085   1.131   4.864  15.655 -0.5842 -2.4500 -2.3380
17224TIP3   OH273086   2.961   3.085   4.897 -0.3984  0.1945 -0.2577
17224TIP3    H173087   2.899   3.083   4.970 -0.0645  0.5630  0.0391
17224TIP3    H273088   3.017   3.160   4.916  0.1779 -0.1796 -0.4855
17225TIP3   OH273089   5.263   1.337   2.672 -0.6076  0.0262 -0.7595
17225TIP3    H173090   5.171   1.356   2.653  0.0044  1.4738 -2.4725
17225TIP3    H273091   5.309   1.366   2.593  1.4581  0.5913  0.6406
17226TIP3   OH273092   0.261   0.211  16.917  0.0547  0.1010  0.6700
17226TIP3    H173093   0.301   0.126  16.896  0.6465  0.1326  1.6454
17226TIP3    H273094   0.307   0.240  16.996 -1.4885  0.4332  1.4541
17227TIP3   OH273095   4.925   6.268   3.160  0.2071  0.5820 -0.2977
17227TIP3    H173096   4.929   6.218   3.078  0.7980  0.7247 -0.3581
17227TIP3    H273097   4.991   6.336   3.150  0.1693  0.6990  0.2324
17228TIP3   OH273098   2.626   4.798   0.680  0.4259  0.1184  0.4630
17228TIP3    H173099   2.631   4.723   0.739 -1.1929 -0.9032 -0.6444
17228TIP3    H273100   2.695   4.782   0.615  0.7015  0.0893  0.7584
17229TIP3   OH273101   4.548   1.399   4.616 -0.0897 -0.2801 -0.4508
17229TIP3    H173102   4.615   1.337   4.589  0.6643  0.4195 -0.2153
17229TIP3    H273103   4.597   1.475   4.648 -0.9880  0.4534 -0.7679
17230TIP3   OH273104   1.408   6.229  11.714  0.5420 -0.2441  0.0095
17230TIP3    H173105   1.468   6.172  11.665 -0.8150 -0.4732 -1.4411
17230TIP3    H273106   1.331   6.174  11.731 -1.0130  1.2822 -1.8710
17231TIP3   OH273107   1.143   3.512  16.359  0.3614 -0.0052 -0.1113
17231TIP3    H173108   1.207   3.533  16.427  0.6334 -0.1613 -0.3193
17231TIP3    H273109   1.156   3.419  16.340  0.7706  0.2024 -0.8761
17232TIP3   OH273110   6.676   2.178   5.740 -0.2489 -0.1184 -0.3675
17232TIP3    H173111   6.616   2.243   5.701 -1.0433 -0.7181 -0.1654
17232TIP3    H273112   6.715   2.223   5.814 -2.7103 -0.6610  1.3068
17233TIP3   OH273113   0.728   0.850   3.853 -0.1627 -0.0416 -0.4764
17233TIP3    H173114   0.719   0.922   3.791 -0.9324 -1.1406 -1.6763
17233TIP3    H273115   0.731   0.892   3.939 -2.0914  1.3189 -1.0552
17234TIP3   OH273116   6.661   6.718  17.232  0.2719 -0.1485 -0.1489
17234TIP3    H173117   6.689   6.781  17.165  0.3958  0.7867  0.7703
17234TIP3    H273118   6.739   6.664  17.248  0.6922  0.6108  0.3524
17235TIP3   OH273119   4.475   5.683  16.887 -0.0863  0.1078 -0.4016
17235TIP3    H173120   4.407   5.621  16.914  0.6111 -0.0835  0.9315
17235TIP3    H273121   4.519   5.707  16.968  0.3823  1.4941 -1.0521
17236TIP3   OH273122   2.018   1.194  16.152 -0.1607 -0.0008 -0.1409
17236TIP3    H173123   2.087   1.202  16.218  2.7346  0.2901 -3.1042
17236TIP3    H273124   1.989   1.103  16.158  0.4979 -0.1339  1.0770
17237TIP3   OH273125   2.961   3.404  14.026  0.3767 -0.0803  0.6171
17237TIP3    H173126   2.942   3.484  13.977  1.9262 -0.0014  0.1015
17237TIP3    H273127   3.023   3.432  14.094 -0.3728 -0.5272  1.4836
17238TIP3   OH273128   0.261   4.606  14.533  0.2798  0.0146 -0.3547
17238TIP3    H173129   0.347   4.632  14.502  1.0413 -0.2959  1.4688
17238TIP3    H273130   0.221   4.688  14.564 -0.1351  0.1750 -1.2888
17239TIP3   OH273131   0.487   1.963   1.221  0.2149  0.0390  0.1611
17239TIP3    H173132   0.442   2.024   1.163  1.4674  0.1879 -0.6551
17239TIP3    H273133   0.491   1.881   1.171  0.6481 -0.0389  0.3229
17240TIP3   OH273134   4.474   6.695   1.644 -0.1398  0.2533 -0.0142
17240TIP3    H173135   4.449   6.603   1.632 -0.1170  0.0473  1.4245
17240TIP3    H273136   4.528   6.715   1.568  2.5283 -1.9088  1.2347
17241TIP3   OH273137   5.189   3.694  11.336  0.6326 -0.0368  0.7198
17241TIP3    H173138   5.157   3.648  11.258  2.4846 -1.7053  0.8995
17241TIP3    H273139   5.217   3.779  11.303  0.0058 -0.1716 -0.1812
17242TIP3   OH273140   1.601   3.469  12.863  0.2201 -0.1038  0.3976
17242TIP3    H173141   1.635   3.402  12.804 -0.8601  0.4289 -0.8469
17242TIP3    H273142   1.656   3.545  12.847  0.3720 -0.1760  0.5812
17243TIP3   OH273143   2.043   3.427   3.314 -0.2704 -0.4833  0.6414
17243TIP3    H173144   1.990   3.430   3.394  0.8511 -0.4907  1.4142
17243TIP3    H273145   2.014   3.503   3.263 -0.8445 -0.3468  1.1641
17244TIP3   OH273146   1.836   1.104  13.699 -0.5835  0.0542  0.1088
17244TIP3    H173147   1.761   1.046  13.709 -0.3376 -0.7088 -2.1787
17244TIP3    H273148   1.907   1.060  13.746 -1.4194  0.5283  1.8410
17245TIP3   OH273149   3.007   5.251   4.157  0.1412 -0.1637  0.3392
17245TIP3    H173150   3.079   5.276   4.099  0.3576 -0.0894  0.6382
17245TIP3    H273151   3.039   5.174   4.203 -1.1565 -2.0650 -1.8008
17246TIP3   OH273152   4.453   1.529   1.284 -0.6345  0.6983  0.1146
17246TIP3    H173153   4.529   1.481   1.316 -2.1205 -1.2285  0.8470
17246TIP3    H273154   4.415   1.471   1.217 -1.5652  1.5444 -0.1007
17247TIP3   OH273155   2.578   0.143  13.509  0.2133 -0.5704 -0.1163
17247TIP3    H173156   2.539   0.216  13.461 -0.9336 -0.1381  1.4566
17247TIP3    H273157   2.519   0.069  13.493  0.7424 -0.8685 -0.7383
17248TIP3   OH273158   1.149   0.057   3.798 -0.4462  0.7471 -0.3306
17248TIP3    H173159   1.138   0.134   3.854  0.3816  1.6110 -1.3453
17248TIP3    H273160   1.244   0.048   3.788 -0.6097  1.5581 -2.8954
17249TIP3   OH273161   4.746   2.213  12.852 -0.5619 -0.2759 -0.3600
17249TIP3    H173162   4.666   2.166  12.830 -1.3823  1.3332 -0.9281
17249TIP3    H273163   4.754   2.280  12.784  0.7373  0.2065  0.2405
17250TIP3   OH273164   3.620   5.441   3.577 -0.0390  0.2216  0.2619
17250TIP3    H173165   3.628   5.505   3.648  2.2475 -1.0603  1.2034
17250TIP3    H273166   3.674   5.477   3.506  1.0771 -0.5475  0.7144
17251TIP3   OH273167   1.792   3.856  11.804  0.0448 -0.3116 -0.6926
17251TIP3    H173168   1.703   3.889  11.795 -0.7328 -1.4612  2.0261
17251TIP3    H273169   1.782   3.760  11.804  1.0650 -0.4443  1.0858
17252TIP3   OH273170   1.130   3.920   2.720 -0.3084 -0.4651  0.3582
17252TIP3    H173171   1.127   3.921   2.816  0.1201  1.7070  0.3684
17252TIP3    H273172   1.140   4.011   2.695  0.6699 -1.1104 -1.7422
17253TIP3   OH273173   6.162   2.733  12.385 -0.3649  0.4314  0.1009
17253TIP3    H173174   6.225   2.789  12.430 -0.8689  0.7507  0.4309
17253TIP3    H273175   6.160   2.766  12.295  2.3573 -1.6867 -0.7956
17254TIP3   OH273176   4.191   3.961   4.125  0.0677 -0.3176  0.3624
17254TIP3    H173177   4.188   4.023   4.198 -0.4191  0.1446 -0.0482
17254TIP3    H273178   4.210   4.016   4.049  1.4456 -0.9056  0.2679
17255TIP3   OH273179   4.783   4.914  14.580  0.1002  0.2923  0.2014
17255TIP3    H173180   4.821   4.826  14.577 -3.4619 -1.3515  1.0778
17255TIP3    H273181   4.720   4.910  14.651 -0.4132  3.4768 -0.0244
17256TIP3   OH273182   5.844   3.431   4.302  0.7231 -0.0668  0.4221
17256TIP3    H173183   5.792   3.396   4.373 -1.3965 -0.0247 -1.0633
17256TIP3    H273184   5.873   3.517   4.333 -1.0837  0.4162  0.8367
17257TIP3   OH273185   5.061   5.912   4.517  0.1810 -0.2317  0.6521
17257TIP3    H173186   4.983   5.870   4.554  1.4605 -2.2604  1.1873
17257TIP3    H273187   5.074   5.868   4.433  0.0423  0.9822 -0.0154
17258TIP3   OH273188   4.666   6.195   2.560  0.4743  0.1076 -0.7100
17258TIP3    H173189   4.590   6.212   2.617  0.5433 -2.3717  0.1765
17258TIP3    H273190   4.742   6.214   2.615  0.5264  0.5357 -0.9256
17259TIP3   OH273191   1.543   1.876  12.107 -0.1662 -0.4622  0.0567
17259TIP3    H173192   1.585   1.822  12.174 -2.5681  1.5765  3.4043
17259TIP3    H273193   1.615   1.914  12.058  1.6044 -4.4066 -0.5520
17260TIP3   OH273194   4.257   3.756  16.133  0.6889  0.5378  0.2403
17260TIP3    H173195   4.285   3.828  16.076  0.5456  0.5475  0.1812
17260TIP3    H273196   4.327   3.748  16.198  0.4084  1.1435  0.6203
17261TIP3   OH273197   6.301   1.041   5.784 -0.4251 -0.1637  0.1860
17261TIP3    H173198   6.242   1.114   5.802  0.7900  0.6031  1.1319
17261TIP3    H273199   6.387   1.071   5.814  0.0560 -2.0420  0.7723
17262TIP3   OH273200   2.975   1.346   2.435  0.1686 -0.0875  0.0927
17262TIP3    H173201   2.975   1.376   2.344  2.2149  1.9640  0.7132
17262TIP3    H273202   3.067   1.352   2.462 -0.4168 -0.6285  2.3030
17263TIP3   OH273203   4.097   6.669   5.225  0.1042 -0.3626 -0.5330
17263TIP3    H173204   4.042   6.593   5.244  0.5000 -0.6240 -0.4216
17263TIP3    H273205   4.050   6.743   5.264 -0.2736 -0.5535 -0.6266
17264TIP3   OH273206   1.485   2.107  16.444 -0.0425  0.1969  0.1060
17264TIP3    H173207   1.562   2.110  16.388 -1.3168  0.2908 -1.6894
17264TIP3    H273208   1.411   2.109  16.384 -1.4949  2.2404  1.8646
17265TIP3   OH273209   3.076   4.534  14.140  0.1831  0.0481 -0.0966
17265TIP3    H173210   3.077   4.555  14.047 -0.5859 -1.4027 -0.4474
17265TIP3    H273211   2.984   4.526  14.162  0.3246  1.2962  1.0182
17266TIP3   OH273212   2.547   5.475   2.652 -0.6176  0.6070  0.0892
17266TIP3    H173213   2.572   5.388   2.620  1.2000  2.0132 -2.4377
17266TIP3    H273214   2.463   5.493   2.608 -1.6320 -0.3524  1.5843
17267TIP3   OH273215   4.284   1.596   0.745  0.3240 -0.2105  0.0950
17267TIP3    H173216   4.312   1.547   0.668 -0.8017  0.0090 -0.4651
17267TIP3    H273217   4.360   1.650   0.768  0.9888 -0.9780 -0.2870
17268TIP3   OH273218   5.571   3.088   2.607  0.0928  0.5264 -0.2179
17268TIP3    H173219   5.515   3.159   2.575 -1.0301  0.0242  0.6146
17268TIP3    H273220   5.536   3.066   2.693  0.0086 -1.5068 -0.7460
17269TIP3   OH273221   3.113   1.440  13.916  0.0372 -0.8955 -0.2039
17269TIP3    H173222   3.080   1.522  13.878 -1.9740 -1.4059  0.3879
17269TIP3    H273223   3.194   1.423  13.868  1.5991  2.4734  1.0171
17270TIP3   OH273224   2.556   5.149   5.386 -0.2027  0.2363  1.0111
17270TIP3    H173225   2.626   5.088   5.411  1.0297  0.4632 -1.7031
17270TIP3    H273226   2.580   5.232   5.427 -0.2020 -0.3203  2.1341
17271TIP3   OH273227   6.020   2.644  16.234  0.1225  0.3970  0.5033
17271TIP3    H173228   6.085   2.574  16.239  0.8698  1.1270  1.1190
17271TIP3    H273229   6.050   2.701  16.163 -0.6662 -0.0857 -0.2215
17272TIP3   OH273230   6.564   1.436  14.460 -0.2846 -0.0051  0.1832
17272TIP3    H173231   6.626   1.486  14.408 -0.0062 -0.8652 -0.3249
17272TIP3    H273232   6.503   1.399  14.396 -1.3476  0.8542  0.6770
17273TIP3   OH273233   0.698   6.574   1.659  0.1177 -0.5157 -0.7886
17273TIP3    H173234   0.765   6.616   1.603 -1.1134  1.6827 -0.6554
17273TIP3    H273235   0.686   6.488   1.620  1.1077  0.0579 -2.4306
17274TIP3   OH273236   0.938   1.331  16.552 -0.0875 -0.2499 -0.1592
17274TIP3    H173237   0.978   1.345  16.466 -1.0345  4.9699  0.0776
17274TIP3    H273238   0.847   1.308  16.532 -0.5584  1.8683 -0.6648
17275TIP3   OH273239   2.196   5.141   0.261  0.7312 -0.1399  0.4696
17275TIP3    H173240   2.227   5.230   0.278 -1.9051  0.9711 -0.2303
17275TIP3    H273241   2.204   5.131   0.166 -0.1760 -0.1711  0.3953
17276TIP3   OH273242   4.503   0.045  15.996  0.3203  0.1300 -0.6350
17276TIP3    H173243   4.473   0.001  15.917 -0.9347  1.9684 -1.2165
17276TIP3    H273244   4.522   0.135  15.968 -1.1753  1.0936  1.3494
17277TIP3   OH273245   4.410   0.839   1.853 -0.3673  0.5816  0.1050
17277TIP3    H173246   4.425   0.766   1.793 -0.1983 -0.7701  1.7611
17277TIP3    H273247   4.436   0.916   1.803 -0.5894 -0.4648 -1.6888
17278TIP3   OH273248   4.055   0.564   6.060 -0.0181  0.3791 -0.2694
17278TIP3    H173249   3.981   0.552   6.121  0.1626  1.0669  0.0924
17278TIP3    H273250   4.065   0.479   6.018  0.0035 -0.1847  0.8399
17279TIP3   OH273251   3.469   5.694  15.014 -0.1150 -0.0347 -0.2104
17279TIP3    H173252   3.410   5.684  14.939  1.1152  1.3491 -1.3795
17279TIP3    H273253   3.552   5.657  14.984  0.0536 -0.5801  0.9078
17280TIP3   OH273254   2.390   5.006   4.924  0.6438  0.0077  0.5121
17280TIP3    H173255   2.445   4.928   4.912 -0.5321 -0.9329  1.2296
17280TIP3    H273256   2.309   4.986   4.879 -0.3412  0.1082  2.2110
17281TIP3   OH273257   5.215   4.892  11.089  0.3817 -0.5839  0.6417
17281TIP3    H173258   5.295   4.879  11.037 -0.9192 -1.5088 -1.1752
17281TIP3    H273259   5.205   4.987  11.093 -0.9221 -0.4843 -3.1307
17282TIP3   OH273260   3.188   6.271  14.416  0.4311 -0.0475 -0.0801
17282TIP3    H173261   3.226   6.184  14.401 -2.5851 -1.1388 -1.8615
17282TIP3    H273262   3.132   6.286  14.340 -2.4482  1.5887  2.2495
17283TIP3   OH273263   1.333   5.324   3.209 -0.1142 -0.4393 -0.0064
17283TIP3    H173264   1.399   5.393   3.210 -0.3718 -0.1850 -0.5942
17283TIP3    H273265   1.275   5.347   3.137  1.0222 -2.4405 -1.5935
17284TIP3   OH273266   1.824   4.867  16.612 -0.8468 -0.4801 -0.0948
17284TIP3    H173267   1.904   4.918  16.599 -2.6532  1.7951 -3.0547
17284TIP3    H273268   1.786   4.900  16.693 -0.2448  0.4678 -0.1983
17285TIP3   OH273269   3.719   3.583   3.408 -0.3145  0.2467 -0.0644
17285TIP3    H173270   3.662   3.654   3.440 -0.1927  0.4828 -0.3716
17285TIP3    H273271   3.730   3.601   3.315 -0.9877 -0.6703 -0.3207
17286TIP3   OH273272   0.450   0.236  11.130 -0.2460  0.1261  0.2463
17286TIP3    H173273   0.471   0.237  11.036  2.0422 -0.2408  0.7231
17286TIP3    H273274   0.437   0.328  11.152  1.5439  0.4471  0.0362
17287TIP3   OH273275   4.263   1.649  13.054 -0.1316  0.5352  0.5544
17287TIP3    H173276   4.269   1.579  13.119  0.1751  1.4699  1.5497
17287TIP3    H273277   4.286   1.607  12.971  0.4293 -0.4543  1.1981
17288TIP3   OH273278   0.838   2.311  15.935  0.4649 -0.1363  0.0967
17288TIP3    H173279   0.917   2.264  15.907  0.5608  0.0691  0.0220
17288TIP3    H273280   0.780   2.308  15.859 -0.0201 -1.1951  0.4930
17289TIP3   OH273281   6.616   3.209  16.708  0.1595  0.3392  0.3667
17289TIP3    H173282   6.675   3.134  16.701  0.8479  0.9357 -0.2226
17289TIP3    H273283   6.600   3.236  16.617  1.2852  1.9755  0.6431
17290TIP3   OH273284   0.452   1.923   3.316  0.5178  0.1630  0.4884
17290TIP3    H173285   0.366   1.952   3.348  0.1548  0.6810 -0.9316
17290TIP3    H273286   0.434   1.843   3.267  0.8124  0.4380 -0.0684
17291TIP3   OH273287   5.211   0.787   0.252  0.0783  0.1111  0.3756
17291TIP3    H173288   5.239   0.718   0.313 -1.3813  0.1106  1.0522
17291TIP3    H273289   5.225   0.868   0.300 -1.0627  0.1120  0.6986
17292TIP3   OH273290   0.444   0.272   4.973  0.1341  0.2052 -0.2398
17292TIP3    H173291   0.480   0.352   4.933  0.2138  0.1556 -0.2678
17292TIP3    H273292   0.371   0.303   5.027  1.7994  0.6093  1.8479
17293TIP3   OH273293   3.911   2.123  10.498 -0.1083  0.2555 -0.1992
17293TIP3    H173294   3.836   2.089  10.450 -1.8375  2.3484  0.9301
17293TIP3    H273295   3.886   2.212  10.522  2.9959  1.2500 -0.3493
17294TIP3   OH273296   5.721   3.123   3.141  0.3018  0.0532 -0.2887
17294TIP3    H173297   5.724   3.063   3.066  2.0323  0.7853 -0.8404
17294TIP3    H273298   5.703   3.208   3.102  2.2786  0.6221 -0.0119
17295TIP3   OH273299   1.890   1.953  13.405 -0.4449 -0.4620 -0.1000
17295TIP3    H173300   1.901   1.911  13.491 -0.3805 -0.4352 -0.0965
17295TIP3    H273301   1.924   2.041  13.417  2.4982 -1.4177 -0.9979
17296TIP3   OH273302   0.776   1.784   0.959  0.6810 -0.3284  0.1207
17296TIP3    H173303   0.854   1.816   1.003  1.1274 -0.0912 -0.8257
17296TIP3    H273304   0.787   1.812   0.868 -0.8764  0.4097  0.1414
17297TIP3   OH273305   1.363   3.812   1.448 -0.0134  0.7629  0.1950
17297TIP3    H173306   1.377   3.903   1.424 -0.4483  1.0562  1.0326
17297TIP3    H273307   1.451   3.777   1.462  0.1159  1.3190  0.8176
17298TIP3   OH273308   3.223   3.470   2.104  0.0074 -0.0375  0.3295
17298TIP3    H173309   3.246   3.388   2.147 -0.7511 -0.5346 -0.1872
17298TIP3    H273310   3.163   3.444   2.034 -0.9342  1.0574  0.7164
17299TIP3   OH273311   0.208   2.832  16.530 -0.1197 -0.6917  0.0462
17299TIP3    H173312   0.228   2.765  16.464 -1.0506 -0.7786 -0.1595
17299TIP3    H273313   0.245   2.912  16.495 -1.3443 -0.5633 -1.0046
17300TIP3   OH273314   1.559   6.720   1.137 -0.3482  0.0256  0.4698
17300TIP3    H173315   1.620   6.779   1.180 -0.5915  0.2835  0.4561
17300TIP3    H273316   1.613   6.644   1.113  0.0435  0.4076  0.1378
17301TIP3   OH273317   5.167   4.958  14.062  0.1244  0.0399  0.0342
17301TIP3    H173318   5.132   4.915  14.141 -0.3769  1.7695  0.7839
17301TIP3    H273319   5.215   4.889  14.017 -3.0064 -2.0631 -0.2759
17302TIP3   OH273320   4.058   6.713   0.640  0.5735 -0.0654 -0.4667
17302TIP3    H173321   4.083   6.664   0.719 -0.5503 -1.0171 -0.6779
17302TIP3    H273322   4.025   6.796   0.673 -2.1762 -1.3963  0.2765
17303TIP3   OH273323   3.108   2.088   2.688  0.4509  0.0293  0.2680
17303TIP3    H173324   3.202   2.076   2.699 -0.0609 -1.9575  3.1503
17303TIP3    H273325   3.087   2.165   2.741  0.7066  1.6898 -1.9772
17304TIP3   OH273326   2.648   2.574  13.012  0.5767 -0.0471 -0.6172
17304TIP3    H173327   2.678   2.526  12.935 -0.1639 -0.3960 -0.6988
17304TIP3    H273328   2.631   2.506  13.078  0.5120  0.1901 -0.3869
17305TIP3   OH273329   6.503   0.084  12.902  0.8856 -0.2747  0.1424
17305TIP3    H173330   6.559   0.044  12.968  0.2506 -0.5803  0.5020
17305TIP3    H273331   6.465   0.160  12.945  0.9618 -0.1111 -0.0775
17306TIP3   OH273332   0.141   2.851   4.585 -0.3066  0.4954  0.0061
17306TIP3    H173333   0.082   2.924   4.601 -0.9344  0.2285 -0.9922
17306TIP3    H273334   0.154   2.851   4.490  0.8192  0.1770  0.1473
17307TIP3   OH273335   3.514   5.507  12.855  0.3024  0.2363  0.0247
17307TIP3    H173336   3.473   5.454  12.787  0.4145  1.1587 -0.7559
17307TIP3    H273337   3.572   5.446  12.901  1.1290 -0.1148 -1.4621
17308TIP3   OH273338   3.554   2.541   0.733 -0.1519  0.3650 -0.1824
17308TIP3    H173339   3.644   2.519   0.710 -0.0748  1.4566 -0.9651
17308TIP3    H273340   3.511   2.559   0.649 -0.9194  0.5202  0.2361
17309TIP3   OH273341   3.067   5.220  15.981 -0.4479 -0.1446 -0.0428
17309TIP3    H173342   3.054   5.132  16.017 -1.7141  0.5537  1.2574
17309TIP3    H273343   3.100   5.205  15.893 -2.2777 -1.9768 -0.4602
17310TIP3   OH273344   3.104   1.624  12.081 -0.1049 -0.7954 -0.0668
17310TIP3    H173345   3.072   1.668  12.002 -0.8561 -2.4581 -0.7011
17310TIP3    H273346   3.091   1.689  12.150  1.0903  0.8987 -1.3751
17311TIP3   OH273347   5.460   4.705   3.381 -0.2466 -1.0285  0.5398
17311TIP3    H173348   5.443   4.659   3.299 -0.3679 -0.2935  0.1452
17311TIP3    H273349   5.429   4.794   3.365  2.2004 -0.1406  0.4430
17312TIP3   OH273350   6.035   2.211  16.280  0.5288  0.4058 -0.3315
17312TIP3    H173351   5.946   2.189  16.254  0.3473 -0.4017  0.9292
17312TIP3    H273352   6.039   2.307  16.276 -0.8412  0.5310  1.0035
17313TIP3   OH273353   1.402   3.018   2.746 -0.0875  0.1963 -0.3416
17313TIP3    H173354   1.493   2.999   2.725  0.4816  0.3434  1.8979
17313TIP3    H273355   1.405   3.101   2.794 -1.1926 -0.7156  1.3640
17314TIP3   OH273356   5.780   5.897   4.911 -0.2697  0.4125 -0.6697
17314TIP3    H173357   5.755   5.987   4.888  1.0514  0.8535 -0.4278
17314TIP3    H273358   5.845   5.873   4.845  0.0006 -0.0543 -0.2370
17315TIP3   OH273359   3.286   4.237   1.388  0.3502 -1.0206 -0.0949
17315TIP3    H173360   3.376   4.233   1.358 -0.0372 -0.5496 -1.3751
17315TIP3    H273361   3.234   4.217   1.310 -0.6613 -0.7338  0.4930
17316TIP3   OH273362   2.191   5.608  14.100  0.1011  0.0785  0.1837
17316TIP3    H173363   2.211   5.681  14.042  0.1524 -1.4788 -1.8157
17316TIP3    H273364   2.102   5.626  14.131 -0.2469  0.5217 -1.0424
17317TIP3   OH273365   1.797   3.630  14.310 -0.1320  0.0296 -0.0408
17317TIP3    H173366   1.788   3.704  14.251  0.9878 -0.5140 -0.9157
17317TIP3    H273367   1.717   3.578  14.296 -0.1399  0.2075 -0.6408
17318TIP3   OH273368   4.717   2.656   6.441 -0.1101  0.1314  0.2842
17318TIP3    H173369   4.653   2.586   6.426 -1.0274  1.2991 -1.4428
17318TIP3    H273370   4.692   2.693   6.526 -1.4431  0.2292 -0.1323
17319TIP3   OH273371   0.402   3.046  13.121  0.6163 -0.8049 -0.3331
17319TIP3    H173372   0.427   2.957  13.148 -0.0199 -1.0505 -0.5337
17319TIP3    H273373   0.342   3.075  13.190  2.5789  0.3427  0.9191
17320TIP3   OH273374   5.866   4.475  14.472 -0.0610  0.4397 -0.2450
17320TIP3    H173375   5.918   4.555  14.482  0.0623  0.2988  0.2524
17320TIP3    H273376   5.792   4.501  14.418  0.2363  0.7765 -0.4923
17321TIP3   OH273377   0.222   2.204  11.251 -0.6751  0.1207  0.1886
17321TIP3    H173378   0.207   2.135  11.186  0.3852 -0.5757  0.6683
17321TIP3    H273379   0.316   2.201  11.268 -0.6415  1.6104  0.3105
17322TIP3   OH273380   0.855   2.829  12.565  0.6363 -0.1202 -0.1075
17322TIP3    H173381   0.895   2.754  12.521  1.8950 -1.0486  2.4894
17322TIP3    H273382   0.808   2.790  12.640 -1.8560  1.3473 -0.8581
17323TIP3   OH273383   5.521   0.708  12.732  0.2758 -0.0952  0.2968
17323TIP3    H173384   5.505   0.761  12.810  0.6539 -0.3172  0.5280
17323TIP3    H273385   5.527   0.771  12.660 -1.0830  0.0375  0.2872
17324TIP3   OH273386   0.408   0.891   3.716  0.8709 -0.8180 -0.0927
17324TIP3    H173387   0.502   0.870   3.720  1.0460 -0.3202 -1.2687
17324TIP3    H273388   0.389   0.932   3.800  1.9683  0.0608 -0.2588
17325TIP3   OH273389   2.344   0.286   3.757  0.7137 -0.2851 -0.4858
17325TIP3    H173390   2.331   0.228   3.682 -2.5428 -1.8475  1.1760
17325TIP3    H273391   2.261   0.332   3.766  1.5908  1.0155  1.2479
17326TIP3   OH273392   4.207   5.502   5.521  0.2869 -0.2169 -0.2990
17326TIP3    H173393   4.182   5.545   5.439  2.2834 -1.9341 -1.8267
17326TIP3    H273394   4.223   5.575   5.582 -1.5960  1.0582 -1.2755
17327TIP3   OH273395   6.589   4.047  12.348 -0.1214 -0.5899  0.2171
17327TIP3    H173396   6.615   4.079  12.434 -2.5534 -0.8999  1.0974
17327TIP3    H273397   6.644   4.097  12.287 -0.9052  2.3080  1.7622
17328TIP3   OH273398   6.708   0.623   1.168 -0.3679 -0.0067  0.1236
17328TIP3    H173399   6.721   0.550   1.108 -2.1641 -0.7162  0.5660
17328TIP3    H273400   6.638   0.594   1.227 -1.2482  2.1250  0.1890
17329TIP3   OH273401   1.749   5.730  15.170  0.0959  0.2079 -0.0454
17329TIP3    H173402   1.726   5.637  15.162  2.7356 -0.4477 -0.6071
17329TIP3    H273403   1.817   5.732  15.238 -0.6842  1.8614  0.6952
17330TIP3   OH273404   2.818   3.102   3.001 -0.1427 -0.2576  0.0113
17330TIP3    H173405   2.790   3.122   3.091 -0.8236  1.2864 -0.5147
17330TIP3    H273406   2.802   3.009   2.991 -0.4009 -0.3767  1.3898
17331TIP3   OH273407   4.705   6.592  12.051  0.3405 -0.1681 -0.2409
17331TIP3    H173408   4.771   6.544  12.100 -0.0638  0.4221  0.8947
17331TIP3    H273409   4.690   6.672  12.101 -1.6046 -0.5291 -0.1800
17332TIP3   OH273410   4.394   2.928   3.971  0.4065  0.0856  0.2203
17332TIP3    H173411   4.476   2.879   3.967  0.5642  0.1965  1.6158
17332TIP3    H273412   4.420   3.015   4.001 -0.3188 -0.1806  1.6767
17333TIP3   OH273413   4.623   4.804   4.335 -0.4409 -0.1231 -0.1163
17333TIP3    H173414   4.541   4.784   4.380 -1.8794 -1.7903 -3.3802
17333TIP3    H273415   4.691   4.775   4.396 -2.3436 -2.7429  0.8097
17334TIP3   OH273416   2.657   3.897  13.992 -0.1072  0.0205 -0.0627
17334TIP3    H173417   2.625   3.861  13.909  1.0596 -0.3038 -0.3909
17334TIP3    H273418   2.588   3.880  14.055 -0.5417 -0.7147 -0.7368
17335TIP3   OH273419   4.024   3.370   4.678  0.5175  0.3791  0.5179
17335TIP3    H173420   3.942   3.321   4.693  0.2563  0.4728 -0.5592
17335TIP3    H273421   3.995   3.460   4.661  0.7793  0.2393 -0.7072
17336TIP3   OH273422   3.405   4.111  17.009  0.7128 -0.3787  0.3754
17336TIP3    H173423   3.369   4.048  16.946  0.3608  0.7067 -0.5261
17336TIP3    H273424   3.335   4.176  17.021  1.9252  1.1392 -0.5152
17337TIP3   OH273425   3.281   0.307  15.050  0.2675 -0.1387 -0.0787
17337TIP3    H173426   3.326   0.391  15.040 -0.4133  0.2794  0.3616
17337TIP3    H273427   3.347   0.241  15.026  1.1784  0.4543  0.7930
17338TIP3   OH273428   1.490   1.808   2.581 -0.0921 -0.7084 -0.3720
17338TIP3    H173429   1.418   1.866   2.556 -0.4484 -1.7786 -1.9252
17338TIP3    H273430   1.560   1.868   2.609 -0.8344  0.4310 -0.8906
17339TIP3   OH273431   3.354   0.438   3.675 -0.2820  0.3616  0.7197
17339TIP3    H173432   3.357   0.463   3.583 -2.9837  1.6740  0.9471
17339TIP3    H273433   3.261   0.443   3.698  0.4552  0.8287  3.7315
17340TIP3   OH273434   4.048   2.773  11.937 -1.1800  0.0781 -0.4303
17340TIP3    H173435   4.132   2.729  11.925 -2.0935 -1.5504 -1.1041
17340TIP3    H273436   4.013   2.784  11.848 -1.5443  0.9970 -0.1774
17341TIP3   OH273437   2.489   4.774   4.214 -0.2612  0.3322 -0.1730
17341TIP3    H173438   2.496   4.758   4.120  0.7095  0.2547 -0.0927
17341TIP3    H273439   2.437   4.854   4.221 -1.3013 -0.2821 -0.7269
17342TIP3   OH273440   6.503   2.163   0.667 -0.0122  0.4732 -0.4621
17342TIP3    H173441   6.476   2.177   0.576 -1.7052  1.2088  0.1391
17342TIP3    H273442   6.598   2.162   0.664 -0.0587  0.5543 -2.2407
17343TIP3   OH273443   0.632   6.685  17.112 -0.5054 -0.0882 -0.3084
17343TIP3    H173444   0.587   6.605  17.141 -1.6675  0.2608 -1.1351
17343TIP3    H273445   0.613   6.749  17.181  2.6609 -1.2389  1.7391
17344TIP3   OH273446   0.339   2.654  11.257 -0.0068 -0.6005 -0.2143
17344TIP3    H173447   0.388   2.692  11.329 -1.4410 -2.4165  1.8051
17344TIP3    H273448   0.365   2.704  11.180  1.3331  1.5899  1.6149
17345TIP3   OH273449   2.211   3.083   5.981  0.1495 -0.1034  0.5370
17345TIP3    H173450   2.136   3.113   6.031 -0.0719 -1.1473  0.8493
17345TIP3    H273451   2.201   2.987   5.978 -0.1623 -0.0358 -1.9642
17346TIP3   OH273452   5.577   2.508   5.023  0.1561 -0.3801  0.2483
17346TIP3    H173453   5.601   2.589   5.068  0.9733  0.2771 -1.3330
17346TIP3    H273454   5.496   2.530   4.977  1.4995  0.2335 -1.9195
17347TIP3   OH273455   4.800   4.096   4.735  0.2911 -0.0258  0.3748
17347TIP3    H173456   4.730   4.056   4.786 -0.1085 -0.1190 -0.2381
17347TIP3    H273457   4.877   4.093   4.792 -0.6420  1.8151  1.7996
17348TIP3   OH273458   4.284   0.486   0.960  0.4130 -0.4694  0.3429
17348TIP3    H173459   4.209   0.463   1.015  0.0121 -0.7667 -0.3189
17348TIP3    H273460   4.359   0.446   1.003 -0.0042 -1.3327  0.2713
17349TIP3   OH273461   6.285   5.834   0.334 -0.3889 -0.1867  0.3966
17349TIP3    H173462   6.294   5.739   0.338  0.0833 -0.1682 -0.1005
17349TIP3    H273463   6.334   5.859   0.255  1.1500  0.6798  1.6122
17350TIP3   OH273464   3.082   4.045  15.766 -0.3665 -0.5876  0.4609
17350TIP3    H173465   3.047   4.134  15.767 -0.2047 -0.5140 -0.2601
17350TIP3    H273466   3.174   4.055  15.742  0.1878 -0.7786  2.4023
17351TIP3   OH273467   1.457   0.409   3.489  0.4395  0.4471  0.1694
17351TIP3    H173468   1.466   0.480   3.426 -0.2285  0.2429 -0.1613
17351TIP3    H273469   1.501   0.334   3.449  1.6610  0.8313  0.7777
17352TIP3   OH273470   0.254   3.075  13.725 -0.5011 -0.4554  0.3365
17352TIP3    H173471   0.333   3.040  13.684 -1.2085 -0.4421 -1.0617
17352TIP3    H273472   0.287   3.129  13.797  0.8993  1.4650 -1.6669
17353TIP3   OH273473   4.086   0.088  10.948  0.1849  0.2332 -0.4428
17353TIP3    H173474   4.118   0.169  10.909  0.0136  0.1643 -0.7244
17353TIP3    H273475   4.110   0.020  10.886  0.5752  0.0320 -0.0772
17354TIP3   OH273476   4.769   6.087   0.883  0.1625  0.2350  0.0143
17354TIP3    H173477   4.727   6.169   0.908  2.7089  1.5901 -0.0249
17354TIP3    H273478   4.796   6.100   0.792  1.8246 -0.1126  0.4472
17355TIP3   OH273479   3.478   0.399  15.570  0.2183 -0.3920 -0.7182
17355TIP3    H173480   3.400   0.368  15.617  0.3640 -0.3264 -0.4374
17355TIP3    H273481   3.507   0.475  15.619  2.2453 -2.1826  0.9307
17356TIP3   OH273482   4.126   1.796   5.735 -0.0541  0.1804  0.3418
17356TIP3    H173483   4.179   1.789   5.656  0.0924  1.4355  0.3261
17356TIP3    H273484   4.078   1.713   5.739 -0.0209  0.0890 -1.0256
17357TIP3   OH273485   5.804   4.425  15.549 -0.0374 -0.0413  0.4449
17357TIP3    H173486   5.866   4.361  15.514  1.2153  0.0140  2.5247
17357TIP3    H273487   5.722   4.375  15.559  0.5772 -0.9724  0.8536
17358TIP3   OH273488   4.098   3.352  11.763  0.1130 -0.7475  1.0606
17358TIP3    H173489   4.029   3.418  11.772  1.3499  1.0240 -1.6837
17358TIP3    H273490   4.172   3.388  11.810  0.3296 -0.8994  0.8359
17359TIP3   OH273491   5.253   1.354   5.220 -0.1694 -0.2658  0.4395
17359TIP3    H173492   5.262   1.274   5.272  1.0662 -1.5916 -1.7181
17359TIP3    H273493   5.343   1.388   5.213 -0.0001 -1.1379 -2.3113
17360TIP3   OH273494   5.245   4.056   6.269 -0.0563  0.5212 -0.1497
17360TIP3    H173495   5.240   4.026   6.179 -0.5413  1.1883 -0.3498
17360TIP3    H273496   5.339   4.054   6.290 -0.1412 -1.7675  0.0834
17361TIP3   OH273497   3.673   3.866  11.209  0.6589  0.0325  0.2265
17361TIP3    H173498   3.668   3.798  11.142  1.2768  0.3499 -0.1570
17361TIP3    H273499   3.753   3.915  11.187 -1.0428  2.3869 -0.9554
17362TIP3   OH273500   0.609   5.473   3.014 -0.6000 -0.2133 -0.2732
17362TIP3    H173501   0.552   5.400   2.988 -0.6366  0.1071 -1.1223
17362TIP3    H273502   0.675   5.433   3.071 -3.0818 -0.1560  2.7371
17363TIP3   OH273503   3.198   3.675   3.127 -0.1951 -0.7294  0.1017
17363TIP3    H173504   3.139   3.686   3.052 -0.3771 -0.3151  0.3053
17363TIP3    H273505   3.268   3.738   3.111  0.0845 -1.0734 -0.0320
17364TIP3   OH273506   5.012   6.348  12.367 -0.1176 -0.0011 -0.4026
17364TIP3    H173507   5.104   6.328  12.384  0.2984  0.9043 -1.5349
17364TIP3    H273508   4.964   6.273  12.403  1.1139 -0.9052 -0.6063
17365TIP3   OH273509   4.934   1.683  11.716  0.0344 -0.3155 -0.5960
17365TIP3    H173510   4.954   1.694  11.623 -0.0577 -0.1483 -0.5959
17365TIP3    H273511   4.980   1.603  11.741 -0.6596 -0.8504 -0.9983
17366TIP3   OH273512   2.704   3.884   5.792  0.3212 -0.6320  0.4063
17366TIP3    H173513   2.747   3.821   5.734  0.2749 -0.7907  0.5430
17366TIP3    H273514   2.750   3.876   5.875  0.6607 -0.1063  0.2728
17367TIP3   OH273515   6.742   6.423   4.541 -0.1666 -0.4762 -0.3116
17367TIP3    H173516   6.650   6.414   4.516 -0.3349 -0.1492  0.1863
17367TIP3    H273517   6.790   6.379   4.471 -0.6793 -0.2498 -0.8080
17368TIP3   OH273518   4.191   6.028  11.440 -0.2320  0.2808 -0.0106
17368TIP3    H173519   4.101   6.002  11.420 -0.3595 -1.2744  2.2952
17368TIP3    H273520   4.236   5.945  11.457  1.4929  1.0765 -0.6218
17369TIP3   OH273521   0.121   0.059   5.211 -0.1887  0.3823  0.2794
17369TIP3    H173522   0.155   0.076   5.299 -1.0656  1.2733  0.4628
17369TIP3    H273523   0.137  -0.034   5.196 -1.2892 -0.1079  1.9576
17370TIP3   OH273524   2.915   0.175   4.694  0.8488 -0.0905  0.2470
17370TIP3    H173525   2.916   0.241   4.625  0.7521 -0.6197 -0.2706
17370TIP3    H273526   2.996   0.126   4.682  0.5739 -0.5301  0.1672
17371TIP3   OH273527   0.936   3.290   1.294 -0.5629 -0.8176 -0.1724
17371TIP3    H173528   0.931   3.383   1.317  0.8437 -0.6205 -0.6478
17371TIP3    H273529   0.863   3.277   1.233  0.5579  0.5198 -1.8666
17372TIP3   OH273530   4.989   6.356  11.506 -0.6552 -0.1392  0.2611
17372TIP3    H173531   5.031   6.358  11.420  0.8415 -1.5821  0.9441
17372TIP3    H273532   4.954   6.444  11.518  0.3973  0.4917 -1.1998
17373TIP3   OH273533   5.733   6.519   3.268 -0.1970 -0.2503 -0.7339
17373TIP3    H173534   5.799   6.456   3.239  0.5370  0.7891 -1.3397
17373TIP3    H273535   5.783   6.598   3.289 -1.2304  0.4901 -1.0231
17374TIP3   OH273536   4.216   1.936   1.968  0.5706  0.4237 -0.1835
17374TIP3    H173537   4.181   1.940   2.057  0.8306  0.7840 -0.0935
17374TIP3    H273538   4.149   1.889   1.917  0.5745 -0.0669  0.2710
17375TIP3   OH273539   4.740   5.824   3.734  0.1899 -0.8013 -0.1099
17375TIP3    H173540   4.790   5.756   3.689 -2.0999 -1.6136 -1.5233
17375TIP3    H273541   4.674   5.776   3.784  0.7077  0.2497  1.6357
17376TIP3   OH273542   0.578   1.083   3.424 -0.3553 -0.6273 -0.1958
17376TIP3    H173543   0.487   1.055   3.437  0.0165 -1.0759  1.7018
17376TIP3    H273544   0.624   1.004   3.396 -0.4972 -0.4819 -0.8245
17377TIP3   OH273545   4.047   2.011   2.843 -0.1836  0.0869 -0.3203
17377TIP3    H173546   4.050   2.048   2.755  0.3253 -1.1007 -0.8122
17377TIP3    H273547   4.139   1.999   2.868 -0.3235 -2.1784 -0.7652
17378TIP3   OH273548   3.844   1.103   1.487 -0.4326  0.1168  0.2029
17378TIP3    H173549   3.789   1.173   1.451 -1.1379 -0.8257 -0.6134
17378TIP3    H273550   3.888   1.066   1.410 -1.5566 -1.5871  0.3412
17379TIP3   OH273551   1.298   2.792  15.024  0.0531 -0.1985 -0.2353
17379TIP3    H173552   1.220   2.736  15.031  0.0646 -0.2939 -0.7909
17379TIP3    H273553   1.263   2.881  15.020 -0.0761 -0.2841 -1.1979
17380TIP3   OH273554   2.847   6.305  13.491 -0.0457 -0.4505  0.4917
17380TIP3    H173555   2.940   6.297  13.512 -0.1963 -0.0245  1.3034
17380TIP3    H273556   2.838   6.261  13.406  0.9259 -0.3415  0.3318
17381TIP3   OH273557   0.016   3.343   4.473 -0.0085  0.6655  0.7930
17381TIP3    H173558   0.087   3.301   4.426  1.0202  0.2747  2.6647
17381TIP3    H273559   0.037   3.436   4.471  0.5469  0.5540  1.3042
17382TIP3   OH273560   1.912   3.802   0.237  0.2334  0.0055  0.5703
17382TIP3    H173561   1.948   3.808   0.149  0.9284 -1.1628  0.7511
17382TIP3    H273562   1.858   3.723   0.235 -0.5006  0.4968  0.9294
17383TIP3   OH273563   0.192   4.262  11.415  0.5981  0.4695 -0.0431
17383TIP3    H173564   0.228   4.301  11.495 -0.1310  0.8959  0.0807
17383TIP3    H273565   0.176   4.337  11.357  0.2019  0.2565 -0.2106
17384TIP3   OH273566   5.686   4.781   2.263 -0.1127  0.9475 -0.5629
17384TIP3    H173567   5.768   4.830   2.257  0.8252 -0.5589 -0.3266
17384TIP3    H273568   5.698   4.708   2.202 -0.7506 -0.0127  0.4443
17385TIP3   OH273569   5.288   1.819   0.357  0.3762  0.2488 -0.3530
17385TIP3    H173570   5.202   1.831   0.398  0.7396 -0.1958  0.5563
17385TIP3    H273571   5.269   1.806   0.264 -0.3809  2.7273 -0.6007
17386TIP3   OH273572   5.750   2.149   4.174 -0.4664  0.3724 -0.1763
17386TIP3    H173573   5.822   2.144   4.237  0.4755 -0.3586 -1.2917
17386TIP3    H273574   5.702   2.068   4.188  0.4424 -0.3533 -1.2192
17387TIP3   OH273575   5.853   4.930  12.372 -0.1861  0.1234  0.0616
17387TIP3    H173576   5.873   4.955  12.462  0.3751 -0.4556  0.0992
17387TIP3    H273577   5.866   4.835  12.370  0.3835  0.2150 -0.7804
17388TIP3   OH273578   3.573   3.889  15.066  0.2650  0.1215 -0.4092
17388TIP3    H173579   3.484   3.859  15.086 -0.6051  1.7211 -1.7195
17388TIP3    H273580   3.626   3.856  15.138 -1.6014  0.1354  1.0074
17389TIP3   OH273581   1.864   5.078   2.478  0.1467 -0.3361 -0.1514
17389TIP3    H173582   1.903   5.111   2.558  0.5722 -0.0452 -0.4774
17389TIP3    H273583   1.927   5.100   2.409 -1.1987  1.3280 -0.8787
17390TIP3   OH273584   1.642   2.380  11.541  0.0619 -0.4310  0.2158
17390TIP3    H173585   1.606   2.403  11.455 -0.0483 -0.1308  0.3398
17390TIP3    H273586   1.615   2.290  11.555  2.7539 -1.5607 -1.4508
17391TIP3   OH273587   5.700   1.581   3.939 -0.5685 -0.4436  0.4236
17391TIP3    H173588   5.696   1.677   3.935 -0.2967 -0.3807  1.4511
17391TIP3    H273589   5.609   1.552   3.939 -0.6656 -0.1410  0.9676
17392TIP3   OH273590   0.719   3.371   6.352  0.8431 -0.6770  0.5639
17392TIP3    H173591   0.772   3.310   6.403  0.2136 -0.9826  0.8622
17392TIP3    H273592   0.634   3.328   6.344  0.5328 -0.0387  0.3918
17393TIP3   OH273593   1.151   3.210  12.702  0.2256 -0.7503 -0.0594
17393TIP3    H173594   1.076   3.151  12.696  0.2599 -1.3108  3.9693
17393TIP3    H273595   1.113   3.298  12.693 -1.0478 -1.0022  2.3181
17394TIP3   OH273596   2.440   6.431  11.003  0.2783  0.0909  0.3360
17394TIP3    H173597   2.525   6.446  10.963 -0.2356  2.6553  0.1461
17394TIP3    H273598   2.396   6.515  10.999 -1.9025 -0.9554  1.3368
17395TIP3   OH273599   1.298   2.887  15.869 -0.3288 -0.6344 -0.4289
17395TIP3    H173600   1.366   2.924  15.926 -0.1637 -1.2708 -0.2061
17395TIP3    H273601   1.347   2.844  15.799 -0.5306  0.1637 -1.0785
17396TIP3   OH273602   4.340   6.098   3.571  0.0646  0.5308 -0.1791
17396TIP3    H173603   4.426   6.121   3.607 -0.0089 -0.1071  0.4291
17396TIP3    H273604   4.278   6.129   3.637 -0.1883  1.1991 -0.7268
17397TIP3   OH273605   1.668   1.956   3.103  0.4541  0.4069 -0.2924
17397TIP3    H173606   1.701   1.879   3.055  1.3786  0.1928  0.6938
17397TIP3    H273607   1.726   1.964   3.178 -0.3138  1.4351  0.1864
17398TIP3   OH273608   0.410   6.231  16.013 -0.3042  0.0161  0.2233
17398TIP3    H173609   0.398   6.326  16.019 -0.4947  0.0509 -0.6417
17398TIP3    H273610   0.469   6.210  16.085 -0.1537  0.8112  0.3408
17399TIP3   OH273611   4.761   4.282  16.287 -0.3677 -0.6941  0.1157
17399TIP3    H173612   4.804   4.214  16.339  1.4612  1.5303  1.6220
17399TIP3    H273613   4.668   4.257  16.287 -0.0864 -1.8993  2.7051
17400TIP3   OH273614   4.441   6.428   1.677 -0.2478 -0.0937 -0.0690
17400TIP3    H173615   4.377   6.385   1.733 -0.6676  0.0260 -0.4494
17400TIP3    H273616   4.436   6.381   1.594 -2.9047  2.5583 -1.5049
17401TIP3   OH273617   4.736   6.267  13.102  0.2879 -0.0032  1.0136
17401TIP3    H173618   4.774   6.216  13.174 -0.9097 -0.1017  1.5852
17401TIP3    H273619   4.812   6.298  13.052  1.0199 -3.8732 -0.4323
17402TIP3   OH273620   4.049   2.568  12.278 -0.1245  0.2938 -0.1673
17402TIP3    H173621   3.993   2.526  12.213  2.2769 -1.2132 -1.3271
17402TIP3    H273622   4.075   2.651  12.237 -0.5462  0.4434 -0.1323
17403TIP3   OH273623   2.556   6.780  17.221 -0.1816 -0.2177 -0.1964
17403TIP3    H173624   2.514   6.746  17.142  1.0727  0.7952 -1.3221
17403TIP3    H273625   2.587   6.702  17.267 -0.7991 -0.8094 -0.7691
17404TIP3   OH273626   2.047   0.224  16.557  0.3052  0.1175 -0.2921
17404TIP3    H173627   2.005   0.208  16.473  0.1639 -1.0707 -0.0097
17404TIP3    H273628   2.075   0.137  16.586  0.2904  0.5086  0.9114
17405TIP3   OH273629   0.964   4.194   5.723  0.0935  0.0667  0.1351
17405TIP3    H173630   0.896   4.248   5.762 -0.5328  1.0186 -2.2224
17405TIP3    H273631   0.920   4.112   5.701 -0.0530  0.3164 -0.4982
17406TIP3   OH273632   5.571   0.365  14.522  0.0368  0.3446 -0.4892
17406TIP3    H173633   5.657   0.384  14.558 -0.1137 -0.1314  0.1263
17406TIP3    H273634   5.584   0.287  14.468  0.3933  1.4296 -1.9986
17407TIP3   OH273635   6.016   1.970  11.807 -0.0192  0.4344  0.1097
17407TIP3    H173636   6.094   1.989  11.860  1.8403  0.1323 -2.4065
17407TIP3    H273637   6.009   1.875  11.809  0.9725  0.3197 -1.4152
17408TIP3   OH273638   0.565   1.257   4.145 -0.0699 -0.1397 -0.2360
17408TIP3    H173639   0.647   1.261   4.195 -0.2179 -0.0148 -0.0002
17408TIP3    H273640   0.511   1.327   4.183 -0.6125 -0.7851  0.1847
17409TIP3   OH273641   4.379   1.276  13.968  0.2268 -0.2140 -0.2151
17409TIP3    H173642   4.358   1.184  13.955 -0.4968 -0.1698  0.5540
17409TIP3    H273643   4.313   1.323  13.917  1.0031 -0.1246 -1.1517
17410TIP3   OH273644   3.908   0.873  12.733 -0.1542  0.1983 -0.5874
17410TIP3    H173645   3.887   0.936  12.802 -0.0249 -0.2400 -0.1416
17410TIP3    H273646   3.824   0.854  12.692 -0.5058 -0.8034  0.5492
17411TIP3   OH273647   2.371   6.561   4.606 -0.7238 -0.5632  0.0292
17411TIP3    H173648   2.330   6.601   4.683 -1.3598 -1.6088  0.2444
17411TIP3    H273649   2.333   6.608   4.531 -0.5654  0.0343  0.3200
17412TIP3   OH273650   1.282   6.573  13.030  0.1184 -0.2083 -0.3602
17412TIP3    H173651   1.285   6.667  13.009  0.1192 -0.0199  0.4898
17412TIP3    H273652   1.320   6.530  12.953  1.1318  0.5524 -0.2861
17413TIP3   OH273653   1.511   0.632   3.314 -0.3665  0.1313 -0.0756
17413TIP3    H173654   1.461   0.711   3.339 -0.6970 -0.5330  1.4549
17413TIP3    H273655   1.602   0.661   3.314 -0.3605  0.2163  1.8404
17414TIP3   OH273656   1.267   3.339  15.262 -0.1748  0.0589 -0.5086
17414TIP3    H173657   1.205   3.282  15.307 -0.5653  1.1471  0.3689
17414TIP3    H273658   1.312   3.386  15.332  1.2009 -0.2508 -1.1571
17415TIP3   OH273659   0.957   1.359  17.074  0.4665  0.2864 -0.4132
17415TIP3    H173660   1.009   1.423  17.025 -0.0095  0.4775 -0.6778
17415TIP3    H273661   1.020   1.315  17.131  0.9794  0.2399 -1.0147
17416TIP3   OH273662   2.413   1.891  13.945  0.4305  0.0346 -0.4069
17416TIP3    H173663   2.481   1.938  13.992  1.5257 -1.0405 -0.8787
17416TIP3    H273664   2.430   1.799  13.963 -1.5718 -0.2061  0.3603
17417TIP3   OH273665   4.531   4.148   1.895  0.5873 -0.0454 -0.3330
17417TIP3    H173666   4.455   4.094   1.869 -0.1891  0.1717  1.4251
17417TIP3    H273667   4.516   4.232   1.853 -0.7003  0.3259  0.8343
17418TIP3   OH273668   6.565   3.937   1.839  0.3782 -0.5087  0.5877
17418TIP3    H173669   6.638   3.952   1.780  0.5127  0.1050  0.9039
17418TIP3    H273670   6.597   3.875   1.904  0.4135 -0.7372  0.3489
17419TIP3   OH273671   0.327   5.154   1.656 -0.1381  0.1619  0.2464
17419TIP3    H173672   0.247   5.130   1.610  0.5207 -0.2309 -0.7225
17419TIP3    H273673   0.398   5.125   1.597  0.7049  0.5893  1.0380
17420TIP3   OH273674   1.063   5.118  12.183 -0.1124  0.2881  0.0183
17420TIP3    H173675   1.116   5.039  12.168  1.1894  1.3331 -0.9093
17420TIP3    H273676   1.094   5.151  12.267 -1.3029 -0.6759  0.8625
17421TIP3   OH273677   0.546   3.636  12.757  0.0655 -0.7097  0.5684
17421TIP3    H173678   0.451   3.626  12.748 -0.2264  0.4432  2.1521
17421TIP3    H273679   0.565   3.722  12.719  0.0882  0.2104  2.6098
17422TIP3   OH273680   0.562   1.699   3.562 -0.2972  0.2045 -0.7213
17422TIP3    H173681   0.486   1.670   3.512 -0.7814 -2.6690  1.5406
17422TIP3    H273682   0.632   1.640   3.535  0.2913  0.7634 -0.4371
17423TIP3   OH273683   4.410   6.100   5.863  0.3842  0.0981 -0.2133
17423TIP3    H173684   4.503   6.081   5.872  0.2139 -0.8585 -0.3665
17423TIP3    H273685   4.368   6.044   5.928 -0.1204  0.1167 -0.5157
17424TIP3   OH273686   6.487   1.565   2.145  0.7140  0.0849 -0.2252
17424TIP3    H173687   6.506   1.564   2.051  0.1710 -1.0851 -0.3297
17424TIP3    H273688   6.408   1.513   2.154 -0.2860  1.7232  0.6778
17425TIP3   OH273689   0.343   2.600   2.899 -0.1803  0.6334 -0.4043
17425TIP3    H173690   0.390   2.551   2.966  0.6792  0.8870 -0.8155
17425TIP3    H273691   0.253   2.603   2.930 -0.3640 -1.6683 -0.6185
17426TIP3   OH273692   1.911   5.678  15.980  0.8434  0.1254 -0.1564
17426TIP3    H173693   1.845   5.620  15.942  0.8489  0.3425 -0.5013
17426TIP3    H273694   1.964   5.706  15.906  0.5205  0.9771 -0.0794
17427TIP3   OH273695   2.938   3.533   6.027  0.4142  0.4965 -0.5403
17427TIP3    H173696   2.913   3.556   5.937  1.7226  1.5912 -0.6445
17427TIP3    H273697   2.908   3.608   6.079  1.1409  0.6293 -0.3093
17428TIP3   OH273698   4.927   4.252   2.886 -0.2845 -0.3766  0.2178
17428TIP3    H173699   4.873   4.237   2.808 -0.9265 -0.4812  0.6862
17428TIP3    H273700   5.017   4.251   2.852 -0.4939 -1.6636 -0.3304
17429TIP3   OH273701   1.136   1.580  14.656 -0.1678  0.1600 -0.0594
17429TIP3    H173702   1.042   1.593  14.638  0.1210  0.4052 -1.4632
17429TIP3    H273703   1.153   1.490  14.628 -0.0983 -0.0725  0.7206
17430TIP3   OH273704   0.990   2.106  12.465  0.5386  0.0184  0.2565
17430TIP3    H173705   0.979   2.049  12.541  0.7325  0.3636  0.5439
17430TIP3    H273706   1.001   2.046  12.391  2.4070 -0.3483  0.7921
17431TIP3   OH273707   3.142   5.832  13.203  0.0196 -0.3816 -0.6236
17431TIP3    H173708   3.099   5.828  13.117  0.1752 -0.7341 -0.6837
17431TIP3    H273709   3.154   5.925  13.219  0.1573 -0.3225 -1.0673
17432TIP3   OH273710   4.072   1.935   6.494 -0.0571 -0.0629 -0.0684
17432TIP3    H173711   4.118   1.891   6.423  0.7844 -0.6007  0.7890
17432TIP3    H273712   4.141   1.983   6.541 -0.5764  0.1567  0.4790
17433TIP3   OH273713   3.796   3.011  12.558 -0.1346  0.2769  0.4099
17433TIP3    H173714   3.819   3.041  12.471 -0.8152 -0.0825  0.1050
17433TIP3    H273715   3.735   3.076  12.591  1.1878  1.1546  1.1672
17434TIP3   OH273716   4.774   2.302  12.522 -0.1295  0.4195  0.3062
17434TIP3    H173717   4.698   2.353  12.549 -0.7205  0.4028 -1.2941
17434TIP3    H273718   4.849   2.357  12.546 -0.6673  0.8579  1.0157
17435TIP3   OH273719   1.435   4.068  16.853  0.0102 -0.1529  0.5361
17435TIP3    H173720   1.396   3.982  16.862  0.3661 -0.3725 -0.0118
17435TIP3    H273721   1.412   4.096  16.765  0.0778  0.2191  0.6363
17436TIP3   OH273722   5.607   5.048  15.345 -0.5761 -0.0248 -0.2856
17436TIP3    H173723   5.580   5.090  15.264  0.8104  1.3850 -0.0271
17436TIP3    H273724   5.702   5.036  15.336 -0.8526 -2.6730 -0.1480
17437TIP3   OH273725   4.667   3.052   0.192 -0.3405  0.2627 -0.0979
17437TIP3    H173726   4.641   3.119   0.255  2.1380  1.5666 -0.4019
17437TIP3    H273727   4.738   3.092   0.142 -0.2753 -1.8197 -1.7515
17438TIP3   OH273728   5.543   0.836   5.647  0.1711  0.1598 -0.9029
17438TIP3    H173729   5.500   0.767   5.597 -2.5442 -0.5388  2.2193
17438TIP3    H273730   5.509   0.917   5.610 -0.2866 -0.2795 -1.4546
17439TIP3   OH273731   5.726   3.196  15.328  0.3092  0.6311  0.3593
17439TIP3    H173732   5.671   3.136  15.378 -0.5314  0.3999 -0.8267
17439TIP3    H273733   5.782   3.139  15.275 -0.6849  0.8878 -0.9821
17440TIP3   OH273734   5.955   1.445  12.870 -0.5394  0.4991  0.3017
17440TIP3    H173735   5.873   1.460  12.822 -0.6906 -0.8072  0.1344
17440TIP3    H273736   5.929   1.448  12.962 -0.7229  0.3923  0.2541
17441TIP3   OH273737   6.190   1.993   2.997  0.0260 -0.2914 -0.3011
17441TIP3    H173738   6.272   2.022   2.956  0.4011  0.0309  0.6666
17441TIP3    H273739   6.152   1.931   2.934  1.6525 -1.4344 -0.1892
17442TIP3   OH273740   5.998   4.999   2.718  0.2772 -0.3288  0.7605
17442TIP3    H173741   6.063   5.001   2.788  0.3364  0.1308  0.6929
17442TIP3    H273742   5.972   5.091   2.706  0.6339 -0.3389 -0.1508
17443TIP3   OH273743   2.355   0.947   3.779  0.4599 -0.0534  0.0331
17443TIP3    H173744   2.332   0.990   3.696  0.9160 -0.8954 -0.5330
17443TIP3    H273745   2.275   0.899   3.803 -0.1592  1.3459  0.8304
17444TIP3   OH273746   1.261   1.117   3.868  0.3684  1.1912  0.1224
17444TIP3    H173747   1.180   1.098   3.821  0.3090  1.8164 -0.0341
17444TIP3    H273748   1.329   1.073   3.816  0.0347 -0.0830  0.7424
17445TIP3   OH273749   0.372   3.598   1.592 -0.4277  0.6015 -0.2403
17445TIP3    H173750   0.284   3.585   1.628  0.1988  0.2706  1.2030
17445TIP3    H273751   0.419   3.517   1.613 -0.0803  0.3504 -1.9276
17446TIP3   OH273752   4.706   5.518  11.905  0.6626 -0.4010 -0.5286
17446TIP3    H173753   4.675   5.457  11.838  0.0598 -0.2204 -0.4135
17446TIP3    H273754   4.800   5.503  11.909  0.6920 -0.4746 -1.3655
17447TIP3   OH273755   0.654   4.816  10.802 -0.0746  0.2986  0.0467
17447TIP3    H173756   0.727   4.791  10.745 -0.2105 -2.4809  1.0444
17447TIP3    H273757   0.597   4.868  10.745  1.4343  0.4190 -1.4111
17448TIP3   OH273758   2.785   2.359  13.881  0.2433  0.2191  0.2088
17448TIP3    H173759   2.763   2.444  13.919 -2.7201  0.6359 -2.2573
17448TIP3    H273760   2.733   2.296  13.931  1.2154  0.0117  0.9769
17449TIP3   OH273761   1.798   5.681   1.448 -0.7453 -0.2665 -0.0612
17449TIP3    H173762   1.834   5.755   1.497 -0.0449 -1.0755  0.6669
17449TIP3    H273763   1.874   5.643   1.402 -1.0719 -0.6114 -0.3199
17450TIP3   OH273764   4.954   4.311   1.760  0.4153 -0.1040 -0.1905
17450TIP3    H173765   4.885   4.266   1.809  0.3642 -1.0309 -1.0864
17450TIP3    H273766   5.035   4.283   1.803  0.1804  2.1870  1.8262
17451TIP3   OH273767   1.325   1.632  16.996 -0.7374 -0.1724 -0.3094
17451TIP3    H173768   1.332   1.551  17.047 -0.1276 -0.1381 -0.3398
17451TIP3    H273769   1.383   1.619  16.921 -0.1994  0.5167 -0.0205
17452TIP3   OH273770   5.502   3.147  11.118 -0.3197 -0.2860 -0.2576
17452TIP3    H173771   5.452   3.085  11.065 -0.8199 -0.1278  0.0269
17452TIP3    H273772   5.445   3.225  11.124 -0.8073 -0.7491  1.5331
17453TIP3   OH273773   3.886   5.722  12.112 -0.5573  0.2506  0.3107
17453TIP3    H173774   3.954   5.661  12.141 -0.9554 -0.5463 -0.4048
17453TIP3    H273775   3.884   5.711  12.017 -1.9718 -0.0235  0.3739
17454TIP3   OH273776   5.991   4.332  15.329  0.3836  0.1456  0.5486
17454TIP3    H173777   5.909   4.288  15.304 -0.2195  0.8720  1.2353
17454TIP3    H273778   5.988   4.416  15.283  0.8705  0.0570  0.3596
17455TIP3   OH273779   1.130   4.472  14.834 -0.1989  0.0659 -0.1473
17455TIP3    H173780   1.037   4.453  14.842 -0.0178 -0.5567  0.4903
17455TIP3    H273781   1.138   4.563  14.864 -0.5900  0.1073 -0.1624
17456TIP3   OH273782   5.096   2.634  13.287  0.1587 -0.9233 -0.3273
17456TIP3    H173783   5.007   2.664  13.300 -0.1688 -1.4747 -1.2492
17456TIP3    H273784   5.151   2.705  13.321 -0.6160 -1.7141  2.7640
17457TIP3   OH273785   5.391   5.954   3.927 -0.2077 -0.1497  0.2247
17457TIP3    H173786   5.322   5.959   3.861 -0.4150  1.4292  0.5300
17457TIP3    H273787   5.381   5.867   3.966 -0.5770 -0.7931 -1.2806
17458TIP3   OH273788   4.408   6.496   2.234  0.1558 -0.2883 -0.4342
17458TIP3    H173789   4.406   6.479   2.329 -1.5659  2.3715  0.0703
17458TIP3    H273790   4.353   6.428   2.196 -0.2646 -0.5537  0.6172
17459TIP3   OH273791   4.977   4.772  15.487 -0.4341  0.3506 -0.4201
17459TIP3    H173792   5.037   4.841  15.462  0.4573 -0.6023 -0.9414
17459TIP3    H273793   4.952   4.793  15.577  2.1444 -0.2624  0.4780
17460TIP3   OH273794   5.476   0.752   2.840 -0.4204 -0.1055  0.9186
17460TIP3    H173795   5.490   0.763   2.746  0.1771  2.5364  1.2732
17460TIP3    H273796   5.495   0.660   2.856  1.8999 -0.0696 -1.1669
17461TIP3   OH273797   1.651   1.442   4.217 -0.2430  0.8313 -0.0953
17461TIP3    H173798   1.609   1.420   4.134 -2.0437 -1.9885  1.4530
17461TIP3    H273799   1.582   1.428   4.282  2.0748 -0.3782  2.1933
17462TIP3   OH273800   2.946   2.706  13.732  0.6245  0.2574 -0.1879
17462TIP3    H173801   2.917   2.634  13.676  2.2218 -0.9079  0.4606
17462TIP3    H273802   2.945   2.783  13.674 -0.0819 -0.4653 -1.1571
17463TIP3   OH273803   6.649   5.754   1.656 -0.2892 -0.2057 -0.4463
17463TIP3    H173804   6.679   5.691   1.591  0.1294 -0.1059 -0.3459
17463TIP3    H273805   6.729   5.790   1.694 -0.5261  0.7613 -0.8629
17464TIP3   OH273806   2.151   5.349   6.288 -0.6028  0.0596 -0.0359
17464TIP3    H173807   2.129   5.365   6.380  1.3116 -1.2365  0.6630
17464TIP3    H273808   2.205   5.424   6.263  1.9617 -1.3843  1.0068
17465TIP3   OH273809   5.845   2.354  10.909 -0.2810  0.0989 -0.3885
17465TIP3    H173810   5.913   2.411  10.873  1.1412 -0.3492  1.4808
17465TIP3    H273811   5.887   2.312  10.984 -2.8850  0.5028  1.3727
17466TIP3   OH273812   2.698   1.156   6.319 -0.1605  0.0275 -0.1820
17466TIP3    H173813   2.692   1.060   6.321 -1.4383  0.1306  1.6471
17466TIP3    H273814   2.774   1.176   6.374 -0.1951  0.0955 -0.1598
17467TIP3   OH273815   6.173   1.911  17.050  0.1728  0.1177  0.1911
17467TIP3    H173816   6.156   1.971  17.122 -0.6807  0.2093 -0.0875
17467TIP3    H273817   6.104   1.928  16.987  0.4772 -0.4949 -0.3169
17468TIP3   OH273818   1.147   3.428  16.045  0.1663 -0.4703  0.2999
17468TIP3    H173819   1.138   3.524  16.042  0.6329 -0.4551 -0.6121
17468TIP3    H273820   1.231   3.410  16.003  0.5000 -1.2264  1.2678
17469TIP3   OH273821   1.108   1.826  16.144 -0.3291  0.5168 -0.3192
17469TIP3    H173822   1.091   1.915  16.111  0.6791  1.0798  0.6432
17469TIP3    H273823   1.191   1.801  16.103  1.1023  1.3455  1.9530
17470TIP3   OH273824   4.612   6.377  10.927 -0.1696 -0.5232 -0.5064
17470TIP3    H173825   4.517   6.361  10.921 -0.4631  0.8836  0.2399
17470TIP3    H273826   4.647   6.295  10.963 -1.4366 -0.1523  1.6653
17471TIP3   OH273827   1.213   3.884   0.872 -0.4085 -0.1874  0.2059
17471TIP3    H173828   1.295   3.882   0.921 -0.5033  0.4256  0.3992
17471TIP3    H273829   1.215   3.806   0.818  1.6708  1.3192 -1.9779
17472TIP3   OH273830   3.634   1.402   4.483 -0.5488 -0.0988  0.2484
17472TIP3    H173831   3.722   1.376   4.456  0.1058  2.4711 -0.2131
17472TIP3    H273832   3.629   1.379   4.576  1.3575  1.5483  0.7951
17473TIP3   OH273833   1.359   6.366  16.895  0.2607  0.1260  0.8716
17473TIP3    H173834   1.386   6.376  16.986 -0.8755  1.4122  1.0937
17473TIP3    H273835   1.271   6.404  16.892  1.0599  1.9660 -1.1623
17474TIP3   OH273836   3.852   4.919  11.653 -0.1472 -0.2783 -0.2245
17474TIP3    H173837   3.820   4.837  11.615 -1.1703  0.1795 -0.3727
17474TIP3    H273838   3.914   4.953  11.589  1.1610 -1.5010  0.3536
17475TIP3   OH273839   2.746   0.896   5.837 -0.2662 -0.8885  0.2145
17475TIP3    H173840   2.700   0.963   5.786 -1.7338 -1.7166  0.4112
17475TIP3    H273841   2.726   0.917   5.928 -1.8645 -2.3311  0.2366
17476TIP3   OH273842   4.219   1.350  16.611 -0.1450  0.1803 -0.0614
17476TIP3    H173843   4.181   1.438  16.604 -2.2150 -0.9314 -3.5806
17476TIP3    H273844   4.163   1.305  16.674 -1.1421  0.3454 -0.8280
17477TIP3   OH273845   0.225   4.027  16.261  0.3479  0.2394 -0.2005
17477TIP3    H173846   0.164   4.101  16.267 -2.0929 -1.5751 -1.4749
17477TIP3    H273847   0.183   3.967  16.199  2.5646 -1.9469  0.3427
17478TIP3   OH273848   5.970   4.034   2.240 -0.0953 -0.2123 -0.2261
17478TIP3    H173849   5.939   3.962   2.295 -0.3926  0.1090  0.0303
17478TIP3    H273850   6.013   4.094   2.301  0.1120 -0.1515 -0.4330
17479TIP3   OH273851   0.641   6.586   2.994 -0.1356  0.1028 -0.0165
17479TIP3    H173852   0.722   6.539   2.974 -0.4513 -1.2488  1.7631
17479TIP3    H273853   0.663   6.678   2.983  1.0733 -0.3496 -1.5298
17480TIP3   OH273854   3.359   1.536   0.467 -0.2266  0.7964  0.3577
17480TIP3    H173855   3.339   1.489   0.548  1.2596  2.0454  1.4662
17480TIP3    H273856   3.274   1.568   0.436 -0.9155 -0.4589  0.9344
17481TIP3   OH273857   2.721   2.248   3.016 -0.6607 -0.6338  0.2311
17481TIP3    H173858   2.661   2.289   3.078  1.5449  0.9548  1.4313
17481TIP3    H273859   2.694   2.282   2.931 -1.6074 -0.1145  0.7293
17482TIP3   OH273860   1.935   6.535  13.033  0.0328  0.4986 -0.5297
17482TIP3    H173861   1.940   6.568  12.944 -2.4436  0.8496 -0.5790
17482TIP3    H273862   1.909   6.443  13.024  1.5047  0.0391 -0.2139
17483TIP3   OH273863   6.417   2.674   0.678 -0.1898 -0.5980  0.0861
17483TIP3    H173864   6.433   2.676   0.584 -0.1489  1.7826  0.1071
17483TIP3    H273865   6.501   2.649   0.716 -0.2418 -1.7035 -0.5051
17484TIP3   OH273866   5.797   4.670   4.448  0.0610  0.1847  0.4970
17484TIP3    H173867   5.771   4.762   4.460  0.9620  0.5562 -0.3542
17484TIP3    H273868   5.722   4.620   4.480 -0.5920  1.2176  0.6185
17485TIP3   OH273869   3.357   5.072   0.193  0.0376 -0.1648  0.6139
17485TIP3    H173870   3.384   5.136   0.259 -1.1108 -0.1329  1.0434
17485TIP3    H273871   3.265   5.056   0.210 -0.1902 -0.4018 -0.7777
17486TIP3   OH273872   4.189   0.783   1.524  0.4375  0.0229  0.3030
17486TIP3    H173873   4.151   0.780   1.436  0.7794 -0.1073  0.1623
17486TIP3    H273874   4.205   0.692   1.547  1.6239  0.1468 -0.0447
17487TIP3   OH273875   5.583   4.813  16.459 -0.5077 -0.1202 -0.0918
17487TIP3    H173876   5.578   4.902  16.494  1.0379  0.1760 -0.5755
17487TIP3    H273877   5.616   4.825  16.370 -0.2532 -1.1796 -0.1420
17488TIP3   OH273878   5.097   3.682   3.873 -0.7968 -0.7347  0.2056
17488TIP3    H173879   5.156   3.607   3.877  1.0687  0.7353  0.9109
17488TIP3    H273880   5.061   3.689   3.961  1.6100  1.1606  1.1175
17489TIP3   OH273881   5.148   1.240   6.111 -0.0145 -0.2203  0.4613
17489TIP3    H173882   5.104   1.169   6.158 -1.0602  0.4262  0.4644
17489TIP3    H273883   5.082   1.309   6.104  0.7985  0.5073 -0.1011
17490TIP3   OH273884   0.885   2.846   2.756  0.0592  0.2384  0.0900
17490TIP3    H173885   0.933   2.783   2.703  1.1765  0.8420  0.3634
17490TIP3    H273886   0.856   2.914   2.694  3.2724  2.1031  0.5252
17491TIP3   OH273887   3.391   0.113   5.093 -0.3608 -0.2604 -0.3013
17491TIP3    H173888   3.324   0.098   5.026 -1.5413 -2.8499  1.3536
17491TIP3    H273889   3.380   0.205   5.117 -2.3650 -0.2547 -1.0979
17492TIP3   OH273890   6.704   0.104   1.407 -0.0805 -0.0762 -0.1251
17492TIP3    H173891   6.616   0.100   1.443 -1.1322 -0.3278 -2.6090
17492TIP3    H273892   6.703   0.181   1.349  1.4124  0.0926  0.0390
17493TIP3   OH273893   1.760   5.521  13.025 -0.6961  0.2159  0.9630
17493TIP3    H173894   1.726   5.437  12.993  1.6795 -1.4866  2.7501
17493TIP3    H273895   1.753   5.579  12.949 -0.8268 -2.0538 -0.8618
17494TIP3   OH273896   3.375   1.844   3.777  0.5247 -0.4950 -0.2947
17494TIP3    H173897   3.350   1.838   3.685  1.0797 -0.4799 -0.4443
17494TIP3    H273898   3.355   1.758   3.813  1.4436 -0.8841 -0.7102
17495TIP3   OH273899   2.078   4.973  11.863 -0.3500  0.2631 -0.2094
17495TIP3    H173900   2.058   4.956  11.955 -0.5526  1.9481  0.0736
17495TIP3    H273901   2.170   4.951  11.854 -0.3520  0.0017  0.3691
17496TIP3   OH273902   1.495   3.265  10.753 -0.7322 -0.4896 -0.4772
17496TIP3    H173903   1.550   3.327  10.706  0.0626 -0.6529  0.2376
17496TIP3    H273904   1.455   3.211  10.683 -1.2213  0.6337 -1.0745
17497TIP3   OH273905   2.876   2.693   6.316  0.4041  0.2022 -0.3549
17497TIP3    H173906   2.810   2.753   6.352  0.8676  0.6318 -0.2276
17497TIP3    H273907   2.831   2.608   6.314 -0.6033  0.7508 -1.5490
17498TIP3   OH273908   5.766   4.475   6.298  0.1176  0.2521  0.1020
17498TIP3    H173909   5.679   4.440   6.319  0.3615  1.2819  3.0480
17498TIP3    H273910   5.748   4.549   6.240 -1.0482  0.9601  1.3418
17499TIP3   OH273911   5.322   0.940  12.812  0.1392 -0.6579  0.4957
17499TIP3    H173912   5.278   0.906  12.734  0.0237  0.5881  0.0130
17499TIP3    H273913   5.317   1.035  12.804  2.1033 -0.4927  0.9056
17500TIP3   OH273914   4.841   5.787   5.417  0.5194 -0.1978  0.1331
17500TIP3    H173915   4.899   5.740   5.477  0.7277 -1.1245 -0.7805
17500TIP3    H273916   4.822   5.724   5.348 -1.3089  0.2129  0.2521
17501TIP3   OH273917   0.899   1.222  11.634  0.1879  0.2510 -0.5764
17501TIP3    H173918   0.811   1.254  11.655  0.6132  1.0929 -0.0092
17501TIP3    H273919   0.885   1.135  11.597 -1.0376  1.2241 -2.5004
17502TIP3   OH273920   5.773   0.114  16.291  0.6452 -0.2257  0.1864
17502TIP3    H173921   5.760   0.166  16.370  1.8244  0.7625 -0.2538
17502TIP3    H273922   5.857   0.071  16.305  0.2900 -0.9975 -0.0234
17503TIP3   OH273923   0.834   4.405  14.563  0.1863  0.1489  0.3633
17503TIP3    H173924   0.919   4.362  14.558 -1.1230 -2.5585  0.4680
17503TIP3    H273925   0.839   4.458  14.643  1.3160 -1.0954  1.1524
17504TIP3   OH273926   1.425   2.476  13.485 -0.1329 -0.0550 -0.0059
17504TIP3    H173927   1.407   2.563  13.521  1.6409 -0.0169  0.8613
17504TIP3    H273928   1.501   2.489  13.428  1.6460 -1.4262  1.9793
17505TIP3   OH273929   3.796   1.334   0.102  0.6319 -0.0267  0.1816
17505TIP3    H173930   3.853   1.290   0.040  0.6107  0.9258 -0.5208
17505TIP3    H273931   3.790   1.424   0.070  0.9481  0.5755  1.7892
17506TIP3   OH273932   6.465   4.940  13.142 -0.0638  0.3931 -0.6491
17506TIP3    H173933   6.418   4.859  13.123 -1.2973  0.3788  2.2886
17506TIP3    H273934   6.411   5.009  13.103 -0.8836  0.1004 -0.0401
17507TIP3   OH273935   0.394   4.900  14.031  0.3387 -0.3351  0.3896
17507TIP3    H173936   0.424   4.877  13.943 -0.5223 -1.8330  0.4730
17507TIP3    H273937   0.426   4.828  14.086  1.8879  1.1876  1.5044
17508TIP3   OH273938   2.200   4.026  13.890 -0.0378 -0.7586 -0.1893
17508TIP3    H173939   2.226   4.007  13.980  0.6041  0.9215  0.0027
17508TIP3    H273940   2.260   4.094  13.862 -0.5199 -0.9588 -1.7533
17509TIP3   OH273941   1.498   4.378  11.765 -0.7333  0.1703 -0.3092
17509TIP3    H173942   1.568   4.442  11.769 -0.8652  0.2324  1.5903
17509TIP3    H273943   1.543   4.293  11.760 -0.5235  0.2769 -0.2247
17510TIP3   OH273944   4.951   2.570   6.330  0.3701  0.0716  0.0515
17510TIP3    H173945   4.919   2.651   6.289  0.2617 -0.0739 -0.1525
17510TIP3    H273946   4.933   2.583   6.423  0.4428  0.3240  0.0317
17511TIP3   OH273947   5.853   1.597   0.431 -0.0728 -0.1350  0.0956
17511TIP3    H173948   5.894   1.511   0.423  0.5714  0.0708  1.0744
17511TIP3    H273949   5.786   1.586   0.499  1.2721  0.5766  1.5734
17512TIP3   OH273950   2.430   0.855  14.796 -0.2259 -0.0107 -0.1799
17512TIP3    H173951   2.336   0.846  14.810  0.0593 -1.7904  0.7194
17512TIP3    H273952   2.460   0.909  14.869 -0.1266 -1.8067  1.1286
17513TIP3   OH273953   5.394   3.636   3.262 -0.5480 -0.0748 -0.0452
17513TIP3    H173954   5.305   3.668   3.250 -0.6882 -0.7464 -0.9057
17513TIP3    H273955   5.391   3.588   3.345 -0.5298  1.4251  0.8305
17514TIP3   OH273956   0.818   6.436  14.226  0.4696  0.4474 -0.1149
17514TIP3    H173957   0.887   6.502  14.231  0.6524  0.2095  0.6016
17514TIP3    H273958   0.801   6.426  14.132 -0.0150  1.9681 -0.2070
17515TIP3   OH273959   0.405   0.779  16.754 -0.0845  0.4076 -0.1500
17515TIP3    H173960   0.486   0.829  16.743  0.7151 -1.2145 -1.9958
17515TIP3    H273961   0.433   0.695  16.792 -0.9177 -0.0750 -0.5715
17516TIP3   OH273962   0.577   2.398  14.347  0.0111  0.7878 -0.6982
17516TIP3    H173963   0.573   2.316  14.396 -0.9868  1.3732  0.2319
17516TIP3    H273964   0.659   2.393  14.297  0.7441 -0.0907  0.5639
17517TIP3   OH273965   1.929   3.610   2.130 -0.0076 -0.3117  0.0512
17517TIP3    H173966   1.986   3.594   2.055 -3.1128 -0.8281 -2.3285
17517TIP3    H273967   1.860   3.667   2.096 -1.5389 -0.6009  2.5090
17518TIP3   OH273968   3.456   5.126   3.057  0.1627 -0.1178 -0.2971
17518TIP3    H173969   3.432   5.201   3.002 -1.7715 -0.8505 -0.4932
17518TIP3    H273970   3.400   5.055   3.026  0.8026 -1.2022  0.9911
17519TIP3   OH273971   0.893   4.777  10.655 -0.0519 -0.1689  0.2163
17519TIP3    H173972   0.923   4.723  10.582 -0.1937  0.3462 -0.2218
17519TIP3    H273973   0.973   4.798  10.704  0.0117 -0.7143  0.3450
17520TIP3   OH273974   1.973   6.731  14.559 -0.4550  0.3274 -0.2165
17520TIP3    H173975   1.916   6.796  14.599 -1.7190  0.3292 -1.9474
17520TIP3    H273976   2.008   6.774  14.480 -0.2805 -0.6416 -0.6800
17521TIP3   OH273977   6.168   4.643  10.644  0.2061  0.4480  0.2064
17521TIP3    H173978   6.243   4.625  10.587 -0.9335 -1.1173 -0.8452
17521TIP3    H273979   6.203   4.700  10.713  2.4728 -0.6562  0.0217
17522TIP3   OH273980   5.618   4.473  16.935  0.0523  0.3003  0.3848
17522TIP3    H173981   5.564   4.537  16.887  0.9147  0.8620  0.1609
17522TIP3    H273982   5.692   4.456  16.877  0.2641 -0.2654  0.8179
17523TIP3   OH273983   1.621   4.202   5.570  0.1593 -0.7145  0.5031
17523TIP3    H173984   1.549   4.245   5.523 -1.8146 -3.8746  0.4753
17523TIP3    H273985   1.700   4.236   5.529 -1.3778  1.2278 -0.9556
17524TIP3   OH273986   0.019   3.828  11.582 -0.1887  0.3466 -0.3171
17524TIP3    H173987   0.008   3.888  11.509  1.8271 -0.2832 -1.1863
17524TIP3    H273988  -0.034   3.865  11.653 -2.1314  0.9687 -2.0823
17525TIP3   OH273989   0.902   2.726   4.081 -0.2375  0.1891 -0.3419
17525TIP3    H173990   0.893   2.811   4.036 -2.1383  0.5425  0.6508
17525TIP3    H273991   0.958   2.745   4.156 -0.5722  0.5647 -0.1798
17526TIP3   OH273992   4.246   2.991   4.816 -0.1992  0.1173 -0.1589
17526TIP3    H173993   4.215   2.962   4.731 -3.5478 -1.6356  1.6058
17526TIP3    H273994   4.203   3.076   4.829 -0.1779  0.0929  0.0659
17527TIP3   OH273995   0.161   2.325   4.090 -0.4361 -0.0026 -0.3365
17527TIP3    H173996   0.189   2.378   4.016 -0.4485  0.2838 -0.1408
17527TIP3    H273997   0.229   2.338   4.156 -0.8652  0.4538  0.0246
17528TIP3   OH273998   1.524   4.990  12.824 -0.2852  0.3498 -0.1560
17528TIP3    H173999   1.565   5.056  12.768 -1.2035 -0.2248 -1.5205
17528TIP3    H274000   1.559   4.907  12.792  0.3122  0.1087  1.0927
17529TIP3   OH274001   2.202   3.973  16.627 -0.9809 -1.0102 -0.3898
17529TIP3    H174002   2.225   4.053  16.674 -1.2043 -0.8354 -0.5746
17529TIP3    H274003   2.285   3.939  16.593 -0.9379 -0.6216 -0.6801
17530TIP3   OH274004   4.945   3.200   2.202 -0.2056 -0.2673  0.6430
17530TIP3    H174005   4.912   3.285   2.171  0.4683  0.2833  1.3958
17530TIP3    H274006   5.018   3.223   2.259  0.4842 -1.4077  0.2134
17531TIP3   OH274007   2.559   1.560   5.917  0.2394  0.1281  0.2196
17531TIP3    H174008   2.629   1.556   5.982  1.9200 -2.1547 -1.6453
17531TIP3    H274009   2.548   1.653   5.899  0.1902  0.7533  3.2629
17532TIP3   OH274010   5.905   4.435   3.775 -0.2764 -0.0964 -1.2355
17532TIP3    H174011   5.902   4.517   3.823 -0.2257 -0.9074  0.1684
17532TIP3    H274012   5.842   4.447   3.704 -2.5160  0.0718  0.7192
17533TIP3   OH274013   5.481   4.342  16.702  0.0126  0.1506  0.4701
17533TIP3    H174014   5.393   4.336  16.665  0.8577  0.3671 -1.6413
17533TIP3    H274015   5.509   4.251  16.712  0.2296  0.0833 -0.6062
17534TIP3   OH274016   2.260   5.446  11.351  0.0311 -0.3340  0.8258
17534TIP3    H174017   2.218   5.526  11.320  0.8750 -0.0410  0.4166
17534TIP3    H274018   2.343   5.443  11.304  0.2872 -1.1196  1.3165
17535TIP3   OH274019   3.275   3.357  12.275 -0.0647 -0.6949 -0.7399
17535TIP3    H174020   3.330   3.406  12.336 -1.4262 -1.8109  1.4656
17535TIP3    H274021   3.240   3.423  12.215  1.1167  0.4632 -0.1682
17536TIP3   OH274022   0.875   0.835   5.552  0.4943  0.1998 -0.3142
17536TIP3    H174023   0.874   0.802   5.642  0.8395  2.8133  0.6984
17536TIP3    H274024   0.968   0.835   5.529  0.3224 -1.3917 -1.0436
17537TIP3   OH274025   1.654   0.215   5.577  0.6824  0.2243 -0.4074
17537TIP3    H174026   1.598   0.278   5.622 -0.9463 -1.0678 -0.5644
17537TIP3    H274027   1.615   0.130   5.597  0.0604 -0.4343 -3.9935
17538TIP3   OH274028   5.097   6.401   5.356 -0.0945  0.0198 -0.3786
17538TIP3    H174029   5.051   6.468   5.406 -0.3755 -0.0237 -0.5776
17538TIP3    H274030   5.149   6.450   5.292 -0.8347  0.0229 -0.9812
17539TIP3   OH274031   0.641   1.828   4.251 -0.1178 -0.2331 -0.0428
17539TIP3    H174032   0.689   1.751   4.282 -0.6506 -0.4227  0.3078
17539TIP3    H274033   0.553   1.796   4.232 -0.7057  0.5428  1.3135
17540TIP3   OH274034   4.721   4.237  11.744 -0.1578  0.1819 -0.0011
17540TIP3    H174035   4.626   4.240  11.732  0.1115  0.5664 -2.4577
17540TIP3    H274036   4.751   4.321  11.709  1.1962 -0.5502 -0.6051
17541TIP3   OH274037   5.397   0.041  15.596  0.1729  0.2260  0.3722
17541TIP3    H174038   5.316   0.050  15.546  0.2898 -1.6958 -0.1783
17541TIP3    H274039   5.456  -0.006  15.538  1.8710  2.0007  0.5928
17542TIP3   OH274040   3.697   2.526  11.289  0.2961 -1.0127  0.4448
17542TIP3    H174041   3.734   2.589  11.351 -1.7460 -1.2403  1.9319
17542TIP3    H274042   3.715   2.441  11.329  1.2596 -1.3115 -0.5800
17543TIP3   OH274043   4.167   1.873  11.809 -0.5699 -0.1297 -0.0044
17543TIP3    H174044   4.078   1.880  11.774 -1.0812 -0.1064  1.2800
17543TIP3    H274045   4.201   1.962  11.802  0.4746 -0.7095 -3.3379
17544TIP3   OH274046   3.024   0.203  10.573  0.3636 -0.0138  0.4456
17544TIP3    H174047   2.971   0.123  10.573  1.1752 -0.5650 -1.4121
17544TIP3    H274048   2.974   0.264  10.520  0.6134  0.1403  0.3901
17545TIP3   OH274049   5.095   0.944   3.207 -0.0338  0.8601 -0.6005
17545TIP3    H174050   5.125   0.896   3.130 -1.6925  0.2880 -0.9029
17545TIP3    H274051   5.174   0.955   3.260  0.6094 -1.1320 -1.1058
17546TIP3   OH274052   2.321   4.233   0.488  0.1466  0.0647 -0.4167
17546TIP3    H174053   2.256   4.176   0.529  1.0817 -0.2646  0.6233
17546TIP3    H274054   2.400   4.179   0.482  1.1350  1.3417  0.8664
17547TIP3   OH274055   6.632   5.248  15.171  0.4714  0.7720 -0.1677
17547TIP3    H174056   6.560   5.307  15.194  0.2929 -0.1004  1.5963
17547TIP3    H274057   6.691   5.253  15.246  1.3930  0.1450 -0.8424
17548TIP3   OH274058   1.385   0.022   0.913  0.3809  0.0384 -0.8515
17548TIP3    H174059   1.410  -0.006   1.001  1.3154  0.2794 -1.0369
17548TIP3    H274060   1.392  -0.057   0.860  1.4227  0.2548 -1.0413
17549TIP3   OH274061   3.498   0.597   3.852 -0.2183 -0.3398  0.3884
17549TIP3    H174062   3.468   0.534   3.786  0.7054 -0.2872 -0.0927
17549TIP3    H274063   3.424   0.607   3.912 -1.1239 -0.2633 -0.7315
17550TIP3   OH274064   4.906   6.785   5.854  0.5253  0.0547 -0.2605
17550TIP3    H174065   4.935   6.799   5.944  0.9736 -0.5256 -0.3141
17550TIP3    H274066   4.823   6.832   5.849  0.1006 -0.5883  0.6880
17551TIP3   OH274067   6.422   1.129  14.371 -0.1249  0.0553  0.7978
17551TIP3    H174068   6.391   1.039  14.378 -1.0699  0.1758 -1.3654
17551TIP3    H274069   6.483   1.140  14.444  1.6682 -2.9949 -0.1891
17552TIP3   OH274070   1.997   1.653  16.640 -0.0120 -0.5364  0.1471
17552TIP3    H174071   2.003   1.569  16.595  0.1309 -1.4268  1.7881
17552TIP3    H274072   1.913   1.650  16.685 -0.3233  0.4908 -0.3625
17553TIP3   OH274073   3.293   4.861   4.719 -0.1873 -0.3170 -0.1285
17553TIP3    H174074   3.219   4.819   4.763 -0.9384  0.3978 -0.6821
17553TIP3    H274075   3.301   4.947   4.762  2.0621 -1.4345  1.7693
17554TIP3   OH274076   6.312   6.056  10.955  0.3147  0.0625  0.4304
17554TIP3    H174077   6.399   6.092  10.935 -0.2935  0.7810 -0.9343
17554TIP3    H274078   6.251   6.124  10.929 -0.6607 -0.2792  1.7685
17555TIP3   OH274079   1.855   2.322   5.792 -0.1633  0.5755  0.2342
17555TIP3    H174080   1.881   2.326   5.884 -1.8189  1.2907  0.6955
17555TIP3    H274081   1.896   2.399   5.752  1.9397 -0.6436 -0.0224
17556TIP3   OH274082   6.418   4.316  12.698 -0.3436  0.3254 -0.2306
17556TIP3    H174083   6.451   4.363  12.775  0.6444  0.5050 -0.7616
17556TIP3    H274084   6.484   4.330  12.631 -0.7729 -0.5774 -0.8496
17557TIP3   OH274085   5.791   1.814  12.318 -0.0555  0.0119 -0.3909
17557TIP3    H174086   5.738   1.883  12.280 -1.6372 -0.0939  1.6002
17557TIP3    H274087   5.763   1.734  12.273 -0.7327  0.1339 -0.1775
17558TIP3   OH274088   1.382   3.927   1.132 -0.0996 -0.5937  0.1013
17558TIP3    H174089   1.420   4.001   1.085  1.2698 -1.8033 -0.7304
17558TIP3    H274090   1.454   3.892   1.184 -0.7930 -1.2443  0.6389
17559TIP3   OH274091   6.486   5.521  12.478  0.8751  0.1132  0.2020
17559TIP3    H174092   6.516   5.474  12.556 -0.9347 -1.6507 -0.1148
17559TIP3    H274093   6.472   5.453  12.412 -0.7352  1.1925 -0.6188
17560TIP3   OH274094   3.743   2.337   6.088  0.4840  0.8169  0.5387
17560TIP3    H174095   3.813   2.299   6.140 -0.5086  1.0066  2.0270
17560TIP3    H274096   3.776   2.424   6.064  1.4545  0.2490 -0.2227
17561TIP3   OH274097   3.521   6.510   6.342 -0.2622  0.1746 -0.1116
17561TIP3    H174098   3.607   6.471   6.357  0.0466  0.5250 -0.9104
17561TIP3    H274099   3.496   6.479   6.255 -0.8102  0.3126 -0.0043
17562TIP3   OH274100   0.970   3.518   5.152  0.4803 -0.1850  0.0148
17562TIP3    H174101   0.959   3.554   5.064 -3.3660  0.1987  0.5620
17562TIP3    H274102   0.941   3.588   5.211 -0.9460 -1.8462  1.3736
17563TIP3   OH274103   0.840   3.066   4.395 -0.1505  0.0777 -0.5953
17563TIP3    H174104   0.796   3.086   4.477 -0.5566  0.1769 -0.8381
17563TIP3    H274105   0.923   3.025   4.421  0.0134  0.7110 -0.1277
17564TIP3   OH274106   5.228   3.770  13.011 -0.0398 -0.1993  0.3806
17564TIP3    H174107   5.313   3.755  13.052 -0.6571 -0.1448  1.7217
17564TIP3    H274108   5.186   3.836  13.066 -0.4034  0.8205 -1.0710
17565TIP3   OH274109   0.739   0.159  13.966 -0.1047 -0.7124  0.1631
17565TIP3    H174110   0.651   0.198  13.966 -0.2688 -1.0613  1.3319
17565TIP3    H274111   0.789   0.213  14.027  0.9401  0.3985 -1.5949
17566TIP3   OH274112   3.349   0.885   4.223 -0.4199  0.1309  0.0109
17566TIP3    H174113   3.304   0.956   4.268 -0.0900 -0.1032  0.7303
17566TIP3    H274114   3.438   0.888   4.258  0.4938  1.3955 -2.3226
17567TIP3   OH274115   4.811   3.249   3.636 -0.1984 -0.2453  0.1474
17567TIP3    H174116   4.904   3.255   3.657 -0.1740 -1.2695  0.3816
17567TIP3    H274117   4.809   3.233   3.542 -0.0855 -1.2917  0.3129
17568TIP3   OH274118   3.141   2.170   3.750  0.3944 -0.3798 -0.1032
17568TIP3    H174119   3.102   2.257   3.764  0.8260 -0.0619 -0.8297
17568TIP3    H274120   3.068   2.116   3.720  0.5806  0.3346 -1.9275
17569TIP3   OH274121   3.286   4.311   6.231 -0.3648 -0.0892  0.0246
17569TIP3    H174122   3.355   4.335   6.292 -0.1307 -1.3325  0.2472
17569TIP3    H274123   3.205   4.326   6.279 -0.2097 -0.2032  0.3188
17570TIP3   OH274124   6.625   6.676  14.602  0.2612  0.0009 -0.0069
17570TIP3    H174125   6.640   6.690  14.508  0.6912  1.2884  0.2449
17570TIP3    H274126   6.709   6.641  14.634 -0.2163 -1.4273 -0.2874
17571TIP3   OH274127   2.531   6.714   5.655  1.1058 -0.3522  0.0313
17571TIP3    H174128   2.481   6.795   5.642  1.1104 -0.7334 -2.6305
17571TIP3    H274129   2.557   6.717   5.747 -0.7586  1.5989  0.5470
17572TIP3   OH274130   2.987   5.331  11.688  0.2459  0.3832  0.1993
17572TIP3    H174131   3.028   5.307  11.771 -2.3911  3.3285  2.4904
17572TIP3    H274132   2.991   5.427  11.687 -1.9437  0.4948 -1.9033
17573TIP3   OH274133   1.792   6.226   3.141 -0.1264  0.2303 -0.0284
17573TIP3    H174134   1.764   6.244   3.231  0.4865  0.3966  0.1292
17573TIP3    H274135   1.770   6.306   3.093  0.2122  0.4167  0.1265
17574TIP3   OH274136   6.024   1.093   1.373  0.0003  0.0049  0.1920
17574TIP3    H174137   6.046   1.018   1.428 -1.3685 -1.7093 -1.5545
17574TIP3    H274138   6.100   1.102   1.315  0.8765  1.0169  1.4539
17575TIP3   OH274139   4.979   5.360   3.830  0.5389 -0.2197 -0.0470
17575TIP3    H174140   4.915   5.431   3.828  1.2849  0.4371 -1.6789
17575TIP3    H274141   4.994   5.344   3.923  0.3203  1.7543  0.3598
17576TIP3   OH274142   4.383   4.497  14.318 -0.2186  0.0214 -0.3120
17576TIP3    H174143   4.320   4.439  14.363 -0.9506  1.2211  0.2516
17576TIP3    H274144   4.376   4.473  14.226 -1.6225  0.2225 -0.2765
17577TIP3   OH274145   4.080   1.483   5.334 -0.1152  0.1121 -0.8007
17577TIP3    H174146   4.018   1.435   5.389  0.4430  0.1498 -0.1299
17577TIP3    H274147   4.096   1.425   5.259 -0.3376 -0.2419 -0.5747
17578TIP3   OH274148   0.311   5.518   1.980 -0.1910 -0.3586  0.7173
17578TIP3    H174149   0.257   5.500   1.903 -0.6634 -1.2817  1.2460
17578TIP3    H274150   0.282   5.453   2.044  1.4477 -0.7665  1.0588
17579TIP3   OH274151   0.605   2.036   1.669 -0.0324  0.2867  0.4391
17579TIP3    H174152   0.545   1.964   1.649 -0.1109  0.8045 -1.2597
17579TIP3    H274153   0.607   2.040   1.765 -1.7473 -0.5315  0.5189
17580TIP3   OH274154   3.999   2.172  14.816  0.2880 -0.2116 -0.0510
17580TIP3    H174155   3.972   2.084  14.843 -0.2161 -0.2587 -0.6965
17580TIP3    H274156   3.952   2.230  14.876 -1.4226 -0.2854 -1.2648
17581TIP3   OH274157   2.357   0.981  15.750  0.0352  0.1600 -0.1002
17581TIP3    H174158   2.408   1.060  15.769  0.1160  0.1654 -0.3409
17581TIP3    H274159   2.318   0.957  15.834  0.3045  0.2480  0.0496
17582TIP3   OH274160   6.425   5.042   5.719  0.1208  0.0446  0.4879
17582TIP3    H174161   6.340   5.040   5.762  0.5546  0.5778  1.3991
17582TIP3    H274162   6.407   5.018   5.628 -0.8909 -0.5608  0.8433
17583TIP3   OH274163   5.596   4.823  11.932 -0.1715  0.3129  0.0480
17583TIP3    H174164   5.547   4.905  11.944  1.8552  1.5324  0.3639
17583TIP3    H274165   5.642   4.811  12.015 -0.8524 -1.4612  0.1830
17584TIP3   OH274166   2.073   2.742   0.569  0.6012 -0.2883  0.0546
17584TIP3    H174167   2.029   2.663   0.599  0.8538 -0.1628  0.7499
17584TIP3    H274168   2.155   2.711   0.530  0.5051 -0.4047 -0.0546
17585TIP3   OH274169   3.252   5.770   2.285  0.1552 -0.0327 -0.2261
17585TIP3    H174170   3.341   5.783   2.253 -0.0854  0.6416 -0.6171
17585TIP3    H274171   3.204   5.848   2.258 -0.7732 -0.7644 -0.7534
17586TIP3   OH274172   6.709   2.608   0.265 -0.0460  0.0895  0.2962
17586TIP3    H174173   6.736   2.589   0.175 -0.6933 -0.9005  0.3147
17586TIP3    H274174   6.782   2.577   0.319  0.2121  0.4166  0.1414
17587TIP3   OH274175   2.494   0.967   4.522  0.0960  0.2503 -0.8479
17587TIP3    H174176   2.439   0.999   4.450  0.1118  3.0504  0.3194
17587TIP3    H274177   2.432   0.945   4.592  0.3044  0.8448 -0.4791
17588TIP3   OH274178   6.672   1.767  16.600 -0.0335 -0.2413  0.0536
17588TIP3    H174179   6.667   1.846  16.654 -0.4346  0.2554 -0.7026
17588TIP3    H274180   6.585   1.727  16.608 -0.1121 -0.1349 -0.2775
17589TIP3   OH274181   1.960   6.692  12.750 -0.1489 -0.4115 -0.0065
17589TIP3    H174182   1.886   6.750  12.770  0.8763  0.7929  0.3706
17589TIP3    H274183   1.945   6.663  12.660 -3.4316 -3.7835  1.5079
17590TIP3   OH274184   2.324   0.807  11.836  0.1126  0.1612  0.8132
17590TIP3    H174185   2.244   0.755  11.824  0.3854 -0.0914  0.0884
17590TIP3    H274186   2.293   0.898  11.839 -0.3083  0.0025  1.5575
17591TIP3   OH274187   0.996   2.229  14.996 -0.6117 -0.3561  0.5383
17591TIP3    H174188   0.921   2.217  15.053 -0.1704 -0.0842  1.1811
17591TIP3    H274189   1.052   2.154  15.014 -0.7597 -0.5953  0.0098
17592TIP3   OH274190   0.858   2.097  13.155 -0.3042 -0.1335 -0.0195
17592TIP3    H174191   0.808   2.046  13.218 -1.1478  0.4644 -0.1970
17592TIP3    H274192   0.871   2.182  13.198  0.3713 -0.2104 -0.0631
17593TIP3   OH274193   3.885   1.061  14.019  0.1504  0.0686 -0.8207
17593TIP3    H174194   3.942   1.061  13.942  1.5497  0.3712  0.2068
17593TIP3    H274195   3.819   0.995  13.999  2.1400 -1.8878 -1.0887
17594TIP3   OH274196   1.186   5.079   5.442  0.1580  0.0533 -0.0311
17594TIP3    H174197   1.119   5.101   5.377 -0.9513  1.9471  1.6636
17594TIP3    H274198   1.266   5.067   5.392 -1.0871 -0.4481 -1.9227
17595TIP3   OH274199   2.307   6.210  15.694 -0.3848  0.1166 -0.5060
17595TIP3    H174200   2.309   6.269  15.619  1.7902 -0.6602 -1.0978
17595TIP3    H274201   2.307   6.122  15.656 -2.8936 -0.3247  0.3773
17596TIP3   OH274202   6.191   6.542  14.051  0.2035 -0.3983 -0.0500
17596TIP3    H174203   6.264   6.596  14.081 -2.2812  3.0092  0.2011
17596TIP3    H274204   6.164   6.494  14.128 -0.5386  1.6544  1.0151
17597TIP3   OH274205   4.612   1.738  14.953  0.1514  0.0082 -0.3407
17597TIP3    H174206   4.541   1.684  14.919 -1.5228  0.7169  1.9350
17597TIP3    H274207   4.575   1.825  14.960  1.8133  0.7774 -0.7870
17598TIP3   OH274208   5.237   2.017   4.357 -0.3896 -0.5071 -0.2923
17598TIP3    H174209   5.235   2.009   4.261  0.1440  1.2602 -0.4803
17598TIP3    H274210   5.151   2.052   4.379 -0.5040 -0.8941 -0.1296
17599TIP3   OH274211   2.869   4.108   3.357 -0.2217 -0.1293  0.4734
17599TIP3    H174212   2.922   4.042   3.314  0.5371  1.4640 -1.1184
17599TIP3    H274213   2.928   4.151   3.419 -0.1160  0.4521 -0.0199
17600TIP3   OH274214   3.510   3.889   1.452 -0.6100  0.4596  0.1796
17600TIP3    H174215   3.547   3.977   1.445 -3.0439  1.5640  0.4173
17600TIP3    H274216   3.472   3.872   1.366  0.4675 -0.6594 -0.0821
17601TIP3   OH274217   5.410   2.490  15.786  0.2182  0.5292  0.6070
17601TIP3    H174218   5.477   2.517  15.723  0.5721  0.0959  0.7949
17601TIP3    H274219   5.329   2.488  15.736  0.9383 -2.5306 -0.5468
17602TIP3   OH274220   6.485   2.303   6.274  0.1167 -0.3638  0.0448
17602TIP3    H174221   6.572   2.266   6.293 -0.6493 -1.1943  2.1769
17602TIP3    H274222   6.461   2.348   6.355 -1.2385  0.2966 -0.7131
17603TIP3   OH274223   3.005   4.021  11.897  0.2641  0.3525  0.1594
17603TIP3    H174224   3.034   3.934  11.924 -0.4817  0.7241  2.2713
17603TIP3    H274225   2.910   4.014  11.892  0.2714  0.7871 -0.6264
17604TIP3   OH274226   1.834   0.973   1.984  0.1800 -0.1986  0.0039
17604TIP3    H174227   1.774   0.955   2.055 -0.1813  2.1492  0.3366
17604TIP3    H274228   1.861   0.887   1.952 -2.3826 -1.2767  0.6521
17605TIP3   OH274229   1.050   2.137   5.783 -0.2074 -0.0870 -0.6635
17605TIP3    H174230   1.143   2.149   5.805 -0.0858  0.0056 -1.2112
17605TIP3    H274231   1.006   2.208   5.829 -0.2472 -1.2339  1.1277
17606TIP3   OH274232   2.113   4.011  16.054  0.2670  0.1812 -0.5935
17606TIP3    H174233   2.190   4.010  15.998  0.9718 -0.6463  0.3818
17606TIP3    H274234   2.124   4.089  16.109 -0.7116  1.3180 -1.9852
17607TIP3   OH274235   4.807   3.878  12.645 -0.1906  0.1485  0.2149
17607TIP3    H174236   4.765   3.801  12.606 -0.7503  0.8662 -0.6252
17607TIP3    H274237   4.757   3.952  12.611  0.3973  0.8887  0.9499
17608TIP3   OH274238   1.662   3.594  15.511 -0.6392 -0.5430 -0.1870
17608TIP3    H174239   1.658   3.689  15.516 -1.9881 -0.6372  0.9572
17608TIP3    H274240   1.733   3.570  15.570 -0.4229 -0.2618 -0.3310
17609TIP3   OH274241   0.869   2.032  13.585 -0.3597  0.3432  0.2200
17609TIP3    H174242   0.798   2.075  13.538  0.2886  0.4967 -0.6341
17609TIP3    H274243   0.829   1.953  13.622 -1.0215  0.5384 -0.0677
17610TIP3   OH274244   2.265   2.819  11.841 -0.4115 -0.0584 -0.6178
17610TIP3    H174245   2.315   2.891  11.802 -0.4727 -0.6616 -1.8393
17610TIP3    H274246   2.305   2.740  11.804 -0.9775 -0.6113 -0.0490
17611TIP3   OH274247   5.573   0.392  11.927 -0.1177 -0.0691 -0.0268
17611TIP3    H174248   5.647   0.446  11.899 -0.2186 -1.4455 -3.1232
17611TIP3    H274249   5.612   0.312  11.961 -0.1648 -0.5868 -1.1896
17612TIP3   OH274250   3.938   3.796   5.990  0.5695  0.0155 -0.3369
17612TIP3    H174251   3.942   3.892   5.998  0.6921 -0.0698  0.6945
17612TIP3    H274252   4.009   3.765   6.047 -0.7741 -0.7657  0.9237
17613TIP3   OH274253   5.710   1.642   3.108  0.5072 -0.2626 -0.3763
17613TIP3    H174254   5.784   1.687   3.149  0.5588  0.4481 -1.2487
17613TIP3    H274255   5.729   1.549   3.121  0.1819 -0.0546  1.8365
17614TIP3   OH274256   6.645   1.225   0.091  0.0924  0.2286  0.5998
17614TIP3    H174257   6.633   1.144   0.142 -0.8576  0.3155  0.5195
17614TIP3    H274258   6.712   1.202   0.027  0.1959 -0.3488  0.9031
17615TIP3   OH274259   2.901   2.829   5.681  0.0067 -0.5688 -1.0228
17615TIP3    H174260   2.834   2.891   5.654  0.1766  0.0090 -0.1425
17615TIP3    H274261   2.860   2.743   5.673 -0.8266 -0.2181 -0.5297
17616TIP3   OH274262   4.838   5.175  14.401 -0.3526  0.2930 -0.3898
17616TIP3    H174263   4.886   5.093  14.414  1.8483  1.5368 -0.3730
17616TIP3    H274264   4.815   5.203  14.490  0.2013  0.4245 -0.2818
17617TIP3   OH274265   4.987   3.133   1.052  0.5121  0.0498 -0.3954
17617TIP3    H174266   5.045   3.062   1.079 -0.1223 -0.6016 -0.7027
17617TIP3    H274267   5.014   3.209   1.104  1.8267 -0.1619 -0.7599
17618TIP3   OH274268   0.626   3.140  14.771  0.1215  0.2846 -0.2860
17618TIP3    H174269   0.706   3.088  14.772  0.2772  0.5141 -0.9422
17618TIP3    H274270   0.653   3.226  14.804  0.1420  0.3635 -0.5130
17619TIP3   OH274271   2.555   5.684  12.476  0.3831  0.2258 -0.9205
17619TIP3    H174272   2.511   5.662  12.559  0.4969 -0.5455 -1.0585
17619TIP3    H274273   2.636   5.632  12.478  0.9946  1.1598 -0.9509
17620TIP3   OH274274   0.752   6.271   4.345 -0.0958  0.1450  0.2825
17620TIP3    H174275   0.679   6.328   4.369 -0.4671 -0.0042 -0.4658
17620TIP3    H274276   0.723   6.228   4.264  1.6317  1.6438 -1.1915
17621TIP3   OH274277   3.429   5.906   3.612  0.0690  0.1026 -0.2094
17621TIP3    H174278   3.423   5.837   3.679  0.6713  0.6979  0.4750
17621TIP3    H274279   3.500   5.878   3.555  1.3793  0.8914  0.9729
17622TIP3   OH274280   4.924   1.790   5.245  0.0097  0.4836  0.2452
17622TIP3    H174281   4.955   1.706   5.210 -0.8242  0.3591 -0.2084
17622TIP3    H274282   4.839   1.804   5.202  0.2261  1.6468  0.1712
17623TIP3   OH274283   2.133   4.398  11.065  0.2051 -0.2335 -0.6430
17623TIP3    H174284   2.135   4.305  11.084  0.1197  0.2233  1.6986
17623TIP3    H274285   2.224   4.425  11.061  0.2946 -0.7587 -3.2933
17624TIP3   OH274286   6.415   1.665  16.577  0.4764 -0.4204 -0.2545
17624TIP3    H174287   6.362   1.724  16.631  1.0909  1.2587 -1.4436
17624TIP3    H274288   6.371   1.665  16.492  1.4046 -0.3688 -0.7399
17625TIP3   OH274289   0.651   3.978  16.243 -0.6061  0.4291  0.4403
17625TIP3    H174290   0.560   3.983  16.274  0.4276  2.3057  3.3843
17625TIP3    H274291   0.686   4.066  16.256  1.5109 -0.1645 -1.0696
17626TIP3   OH274292   1.265   0.318   1.834 -0.2971  0.5568 -0.5504
17626TIP3    H174293   1.170   0.303   1.838 -0.3098  0.5986 -0.6990
17626TIP3    H274294   1.290   0.335   1.925 -0.2572 -0.5016 -0.3585
17627TIP3   OH274295   5.125   3.635  14.672  0.0242  0.1223 -0.3951
17627TIP3    H174296   5.115   3.581  14.594  1.5296 -1.3434  0.3996
17627TIP3    H274297   5.109   3.724  14.642 -1.9032 -0.6729 -1.8601
17628TIP3   OH274298   6.508   4.419  13.730  0.0079  0.0499  0.5102
17628TIP3    H174299   6.589   4.402  13.779  0.9837 -0.9222 -1.3933
17628TIP3    H274300   6.477   4.333  13.705 -0.3754  0.5550 -0.7624
17629TIP3   OH274301   2.848   4.310   4.923 -0.6707 -0.1307  0.2726
17629TIP3    H174302   2.889   4.339   4.841 -1.4761 -1.3378 -0.5680
17629TIP3    H274303   2.755   4.306   4.903 -1.0241  0.7966  1.6367
17630TIP3   OH274304   2.321   3.198   6.422  0.1457 -0.1609  0.2168
17630TIP3    H174305   2.379   3.191   6.346  1.4715  1.2876  1.0607
17630TIP3    H274306   2.234   3.216   6.385  0.8519  0.8954 -0.9516
17631TIP3   OH274307   3.147   1.660   0.397  0.0287  0.1245 -0.7459
17631TIP3    H174308   3.126   1.661   0.303 -0.7028 -1.1856 -0.6077
17631TIP3    H274309   3.162   1.752   0.419 -2.3469  0.7520 -1.6056
17632TIP3   OH274310   2.410   6.253  13.630  1.0165  0.0935 -0.8152
17632TIP3    H174311   2.427   6.338  13.590 -0.6669  0.6944 -0.2955
17632TIP3    H274312   2.411   6.191  13.557 -0.2302  0.9206 -1.5608
17633TIP3   OH274313   4.380   1.581  14.877 -0.6783  0.2652  0.8030
17633TIP3    H174314   4.393   1.611  14.787 -1.8155 -0.4983  0.3748
17633TIP3    H274315   4.322   1.505  14.869 -0.5589  0.0223  2.1545
17634TIP3   OH274316   6.482   0.226  16.962 -0.6538 -0.0271 -0.1068
17634TIP3    H174317   6.464   0.313  16.996 -2.6768 -1.0739  1.6067
17634TIP3    H274318   6.486   0.237  16.867  0.9419  2.2156  0.1948
17635TIP3   OH274319   1.427   0.871   2.662  0.0841  0.3585 -0.2559
17635TIP3    H174320   1.395   0.961   2.652 -0.9318 -0.0738 -0.9177
17635TIP3    H274321   1.355   0.816   2.631  0.7962 -0.6825 -0.0853
17636TIP3   OH274322   3.979   0.088  15.670  0.3951  0.0650 -0.0385
17636TIP3    H174323   3.916   0.039  15.616 -0.2156  0.9321 -0.1205
17636TIP3    H274324   3.951   0.072  15.760  0.2166  0.2314 -0.0644
17637TIP3   OH274325   6.088   4.257  14.825 -0.5564  0.1105 -0.3303
17637TIP3    H174326   6.072   4.350  14.843  0.0529  0.6710 -2.4616
17637TIP3    H274327   6.043   4.210  14.895 -0.1061  2.0407  1.2941
17638TIP3   OH274328   1.985   5.412   1.555  0.1854  0.1845  0.2532
17638TIP3    H174329   1.935   5.483   1.595  0.3233 -0.0380  0.8266
17638TIP3    H274330   2.052   5.391   1.619 -1.9455 -2.7970  1.6139
17639TIP3   OH274331   3.945   1.521   2.696 -0.3533  0.1083  0.4236
17639TIP3    H174332   3.863   1.476   2.717 -0.3180 -0.2768 -0.2337
17639TIP3    H274333   3.965   1.493   2.606 -0.7185  2.0413 -0.2892
17640TIP3   OH274334   3.394   4.031  12.801 -0.0185 -0.0791  0.1664
17640TIP3    H174335   3.475   4.071  12.833 -0.0906  0.7915 -0.7370
17640TIP3    H274336   3.401   3.939  12.828  0.5335  0.3451  1.4859
17641TIP3   OH274337   2.233   6.038  11.776 -0.1366  1.1972  0.6533
17641TIP3    H174338   2.296   5.981  11.819 -0.3903  0.2818 -0.1631
17641TIP3    H274339   2.282   6.079  11.704 -0.4003  0.6724  0.1708
17642TIP3   OH274340   4.175   0.995   5.835 -0.4885 -0.1928  0.2238
17642TIP3    H174341   4.117   1.070   5.840  1.4046  1.1890  1.9764
17642TIP3    H274342   4.155   0.943   5.913  1.0086  0.5994  1.1553
17643TIP3   OH274343   4.699   3.884  11.566 -0.4395  0.4703 -0.2173
17643TIP3    H174344   4.716   3.819  11.633  1.0069  2.2336  1.1597
17643TIP3    H274345   4.755   3.859  11.493  0.3948  0.3787  0.4497
17644TIP3   OH274346   4.993   5.719  11.830  0.1837  0.5276 -0.0201
17644TIP3    H174347   4.999   5.706  11.735 -0.5796 -1.4696  0.1695
17644TIP3    H274348   4.999   5.814  11.842  2.6003  0.6515 -1.8773
17645TIP3   OH274349   0.189   3.520  17.081  0.0958 -0.3759  0.9435
17645TIP3    H174350   0.196   3.520  16.986  0.5485  1.9514  0.9241
17645TIP3    H274351   0.145   3.438  17.103  1.9153 -1.9473 -1.0987
17646TIP3   OH274352   1.877   0.357   2.892  0.2622 -0.5789 -0.0555
17646TIP3    H174353   1.815   0.332   2.824  0.3580 -1.1641  0.0687
17646TIP3    H274354   1.825   0.363   2.972  0.5603 -2.1975  0.2728
17647TIP3   OH274355   4.781   4.626   3.736  0.2666  0.4913  0.2042
17647TIP3    H174356   4.830   4.661   3.811 -2.1325  2.0454  1.1199
17647TIP3    H274357   4.774   4.533   3.753  1.5596  0.4934  0.8347
17648TIP3   OH274358   3.517   2.681  15.320  0.4184 -0.5730 -0.5963
17648TIP3    H174359   3.568   2.650  15.395 -2.0058 -0.6565  1.0798
17648TIP3    H274360   3.511   2.775  15.332  1.7623 -0.3194 -1.8272
17649TIP3   OH274361   3.962   3.108  15.551 -0.2912 -0.3770  0.0118
17649TIP3    H174362   3.977   3.197  15.520  0.7268 -0.5950 -0.1343
17649TIP3    H274363   4.023   3.097  15.624 -1.9420 -0.2205  1.4497
17650TIP3   OH274364   3.274   6.787   6.572  0.5938 -0.5312  0.3118
17650TIP3    H174365   3.194   6.827   6.538  1.6675  0.2182 -1.4579
17650TIP3    H274366   3.259   6.693   6.566  0.6156 -0.4212 -2.0495
17651TIP3   OH274367   3.307   5.605  11.662  0.5479  0.0424 -0.9007
17651TIP3    H174368   3.257   5.627  11.583  0.7971 -1.0335 -1.3735
17651TIP3    H274369   3.356   5.526  11.638  0.8170 -0.1538  0.2536
17652TIP3   OH274370   5.801   1.690  16.340  0.1086  0.2283 -0.0769
17652TIP3    H174371   5.856   1.760  16.375 -0.1542  0.2430  0.3107
17652TIP3    H274372   5.713   1.711  16.371 -0.2082  0.5024 -1.1598
17653TIP3   OH274373   0.184   3.132   1.890 -0.9053 -0.0615 -0.4309
17653TIP3    H174374   0.105   3.178   1.859 -1.4821 -0.9500 -0.2982
17653TIP3    H274375   0.198   3.063   1.825  1.1677  1.5661 -1.7750
17654TIP3   OH274376   3.143   4.048   3.766  0.1556  0.0568 -0.0598
17654TIP3    H174377   3.188   4.005   3.838 -0.1258  0.7047  0.5156
17654TIP3    H274378   3.193   4.024   3.688  0.8572 -0.1071  0.4360
17655TIP3   OH274379   2.974   6.095   5.883 -0.2055 -0.6291 -0.1999
17655TIP3    H174380   3.068   6.084   5.890  0.1691  2.2120 -0.1168
17655TIP3    H274381   2.950   6.149   5.958 -1.4359  0.9354 -1.6439
17656TIP3   OH274382   5.928   4.223   4.616 -0.6824  0.3385 -0.1731
17656TIP3    H174383   5.917   4.287   4.546 -0.3941 -0.3099 -0.8244
17656TIP3    H274384   5.839   4.195   4.637 -0.8381  1.2602  0.4087
17657TIP3   OH274385   3.240   0.851  17.090  0.4926  0.3246  0.4376
17657TIP3    H174386   3.273   0.940  17.086  0.8678  0.1238 -1.0529
17657TIP3    H274387   3.278   0.807  17.014 -0.3247 -0.8908  0.7066
17658TIP3   OH274388   2.889   4.663  15.667  0.2817 -0.2568  0.3734
17658TIP3    H174389   2.861   4.732  15.607  0.1719 -0.5458  0.0894
17658TIP3    H274390   2.902   4.707  15.751 -0.1870  0.0354  0.2925
17659TIP3   OH274391   0.147   5.022   5.487 -0.0872 -0.2011 -0.3644
17659TIP3    H174392   0.224   4.973   5.513  0.8720  0.7579 -1.3400
17659TIP3    H274393   0.075   4.958   5.490  0.7380 -1.0999  0.5082
17660TIP3   OH274394   3.398   6.194   0.172 -0.0315 -0.1934  0.2167
17660TIP3    H174395   3.446   6.191   0.090  1.1050 -3.1044  0.9487
17660TIP3    H274396   3.458   6.236   0.234 -0.1036  0.0925  0.0972
17661TIP3   OH274397   0.687   1.868  15.546 -0.1414 -0.6518  0.1823
17661TIP3    H174398   0.742   1.812  15.601  1.4414  1.7085  1.0787
17661TIP3    H274399   0.642   1.925  15.607  0.1011  0.6650 -0.8451
17662TIP3   OH274400   0.822   1.576   4.292  0.0647  0.1223  0.0820
17662TIP3    H174401   0.784   1.488   4.298 -0.1634  0.1981 -0.2180
17662TIP3    H274402   0.916   1.561   4.290  0.0130 -0.1512 -0.5110
17663TIP3   OH274403   4.242   6.248  15.329  0.0732 -0.2001  0.2924
17663TIP3    H174404   4.201   6.168  15.295 -1.5889 -0.2434  2.2353
17663TIP3    H274405   4.265   6.226  15.419 -0.8093  1.6361  0.9918
17664TIP3   OH274406   1.908   0.230   4.922 -0.0562 -0.4469  0.0236
17664TIP3    H174407   1.935   0.298   4.860 -0.5081  1.6775  2.0859
17664TIP3    H274408   1.990   0.204   4.965 -0.2223  0.8403  1.1856
17665TIP3   OH274409   1.268   3.751   4.912 -0.0531  0.0253  0.4033
17665TIP3    H174410   1.192   3.750   4.970 -0.1767 -0.2526  0.2352
17665TIP3    H274411   1.246   3.690   4.841 -0.9204  2.1695 -1.2419
17666TIP3   OH274412   6.783   3.240  16.106 -0.3036 -0.5836 -0.0616
17666TIP3    H174413   6.848   3.218  16.040 -0.1325  2.7308 -1.1255
17666TIP3    H274414   6.700   3.244  16.057 -0.3406  0.8622  0.0886
17667TIP3   OH274415   1.225   0.872  13.123  0.1173  0.0699  0.5118
17667TIP3    H174416   1.153   0.884  13.060 -0.7600  0.1160  1.5065
17667TIP3    H274417   1.188   0.900  13.206  0.9872 -0.8481  1.2154
17668TIP3   OH274418   5.641   4.601  13.601  0.3459 -0.5773 -0.6666
17668TIP3    H174419   5.589   4.681  13.610 -0.8112 -1.2562 -1.2326
17668TIP3    H274420   5.580   4.530  13.619  1.5807 -1.3193  0.7000
17669TIP3   OH274421   4.810   2.987  16.542 -0.3476  0.0325 -0.0628
17669TIP3    H174422   4.847   2.994  16.454  0.1120 -1.9771 -0.0486
17669TIP3    H274423   4.865   2.924  16.587 -1.2954  0.1407  1.3102
17670TIP3   OH274424   0.779   4.750  15.183  0.9238  0.1342  0.2137
17670TIP3    H174425   0.805   4.841  15.166  0.3839  0.3516  0.5351
17670TIP3    H274426   0.806   4.735  15.274  2.0993 -0.4136 -0.2221
17671TIP3   OH274427   2.844   4.813   2.222  0.0473  0.1266  0.1612
17671TIP3    H174428   2.865   4.890   2.276 -0.0153  1.0082 -1.0439
17671TIP3    H274429   2.913   4.750   2.243  0.8116  0.9761  0.2659
17672TIP3   OH274430   3.536   3.317   1.197  0.1604  0.5339 -0.8251
17672TIP3    H174431   3.452   3.305   1.152  0.5218  1.5240 -1.7660
17672TIP3    H274432   3.511   3.347   1.285 -0.5659 -2.0219 -0.0944
17673TIP3   OH274433   2.045   6.291  15.196 -0.0511  0.4724 -0.0061
17673TIP3    H174434   2.056   6.378  15.157 -0.5709 -0.0132 -1.2798
17673TIP3    H274435   2.072   6.302  15.287  1.7288  1.5118 -0.6263
17674TIP3   OH274436   2.532   2.866   6.662 -0.0786  0.0433  0.4652
17674TIP3    H174437   2.453   2.919   6.665 -1.2362 -1.6110 -0.3638
17674TIP3    H274438   2.551   2.844   6.753 -1.2162 -0.4844  0.5760
17675TIP3   OH274439   5.929   1.711   3.251 -0.3226  0.0778  0.1550
17675TIP3    H174440   5.991   1.782   3.231 -0.3342  0.5680  1.7344
17675TIP3    H274441   5.945   1.692   3.344 -2.1588 -0.1671  0.4315
17676TIP3   OH274442   2.244   6.434   5.597 -0.1822  0.1880  0.1079
17676TIP3    H174443   2.240   6.522   5.560 -1.0326  0.1741  0.1401
17676TIP3    H274444   2.158   6.422   5.639 -1.3827 -1.8621 -2.7259
17677TIP3   OH274445   1.066   4.515   5.186 -0.2618  0.5900 -0.4047
17677TIP3    H174446   1.086   4.425   5.211  0.7563  0.5541 -1.3149
17677TIP3    H274447   1.068   4.563   5.269 -2.2409 -0.4652  0.2837
17678TIP3   OH274448   3.788   3.511   5.817  0.5919  0.9112 -0.2275
17678TIP3    H174449   3.730   3.536   5.745  0.2659 -2.0385 -1.0502
17678TIP3    H274450   3.875   3.506   5.778  0.2306 -1.9645 -0.8256
17679TIP3   OH274451   3.278   2.930   4.115  0.6393  0.1052  0.2552
17679TIP3    H174452   3.213   2.862   4.099  0.7375 -0.0396  0.4756
17679TIP3    H274453   3.347   2.914   4.051 -0.2035  1.1165 -0.9453
17680TIP3   OH274454   5.605   1.971   5.077 -0.2108 -0.0246  0.0424
17680TIP3    H174455   5.510   1.974   5.066 -0.3518  1.3294  1.5433
17680TIP3    H274456   5.639   1.958   4.989 -1.7722 -0.2165 -0.5443
17681TIP3   OH274457   1.259   0.244   2.949  0.7764  0.4105  0.5744
17681TIP3    H174458   1.239   0.334   2.924  0.7087  0.0271 -0.7902
17681TIP3    H274459   1.328   0.217   2.888 -1.0952 -1.3556 -0.8213
17682TIP3   OH274460   4.658   6.311  15.686  0.1905  0.0087 -0.3775
17682TIP3    H174461   4.658   6.236  15.627  1.2934 -1.4954  1.4746
17682TIP3    H274462   4.727   6.292  15.750 -0.1740  2.1372  0.7183
17683TIP3   OH274463   2.273   3.969  12.803 -0.0244  0.6728 -0.0883
17683TIP3    H174464   2.188   3.969  12.759  0.1160  0.2755 -0.3668
17683TIP3    H274465   2.254   3.940  12.892  0.2503 -2.8055 -1.0684
17684TIP3   OH274466   3.497   0.895   0.618  0.0143  0.1206 -0.1909
17684TIP3    H174467   3.409   0.932   0.616 -0.0235  0.1660  1.5620
17684TIP3    H274468   3.549   0.955   0.565 -0.7702  0.7669 -0.2388
17685TIP3   OH274469   5.087   3.975  13.107 -0.1817  0.2531  0.3203
17685TIP3    H174470   5.023   3.969  13.036  1.3822 -2.0167 -0.9581
17685TIP3    H274471   5.103   4.069  13.116 -0.7162  0.6163 -2.0854
17686TIP3   OH274472   0.958   1.149   3.577  0.2611 -0.3880 -0.1980
17686TIP3    H174473   1.010   1.074   3.549  2.1509  0.6129  0.5475
17686TIP3    H274474   0.878   1.111   3.612  0.6981 -1.9885 -0.8831
17687TIP3   OH274475   5.361   0.376  12.628 -0.2418  0.6209 -0.2844
17687TIP3    H174476   5.451   0.401  12.607 -0.0044 -0.6987 -0.9111
17687TIP3    H274477   5.331   0.328  12.551 -0.8176 -0.6379  0.7087
17688TIP3   OH274478   2.454   2.731   2.367 -0.6126  0.6618 -0.1492
17688TIP3    H174479   2.407   2.752   2.447 -0.8533  0.4592 -0.2355
17688TIP3    H274480   2.541   2.768   2.379 -0.6577  0.6517  0.1944
17689TIP3   OH274481   6.014   0.373  16.053 -0.4757 -0.0952 -0.7009
17689TIP3    H174482   6.067   0.334  16.122 -3.9910 -2.0534  1.0399
17689TIP3    H274483   5.963   0.441  16.098 -1.8289 -0.4850 -1.6109
17690TIP3   OH274484   6.388   5.412  12.246  0.2679  0.4714 -0.0375
17690TIP3    H174485   6.394   5.450  12.158  1.1515  0.3740 -0.0280
17690TIP3    H274486   6.347   5.327  12.232  0.7592  0.2919 -0.4084
17691TIP3   OH274487   5.070   0.244  11.146 -0.4663 -0.0653  0.5441
17691TIP3    H174488   5.038   0.225  11.058  0.9657 -0.0284  0.0114
17691TIP3    H274489   5.066   0.159  11.191 -1.1740 -0.0884  0.4476
17692TIP3   OH274490   2.345   4.645  17.146 -0.1003 -0.2403 -0.0612
17692TIP3    H174491   2.422   4.588  17.136 -0.6873 -0.9615 -0.5593
17692TIP3    H274492   2.334   4.685  17.060  0.4010  0.7595  0.3295
17693TIP3   OH274493   6.337   5.763  16.454  0.2240 -0.6318 -0.1405
17693TIP3    H174494   6.273   5.695  16.472  0.7969 -0.4880  2.6701
17693TIP3    H274495   6.286   5.844  16.452  0.2794 -0.4623  2.5082
17694TIP3   OH274496   3.878   5.396  15.599  0.4739 -0.3584  0.4918
17694TIP3    H174497   3.948   5.461  15.604 -1.0343  1.2988  0.7495
17694TIP3    H274498   3.808   5.432  15.654 -2.2754  0.1601 -3.1907
17695TIP3   OH274499   2.451   4.486  15.885 -0.1709 -0.0706 -0.2391
17695TIP3    H174500   2.452   4.424  15.812 -0.0116  0.5548 -0.7711
17695TIP3    H274501   2.401   4.442  15.954 -2.0596  0.1417 -1.4376
17696TIP3   OH274502   6.622   6.055   4.006  0.5218  0.1211  0.3665
17696TIP3    H174503   6.712   6.025   3.990  0.5057  0.9059 -1.1892
17696TIP3    H274504   6.583   6.064   3.920 -0.5890  1.2378  0.9668
17697TIP3   OH274505   0.412   4.783   5.113 -0.6269 -0.0195 -0.6101
17697TIP3    H174506   0.500   4.759   5.084 -1.5142 -1.2974 -2.3632
17697TIP3    H274507   0.406   4.877   5.095  0.5658  0.1962  0.0477
17698TIP3   OH274508   2.691   2.886   4.480 -0.3579 -0.5524  0.7164
17698TIP3    H174509   2.721   2.840   4.559 -4.1206 -0.8951  2.0233
17698TIP3    H274510   2.652   2.817   4.426  2.2155 -0.3317 -1.5694
17699TIP3   OH274511   4.727   5.737   0.672  0.7608 -0.4253 -0.1906
17699TIP3    H174512   4.781   5.790   0.613 -0.4622 -1.8599 -2.6881
17699TIP3    H274513   4.637   5.764   0.653  0.1833 -2.6358 -0.8024
17700TIP3   OH274514   3.588   1.124  15.130  0.8670 -0.6979  0.5520
17700TIP3    H174515   3.561   1.199  15.182  1.5697  0.2211 -0.3926
17700TIP3    H274516   3.575   1.152  15.039  0.4961 -1.9610  0.2044
17701TIP3   OH274517   5.086   1.179   4.013 -0.0521  0.6260 -0.4241
17701TIP3    H174518   5.069   1.220   3.929  0.1687  0.5141 -0.5234
17701TIP3    H274519   5.005   1.133   4.035 -0.3945  1.3342 -0.1863
17702TIP3   OH274520   4.094   3.346  14.234  0.4114 -0.0852  0.4638
17702TIP3    H174521   4.078   3.321  14.325 -0.1000 -0.6809  0.2114
17702TIP3    H274522   4.008   3.344  14.193  0.9987 -2.5863 -0.7217
17703TIP3   OH274523   2.065   0.153   0.620 -0.4892 -0.1567 -0.2875
17703TIP3    H174524   2.095   0.213   0.551 -1.2950 -0.8666 -1.2774
17703TIP3    H274525   1.971   0.144   0.603 -0.8712  0.4007  1.4897
17704TIP3   OH274526   1.818   2.431   3.971 -0.1424  0.9686 -0.4574
17704TIP3    H174527   1.849   2.375   4.042 -1.8077  2.0568  1.1702
17704TIP3    H274528   1.735   2.393   3.944  0.3011  0.7785 -1.6011
17705TIP3   OH274529   5.223   3.480  11.505  0.4065  0.8539 -0.5412
17705TIP3    H174530   5.140   3.437  11.521  0.9570  0.4050  1.2383
17705TIP3    H274531   5.202   3.553  11.447 -1.2350  0.7686 -0.0736
17706TIP3   OH274532   0.190   0.069   3.860  0.2827  0.4483 -0.5782
17706TIP3    H174533   0.170   0.152   3.903 -2.3644 -0.7557  0.6667
17706TIP3    H274534   0.280   0.050   3.886  0.4893  2.2784  0.1845
17707TIP3   OH274535   3.644   4.849   0.996 -0.1075  0.3698 -0.2717
17707TIP3    H174536   3.636   4.908   1.071 -0.9536  3.3658 -2.6080
17707TIP3    H274537   3.695   4.899   0.931  0.9968 -2.3054 -1.5607
17708TIP3   OH274538   5.369   2.105   2.794  0.0950 -0.0348 -0.3259
17708TIP3    H174539   5.293   2.079   2.742 -0.5761  1.1214  0.0558
17708TIP3    H274540   5.396   2.189   2.758 -0.3518  0.7625  1.1420
17709TIP3   OH274541   4.554   6.127  14.729  0.0895 -0.2552  0.0259
17709TIP3    H174542   4.625   6.083  14.683 -0.1536 -0.2603 -0.3546
17709TIP3    H274543   4.511   6.179  14.661 -1.4861 -1.7844 -0.2066
17710TIP3   OH274544   3.574   1.981   4.719  0.7176  0.1778  0.1091
17710TIP3    H174545   3.509   1.928   4.672  1.3734 -1.3655  0.9017
17710TIP3    H274546   3.649   1.983   4.660  1.0104 -0.5222  0.4555
17711TIP3   OH274547   2.392   3.106   0.308 -0.2227 -0.3089  0.1312
17711TIP3    H174548   2.478   3.132   0.273 -0.9924  1.2775 -0.6182
17711TIP3    H274549   2.398   3.122   0.402  0.5572 -0.9184  0.1883
17712TIP3   OH274550   3.983   1.150   2.010  0.3221  0.3147  0.2610
17712TIP3    H174551   4.013   1.087   2.075 -0.2956 -0.1184  0.1306
17712TIP3    H274552   4.062   1.174   1.961  0.3821 -1.2033 -0.4059
17713TIP3   OH274553   2.351   4.959   4.502 -0.4055  0.3939  0.5856
17713TIP3    H174554   2.442   4.962   4.532 -0.3895  0.9719  0.4879
17713TIP3    H274555   2.335   4.866   4.483  0.2833  0.3418  0.2443
17714TIP3   OH274556   4.882   0.388  13.220  0.1605  0.0063  0.0149
17714TIP3    H174557   4.920   0.466  13.261  0.8811 -0.4496  0.2373
17714TIP3    H274558   4.788   0.404  13.219  0.3476  1.1303 -0.4668
17715TIP3   OH274559   5.093   6.384   3.882  0.1297  0.1996  0.0921
17715TIP3    H174560   5.075   6.328   3.806 -1.9352 -0.0032  0.6966
17715TIP3    H274561   5.152   6.332   3.937  2.3686  0.7153 -1.7766
17716TIP3   OH274562   6.703   4.106   3.875  0.0751 -0.1576  0.3165
17716TIP3    H174563   6.657   4.098   3.791  1.5882  1.2028 -0.6760
17716TIP3    H274564   6.710   4.016   3.907 -1.0253 -0.6394 -0.7218
17717TIP3   OH274565   6.579   0.426  16.458 -0.1612  0.1948 -0.3931
17717TIP3    H174566   6.573   0.385  16.371 -0.9456 -0.5701  0.0060
17717TIP3    H274567   6.653   0.382  16.500 -0.3920 -0.1280 -0.3234
17718TIP3   OH274568   5.149   1.481  15.855  0.3835 -0.3232  0.5548
17718TIP3    H174569   5.120   1.402  15.811 -0.7535 -0.3836  1.3883
17718TIP3    H274570   5.235   1.459  15.890 -0.8209 -1.9260  2.6378
17719TIP3   OH274571   2.598   0.814  12.604  0.3855 -0.1093  0.0666
17719TIP3    H174572   2.538   0.767  12.662  0.6175 -1.4798 -0.7713
17719TIP3    H274573   2.682   0.810  12.648  0.3116 -0.1205  0.2066
17720TIP3   OH274574   0.259   2.024   5.765  0.5706  0.3610 -0.4699
17720TIP3    H174575   0.315   2.014   5.688  1.9017 -1.1312  0.6710
17720TIP3    H274576   0.254   2.119   5.779  0.5903  0.6340 -2.1717
17721TIP3   OH274577   5.397   1.035  16.898  0.0822  0.7913 -0.0662
17721TIP3    H174578   5.361   0.949  16.874 -0.9173  1.2362 -0.2058
17721TIP3    H274579   5.420   1.075  16.814 -1.1608  1.3804 -0.1428
17722TIP3   OH274580   4.011   0.122   4.784 -0.3005  0.5181  0.4447
17722TIP3    H174581   4.107   0.119   4.784 -0.3096  0.1771 -0.2322
17722TIP3    H274582   3.986   0.067   4.858  0.0196  0.4396  0.4973
17723TIP3   OH274583   1.016   4.526   2.559  0.2355  0.3506 -0.2133
17723TIP3    H174584   1.035   4.523   2.653 -1.4068  1.4880  0.1735
17723TIP3    H274585   0.929   4.489   2.551 -0.1425  1.4158 -1.1195
17724TIP3   OH274586   2.758   2.529  14.295 -0.4841  0.4009  0.1609
17724TIP3    H174587   2.717   2.613  14.317 -0.3652  0.2980  0.7863
17724TIP3    H274588   2.749   2.522  14.200 -0.0353  1.3588  0.0458
17725TIP3   OH274589   3.633   0.998  10.721 -0.6604  0.2430 -0.4563
17725TIP3    H174590   3.579   1.069  10.684 -0.7396  1.3336  1.6716
17725TIP3    H274591   3.571   0.942  10.767 -0.6892 -1.6481 -2.7012
17726TIP3   OH274592   4.175   1.369   2.101 -0.4513 -0.0035 -0.2442
17726TIP3    H174593   4.233   1.435   2.062  0.2802 -0.3184  0.2940
17726TIP3    H274594   4.230   1.291   2.108  0.3198  0.8029  3.9990
17727TIP3   OH274595   0.803   0.547   5.615  0.3116  0.3586  0.6863
17727TIP3    H174596   0.729   0.535   5.675  0.4628  0.9627  0.9935
17727TIP3    H274597   0.797   0.639   5.588  0.9168  0.3911  0.6659
17728TIP3   OH274598   5.206   6.248  14.736 -0.7690  0.0073 -0.4912
17728TIP3    H174599   5.270   6.236  14.667 -0.3080  0.4198 -0.1441
17728TIP3    H274600   5.130   6.287  14.693 -0.4099  0.4474 -0.7305
17729TIP3   OH274601   1.410   6.742   0.530  0.4462  0.4888  0.2960
17729TIP3    H174602   1.419   6.746   0.435  1.5398  0.4613  0.3896
17729TIP3    H274603   1.338   6.802   0.550 -0.7973 -0.6672 -0.6823
17730TIP3   OH274604   4.456   3.837  10.595  0.4381  0.7856 -0.3994
17730TIP3    H174605   4.417   3.886  10.522 -2.1214  0.5557  0.7692
17730TIP3    H274606   4.425   3.882  10.674  1.2283 -0.3921  0.6076
17731TIP3   OH274607   3.824   3.215   4.793 -0.4718 -0.1577 -0.6174
17731TIP3    H174608   3.733   3.238   4.773 -1.1886 -2.1408  0.1979
17731TIP3    H274609   3.817   3.132   4.841  1.7761 -0.3695 -0.6255
17732TIP3   OH274610   1.430   1.439   1.002  0.6330 -0.1438 -0.7448
17732TIP3    H174611   1.488   1.385   0.947  0.1696  0.0524 -1.4372
17732TIP3    H274612   1.472   1.440   1.088  1.7784  0.1804 -1.2971
17733TIP3   OH274613   2.226   1.663   3.498 -0.8302  0.3966 -0.1039
17733TIP3    H174614   2.178   1.580   3.494 -0.6845  0.2978  0.1395
17733TIP3    H274615   2.227   1.686   3.591  1.6283 -0.8110  0.2255
17734TIP3   OH274616   2.480   1.501  12.552 -0.1526 -0.6556  0.2890
17734TIP3    H174617   2.491   1.552  12.632  1.0637 -0.3856 -0.0409
17734TIP3    H274618   2.532   1.422  12.567 -0.9323 -1.1840  0.2538
17735TIP3   OH274619   3.904   5.488   5.573 -0.3368  0.3257 -0.1548
17735TIP3    H174620   3.909   5.395   5.596  0.7602 -0.4886 -3.4556
17735TIP3    H274621   3.984   5.526   5.611 -0.9740  0.0218  1.5265
17736TIP3   OH274622   6.686   1.455   5.264 -0.1504  0.2129 -0.2262
17736TIP3    H174623   6.735   1.518   5.316 -0.9621  0.6633  0.0014
17736TIP3    H274624   6.594   1.482   5.273 -0.4443 -0.6285 -0.6284
17737TIP3   OH274625   5.779   0.134   5.513  0.2400 -0.4635  0.0633
17737TIP3    H174626   5.688   0.120   5.539 -0.1106  0.7182 -0.4797
17737TIP3    H274627   5.790   0.078   5.435  0.2998 -1.4170  0.7510
17738TIP3   OH274628   1.618   1.578   3.157  0.0184  0.2006  0.0890
17738TIP3    H174629   1.525   1.568   3.141 -0.2516  1.9876  0.3936
17738TIP3    H274630   1.655   1.597   3.070  0.1884 -1.0821 -0.1217
17739TIP3   OH274631   0.474   4.151   3.875 -0.1480 -0.2055 -0.4760
17739TIP3    H174632   0.437   4.109   3.798 -0.9122  3.3065 -2.1460
17739TIP3    H274633   0.429   4.236   3.879  1.2785  0.4636  2.7244
17740TIP3   OH274634   3.232   5.705  13.748 -0.4100 -0.1058  0.6701
17740TIP3    H174635   3.162   5.713  13.683  0.7032 -1.0557 -0.6761
17740TIP3    H274636   3.275   5.623  13.727  1.3284  0.6259  1.2701
17741TIP3   OH274637   4.261   1.992  16.498  0.2208 -0.1744 -0.6017
17741TIP3    H174638   4.352   1.975  16.523  1.3087  1.0141 -3.5657
17741TIP3    H274639   4.259   2.084  16.473 -2.1442  0.1662  0.6633
17742TIP3   OH274640   0.848   2.020   2.539 -0.5059  0.3868  0.0683
17742TIP3    H174641   0.853   1.952   2.471  1.3321  1.6003 -1.0555
17742TIP3    H274642   0.867   1.973   2.620 -0.5829 -0.6928 -0.5150
17743TIP3   OH274643   2.334   5.199  16.672 -0.0086  0.4169  0.4439
17743TIP3    H174644   2.370   5.288  16.670 -3.2408  1.8231  1.4575
17743TIP3    H274645   2.360   5.164  16.757  0.8346  0.5522  0.2474
17744TIP3   OH274646   4.513   6.447   0.708 -0.4063  0.4629  0.5924
17744TIP3    H174647   4.519   6.529   0.757  0.6048  0.5484  0.3488
17744TIP3    H274648   4.604   6.426   0.687 -0.8683  1.0591 -2.2613
17745TIP3   OH274649   6.234   1.748   3.663  0.8422 -0.1532 -0.2065
17745TIP3    H174650   6.201   1.830   3.702  0.5382  0.0102 -0.8057
17745TIP3    H274651   6.235   1.686   3.736 -0.4649 -0.0617 -0.0900
17746TIP3   OH274652   3.074   5.315   4.824 -0.1428 -0.0708  0.0764
17746TIP3    H174653   3.074   5.399   4.778  0.6767 -0.1155 -0.0040
17746TIP3    H274654   3.016   5.329   4.900 -0.2479  0.4680 -0.1004
17747TIP3   OH274655   5.908   5.133   0.838  0.2377  0.2937 -0.0051
17747TIP3    H174656   5.959   5.135   0.757 -0.5032  1.6399 -0.4581
17747TIP3    H274657   5.817   5.125   0.809 -0.0738  1.2529  0.6541
17748TIP3   OH274658   3.736   6.384   4.605  0.2223 -0.7617  0.2940
17748TIP3    H174659   3.772   6.403   4.691  0.9912 -0.0282 -0.1760
17748TIP3    H274660   3.801   6.419   4.544 -0.7475 -0.4463 -0.5789
17749TIP3   OH274661   2.664   6.273  14.886  0.4429  0.2078 -0.0774
17749TIP3    H174662   2.735   6.332  14.864 -0.0405  0.5962 -0.5916
17749TIP3    H274663   2.621   6.254  14.802 -1.0103  1.1976  0.4223
17750TIP3   OH274664   1.911   6.587  13.620 -0.3625 -0.0596  0.7586
17750TIP3    H174665   1.857   6.581  13.699 -1.3249 -0.3275  0.0882
17750TIP3    H274666   1.863   6.647  13.563  0.4440  0.3038  0.4650
17751TIP3   OH274667   3.971   1.871  11.307 -0.2872 -0.5466  0.6788
17751TIP3    H174668   4.043   1.880  11.370  0.4303 -2.8642  0.2452
17751TIP3    H274669   3.894   1.854  11.361 -0.3175  0.8101  1.0872
17752TIP3   OH274670   0.078   0.327  10.293  0.4566  0.7749  0.3234
17752TIP3    H174671   0.139   0.383  10.245 -1.0508  4.1380  2.2018
17752TIP3    H274672  -0.008   0.365  10.277 -0.8438 -2.1017  0.2149
17753TIP3   OH274673   2.969   3.754  15.801 -0.1863 -0.2416 -0.1789
17753TIP3    H174674   2.965   3.848  15.817 -0.0158 -0.3870  0.7373
17753TIP3    H274675   2.888   3.719  15.839  0.0597 -0.5494  0.0647
17754TIP3   OH274676   2.333   2.656   0.466  0.0071 -0.3540 -0.0401
17754TIP3    H174677   2.286   2.721   0.414  0.8285 -1.6588 -2.4371
17754TIP3    H274678   2.385   2.709   0.527  0.0036  1.2325 -1.3624
17755TIP3   OH274679   5.509   1.791   4.481 -0.4140  0.1935 -0.2176
17755TIP3    H174680   5.522   1.724   4.414  0.6355 -0.7013  0.8551
17755TIP3    H274681   5.575   1.772   4.548 -2.2411  0.2638  1.6892
17756TIP3   OH274682   3.450   2.726  14.310  0.9172  0.2039 -0.5853
17756TIP3    H174683   3.535   2.722  14.354 -0.2929 -0.5794  1.7328
17756TIP3    H274684   3.419   2.635  14.308 -0.9312  0.7826  0.7343
17757TIP3   OH274685   4.170   6.638  14.126 -0.3021 -0.3808 -0.0861
17757TIP3    H174686   4.221   6.660  14.205 -0.0807 -0.7529 -0.1253
17757TIP3    H274687   4.236   6.621  14.059 -0.4942  0.9918 -0.6480
17758TIP3   OH274688   2.979   5.530   5.751 -0.2588 -0.3322  0.1757
17758TIP3    H174689   2.994   5.577   5.832  0.2087 -0.3995  0.1315
17758TIP3    H274690   3.053   5.469   5.744 -0.5155 -0.6192 -0.0880
17759TIP3   OH274691   1.297   6.254   4.849 -0.7124 -0.0536 -0.1201
17759TIP3    H174692   1.338   6.169   4.830  0.9396  0.8465 -0.6644
17759TIP3    H274693   1.229   6.263   4.782 -0.8768 -0.9216 -0.0813
17760TIP3   OH274694   3.332   2.949  11.196 -0.4040  0.6057  0.2984
17760TIP3    H174695   3.266   2.945  11.126  0.2906 -0.5445 -0.3117
17760TIP3    H274696   3.405   2.997  11.157 -0.3657  0.7322  0.5279
17761TIP3   OH274697   1.354   5.802  12.615  0.2432  0.3921  0.1685
17761TIP3    H174698   1.263   5.773  12.606  0.7425 -1.5218  1.1219
17761TIP3    H274699   1.394   5.740  12.676  2.7932 -0.1965 -1.9737
17762TIP3   OH274700   4.506   4.675   0.212 -0.1885 -0.4263  0.2874
17762TIP3    H174701   4.564   4.751   0.208 -1.4314  0.6342  1.6960
17762TIP3    H274702   4.536   4.626   0.289 -0.5009 -0.4218  0.4125
17763TIP3   OH274703   4.192   1.072  15.827  0.4443  0.4839  0.4092
17763TIP3    H174704   4.217   1.013  15.899 -0.4206  1.0511  1.1845
17763TIP3    H274705   4.101   1.096  15.846  1.1232  2.9581  0.7274
17764TIP3   OH274706   1.223   4.805   0.418 -0.7526  0.3636  0.6835
17764TIP3    H174707   1.149   4.827   0.361  1.3341  1.4392 -1.6970
17764TIP3    H274708   1.254   4.889   0.451  0.5582  0.0993  0.1595
17765TIP3   OH274709   3.901   1.303  13.684 -0.1466  0.1285  0.0031
17765TIP3    H174710   3.953   1.224  13.699  0.0929  0.2354 -0.2672
17765TIP3    H274711   3.933   1.365  13.750 -0.3662 -0.0129  0.2452
17766TIP3   OH274712   0.522   4.466  11.428  0.3244 -0.2307 -0.2459
17766TIP3    H174713   0.445   4.495  11.476  1.5176  0.2827  1.4185
17766TIP3    H274714   0.563   4.547  11.397  2.4420 -0.1822  2.4859
17767TIP3   OH274715   1.235   3.261  11.217 -0.0292  0.5635  0.2256
17767TIP3    H174716   1.277   3.275  11.133 -0.6419 -2.5381 -0.6475
17767TIP3    H274717   1.141   3.266  11.198 -0.1874 -0.9425  0.5514
17768TIP3   OH274718   1.177   5.355  15.877  0.0431 -0.2145  0.5046
17768TIP3    H174719   1.246   5.421  15.885  1.0355 -1.3155  1.2016
17768TIP3    H274720   1.096   5.405  15.883  0.7398  1.3352 -2.2462
17769TIP3   OH274721   0.248   3.514  14.293  0.3637  0.3383  0.4348
17769TIP3    H174722   0.275   3.501  14.384 -0.0915 -3.0827  0.1514
17769TIP3    H274723   0.156   3.541  14.299  0.0986 -0.6455  1.0016
17770TIP3   OH274724   5.733   2.513   1.091 -0.1388 -0.6234  0.1164
17770TIP3    H174725   5.696   2.428   1.069 -1.2018  0.3215 -1.8550
17770TIP3    H274726   5.797   2.530   1.023 -1.3312  1.0078 -0.6331
17771TIP3   OH274727   6.121   4.306   1.057  0.0004  0.0059  0.3319
17771TIP3    H174728   6.159   4.384   1.018 -0.2527  0.0781  0.2295
17771TIP3    H274729   6.146   4.234   0.999 -0.4791  0.1300 -0.0332
17772TIP3   OH274730   4.491   0.465  14.423 -0.0819  0.5794  0.7314
17772TIP3    H174731   4.544   0.535  14.384  0.4679 -0.1131  0.2375
17772TIP3    H274732   4.439   0.430  14.351 -0.6348  0.7282  1.0555
17773TIP3   OH274733   2.832   3.076   0.422  0.5601  0.0809 -0.0109
17773TIP3    H174734   2.796   3.001   0.469 -0.1427  1.2691  1.3680
17773TIP3    H274735   2.918   3.046   0.391  0.4911 -1.1265  0.9496
17774TIP3   OH274736   3.189   5.600   4.402 -0.9648  0.4294  0.4282
17774TIP3    H174737   3.256   5.534   4.420 -0.9255  0.2270 -0.4513
17774TIP3    H274738   3.238   5.677   4.374 -1.2033 -0.5347 -2.7507
17775TIP3   OH274739   4.619   5.410  16.428 -0.5198 -0.5474  0.3831
17775TIP3    H174740   4.539   5.440  16.383 -0.0135 -0.0594 -0.2018
17775TIP3    H274741   4.633   5.322  16.395  1.1455  0.6526 -2.2055
17776TIP3   OH274742   3.570   6.664   0.539  0.5246 -0.3324 -0.6474
17776TIP3    H174743   3.544   6.720   0.611  2.1355 -1.2294  0.6684
17776TIP3    H274744   3.606   6.723   0.473 -0.2915  0.4193 -0.4183
17777TIP3   OH274745   3.317   0.290  16.123 -0.3879  0.0512  0.0093
17777TIP3    H174746   3.250   0.227  16.095  1.3315 -1.6374 -0.3966
17777TIP3    H274747   3.269   0.354  16.175 -2.5799 -0.2953 -1.5086
17778TIP3   OH274748   1.647   1.766  12.330 -0.2309 -0.4455 -0.6179
17778TIP3    H174749   1.637   1.683  12.377  0.8252 -0.6184 -0.6787
17778TIP3    H274750   1.659   1.831  12.399  0.1214 -0.5245 -0.6011
17779TIP3   OH274751   4.960   1.916  15.885 -0.5482  0.3048 -0.0017
17779TIP3    H174752   4.987   1.969  15.811 -1.3652  2.6460  1.3328
17779TIP3    H274753   4.984   1.968  15.962  1.4650 -2.6178  1.4557
17780TIP3   OH274754   0.170   0.843   0.054 -0.7167 -0.3196  0.3130
17780TIP3    H174755   0.203   0.872  -0.031 -1.4938  1.0983  0.4890
17780TIP3    H274756   0.244   0.795   0.093 -0.0894 -0.2911 -0.8207
17781TIP3   OH274757   5.395   3.690  12.369 -0.5080 -0.0133  0.1203
17781TIP3    H174758   5.327   3.679  12.303 -0.5228  1.3203 -0.0973
17781TIP3    H274759   5.474   3.713  12.319  0.1012 -1.4324  0.3782
17782TIP3   OH274760   3.049   5.818   4.881 -0.8394 -0.0013  0.2307
17782TIP3    H174761   3.060   5.876   4.806 -0.8354  0.0599  0.2798
17782TIP3    H274762   3.119   5.842   4.941 -0.5996 -0.3210  0.0784
17783TIP3   OH274763   2.308   2.397  12.600 -0.0573 -0.0734  0.0169
17783TIP3    H174764   2.230   2.383  12.653  0.8636 -1.4641  1.0241
17783TIP3    H274765   2.367   2.446  12.657 -0.7965  2.4852 -1.3145
17784TIP3   OH274766   1.082   4.820  13.803 -0.1904  0.2699  0.7713
17784TIP3    H174767   1.042   4.888  13.750 -0.9271  0.5940  1.7230
17784TIP3    H274768   1.073   4.851  13.893  1.8659  0.1614  1.0423
17785TIP3   OH274769   2.578   1.695  12.763 -0.1375  0.7161 -0.4925
17785TIP3    H174770   2.583   1.657  12.851 -0.0448 -0.6624 -1.0661
17785TIP3    H274771   2.665   1.731  12.748  1.3417 -3.1735 -1.7698
17786TIP3   OH274772   4.642   0.498   4.467 -0.1630 -0.1862 -0.2169
17786TIP3    H174773   4.678   0.525   4.551  1.1438 -1.9787 -0.1615
17786TIP3    H274774   4.576   0.433   4.488 -0.0429 -0.4204 -0.5517
17787TIP3   OH274775   0.869   2.240   3.644  0.2368 -0.5639 -0.1798
17787TIP3    H174776   0.798   2.178   3.661  1.0070 -1.1268  1.0621
17787TIP3    H274777   0.939   2.186   3.607  0.1702 -0.0712 -1.0441
17788TIP3   OH274778   0.548   6.127  13.860 -0.5984 -0.0295 -0.2713
17788TIP3    H174779   0.458   6.157  13.854 -0.4290  0.3062 -1.2751
17788TIP3    H274780   0.599   6.193  13.813  0.0342 -0.7763 -0.6566
17789TIP3   OH274781   2.997   4.890  13.059  0.0406 -0.2874  0.0661
17789TIP3    H174782   2.903   4.889  13.079 -0.1799  0.5174 -0.9397
17789TIP3    H274783   3.004   4.840  12.978  0.4372 -0.0220 -0.0620
17790TIP3   OH274784   3.211   5.955   4.089 -0.1420  0.2188 -0.0616
17790TIP3    H174785   3.184   6.025   4.148  0.1613 -0.1037  0.4651
17790TIP3    H274786   3.284   5.992   4.040 -0.0034  0.2846  0.1937
17791TIP3   OH274787   3.171   2.584   1.013 -0.2436  0.5119  0.1692
17791TIP3    H174788   3.130   2.503   0.981 -0.4483  0.6475  0.0875
17791TIP3    H274789   3.098   2.645   1.023  0.0312  0.9661 -0.6197
17792TIP3   OH274790   2.633   2.698  16.340 -0.0780 -0.1682 -0.3063
17792TIP3    H174791   2.555   2.680  16.287  0.2460 -1.1648 -0.4588
17792TIP3    H274792   2.683   2.761  16.289 -1.8118  2.1434  0.7716
17793TIP3   OH274793   2.989   2.238   2.903 -0.2611 -0.3701  0.4042
17793TIP3    H174794   3.012   2.162   2.956 -0.3223 -1.3526 -0.9441
17793TIP3    H274795   2.894   2.244   2.908 -0.1443  0.5695  1.7696
17794TIP3   OH274796   3.068   2.034  11.961 -0.2076 -0.2537 -0.4692
17794TIP3    H174797   3.091   2.106  11.902 -0.1225 -0.7181 -1.0032
17794TIP3    H274798   2.981   2.006  11.932 -0.8643  0.5810  0.6605
17795TIP3   OH274799   4.607   5.413   0.980  0.4137 -0.2348  0.4947
17795TIP3    H174800   4.658   5.487   0.947  0.5179 -0.0208  1.1164
17795TIP3    H274801   4.548   5.390   0.909  3.4537 -2.4273 -1.4184
17796TIP3   OH274802   0.598   0.297  10.557  0.5135  0.3205  0.6260
17796TIP3    H174803   0.678   0.337  10.522 -1.5839  2.4518 -1.9898
17796TIP3    H274804   0.569   0.357  10.625  0.1991  0.4993  0.3371
17797TIP3   OH274805   6.182   0.846   5.957 -0.2892  0.9519  0.0987
17797TIP3    H174806   6.137   0.778   5.906 -1.0346  1.7860 -0.3540
17797TIP3    H274807   6.244   0.885   5.896 -1.4191  2.1802 -0.2786
17798TIP3   OH274808   4.053   6.744   1.312 -0.6282  0.1203 -0.0848
17798TIP3    H174809   4.131   6.782   1.353 -0.4584 -1.4710  1.0738
17798TIP3    H274810   4.082   6.723   1.223 -0.2592  1.1663 -0.2259
17799TIP3   OH274811   1.001   3.343   4.808  0.0901 -0.2150  0.0601
17799TIP3    H174812   1.081   3.293   4.824  1.3812  1.3834 -1.1045
17799TIP3    H274813   0.982   3.328   4.715 -1.6790 -1.5666  0.6276
17800TIP3   OH274814   3.967   3.209  13.485 -0.5103 -0.0784 -0.7897
17800TIP3    H174815   3.901   3.262  13.530 -1.1065 -0.8769 -0.7236
17800TIP3    H274816   4.001   3.266  13.417  1.5206  1.7340  1.6296
17801TIP3   OH274817   5.983   4.572  12.714 -0.3006 -0.0298 -0.4970
17801TIP3    H174818   5.957   4.553  12.804  1.1260 -2.8164 -0.6069
17801TIP3    H274819   5.901   4.596  12.670 -1.4849 -1.4381  0.8708
17802TIP3   OH274820   3.408   1.899  14.507  0.0727 -0.0004  0.0555
17802TIP3    H174821   3.347   1.829  14.528  0.3454 -0.0665  0.6468
17802TIP3    H274822   3.397   1.914  14.413  1.3528 -2.1462 -0.4696
17803TIP3   OH274823   4.171   3.372   2.148  0.2621 -0.4662  0.1129
17803TIP3    H174824   4.170   3.468   2.148 -1.0089 -0.4727  0.3337
17803TIP3    H274825   4.263   3.349   2.131  0.6260  0.7831  0.3488
17804TIP3   OH274826   5.933   3.495  11.878  0.2574 -0.3050 -0.5636
17804TIP3    H174827   5.991   3.569  11.896 -3.1686  2.0677  1.3238
17804TIP3    H274828   5.901   3.511  11.789  1.4934 -0.9303 -1.1264
17805TIP3   OH274829   3.976   2.827   2.299 -0.1564  0.0570 -0.1467
17805TIP3    H174830   4.070   2.846   2.297 -0.1514  0.0097 -0.3964
17805TIP3    H274831   3.970   2.744   2.347 -0.2516  1.0840  1.6533
17806TIP3   OH274832   4.060   4.273  12.260  0.8682  0.5163  0.3858
17806TIP3    H174833   3.967   4.291  12.268  0.0600 -1.5306 -3.0206
17806TIP3    H274834   4.098   4.353  12.223 -0.1124  0.3695 -0.9996
17807TIP3   OH274835   2.078   1.619  16.005  0.3862 -0.1192 -0.4085
17807TIP3    H174836   2.120   1.544  15.963  0.0026 -1.0632  0.8786
17807TIP3    H274837   2.148   1.660  16.056  0.7991  0.9026 -1.7607
17808TIP3   OH274838   3.156   2.472   0.653 -0.2765 -0.1286  0.2833
17808TIP3    H174839   3.184   2.408   0.588 -0.3375 -1.2707  1.3640
17808TIP3    H274840   3.078   2.512   0.615  0.6616  0.4454 -1.0985
17809TIP3   OH274841   1.485   0.683   0.970 -0.0602  0.1996 -0.6284
17809TIP3    H174842   1.540   0.754   0.937 -0.0506  0.4647 -0.0454
17809TIP3    H274843   1.522   0.604   0.931  0.2615  0.4584 -0.8474
17810TIP3   OH274844   3.791   3.094   1.701  0.1696 -0.4474 -0.5900
17810TIP3    H174845   3.844   3.016   1.718  1.0710  0.2270 -0.2368
17810TIP3    H274846   3.715   3.085   1.757  1.5493  0.1912  1.4462
17811TIP3   OH274847   3.881   2.464  15.012  0.1635  0.0075  0.2216
17811TIP3    H174848   3.909   2.515  15.087  1.4237 -0.4107  0.0447
17811TIP3    H274849   3.876   2.374  15.045 -0.2956 -0.0233  0.0717
17812TIP3   OH274850   2.627   0.472   5.947 -0.7615 -0.2052  0.2816
17812TIP3    H174851   2.660   0.553   5.986 -1.2915 -0.3244  0.9813
17812TIP3    H274852   2.545   0.455   5.993 -1.1758 -0.5827 -0.5784
17813TIP3   OH274853   5.479   5.912   1.589 -0.2376 -0.4973  0.0230
17813TIP3    H174854   5.461   5.840   1.650 -0.7903 -1.0549 -0.7852
17813TIP3    H274855   5.491   5.869   1.504 -0.1491  0.3305 -0.3909
17814TIP3   OH274856   4.032   3.781   1.384  0.4400 -0.6004  0.4295
17814TIP3    H174857   4.080   3.711   1.428 -0.0018 -3.0019 -2.6653
17814TIP3    H274858   3.987   3.737   1.311 -1.7081  2.5456 -0.2720
17815TIP3   OH274859   5.032   0.295   2.317  0.0516 -0.0859  0.6440
17815TIP3    H174860   5.069   0.376   2.284  0.3297 -0.4703 -0.0153
17815TIP3    H274861   4.951   0.321   2.361 -0.0406  0.5090  0.1265
17816TIP3   OH274862   6.721   4.160   2.743  0.8817  0.2521 -0.0975
17816TIP3    H174863   6.773   4.165   2.823  1.4751 -3.4332 -0.1629
17816TIP3    H274864   6.785   4.162   2.672  0.5175  1.3119 -0.3983
17817TIP3   OH274865   6.090   5.745  11.996  0.2136 -0.2127 -0.2295
17817TIP3    H174866   6.158   5.797  12.038  0.2998 -0.6619  0.1971
17817TIP3    H274867   6.123   5.728  11.908 -0.2993  1.3570 -0.7347
17818TIP3   OH274868   3.309   5.474   1.035 -0.1704  0.0807  0.7156
17818TIP3    H174869   3.386   5.524   1.064  0.3340  0.6136 -1.4456
17818TIP3    H274870   3.260   5.535   0.980 -0.9927 -0.9572  0.2766
17819TIP3   OH274871   6.238   1.879  15.836 -0.3653 -0.5937  0.0732
17819TIP3    H174872   6.204   1.853  15.751 -0.6356 -0.2042  0.0625
17819TIP3    H274873   6.294   1.806  15.863 -4.0692 -2.9972  1.7488
17820TIP3   OH274874   1.373   4.819   3.300  0.6303  0.3369  0.5269
17820TIP3    H174875   1.432   4.744   3.301  0.3490  0.1108  1.4513
17820TIP3    H274876   1.286   4.781   3.316 -0.0191  0.4769 -2.4693
17821TIP3   OH274877   2.760   5.611   5.315  0.7894 -0.2189 -0.2496
17821TIP3    H174878   2.775   5.688   5.370  1.6615 -1.3606  1.1386
17821TIP3    H274879   2.835   5.555   5.332 -1.3291 -2.7314  1.0982
17822TIP3   OH274880   3.607   4.400  13.645 -0.4053  0.5911 -0.0570
17822TIP3    H174881   3.634   4.466  13.582 -0.9808  0.6368 -0.2568
17822TIP3    H274882   3.638   4.317  13.609  1.7459  0.8911  0.9722
17823TIP3   OH274883   0.621   3.438  13.316  0.0086 -0.1992  0.4036
17823TIP3    H174884   0.650   3.521  13.353  0.8295 -0.4316  0.3020
17823TIP3    H274885   0.599   3.458  13.225  0.3111 -0.1057  0.3480
17824TIP3   OH274886   1.753   5.470   3.928  0.2487 -0.2481  0.5285
17824TIP3    H174887   1.767   5.378   3.947  0.3982 -0.2653  0.3355
17824TIP3    H274888   1.794   5.484   3.842 -0.4263 -0.1727  0.2123
17825TIP3   OH274889   4.648   4.476  10.154  0.5606  0.3620 -0.4246
17825TIP3    H174890   4.706   4.400  10.149  1.7561  1.2542 -0.5027
17825TIP3    H274891   4.597   4.463  10.234  0.2490 -0.8704 -0.8240
17826TIP3   OH274892   5.604   3.508  15.555  0.0546  0.2631 -0.3029
17826TIP3    H174893   5.641   3.595  15.570  1.5212 -0.5023  0.6649
17826TIP3    H274894   5.558   3.515  15.471  0.9143  1.7309 -0.6647
17827TIP3   OH274895   3.633   6.709   2.548 -0.2239  0.7754  0.3162
17827TIP3    H174896   3.553   6.662   2.524 -1.1462  2.7067 -0.4691
17827TIP3    H274897   3.619   6.735   2.639 -0.3854  0.8811  0.2618
17828TIP3   OH274898   4.991   3.989  13.766 -0.0514  0.1280 -0.2865
17828TIP3    H174899   5.078   3.955  13.789  0.9648  2.3905 -0.6685
17828TIP3    H274900   4.946   3.997  13.850 -0.0265 -1.3674 -0.1157
17829TIP3   OH274901   2.332   5.673  13.379  0.2220  0.3981  0.3362
17829TIP3    H174902   2.280   5.605  13.422 -0.9260  0.4255 -0.9791
17829TIP3    H274903   2.336   5.744  13.444  0.9132 -0.6626  1.4783
17830TIP3   OH274904   5.541   4.288   3.163  0.2634 -0.0593  0.5118
17830TIP3    H174905   5.488   4.361   3.132  0.5849 -0.0244  0.0433
17830TIP3    H274906   5.620   4.291   3.109  0.7080 -0.1613  1.1520
17831TIP3   OH274907   1.447   4.873  15.865 -0.0925 -0.1830 -0.1681
17831TIP3    H174908   1.450   4.837  15.776 -1.5851  0.1043 -0.3494
17831TIP3    H274909   1.397   4.954  15.857 -2.0090 -1.1690  1.2392
17832TIP3   OH274910   1.356   4.412   2.076  0.1158 -0.5782  0.1324
17832TIP3    H174911   1.275   4.376   2.112 -0.1739  1.2235  1.3510
17832TIP3    H274912   1.329   4.495   2.037  1.3715  0.0182  0.5232
17833TIP3   OH274913   1.244   2.599  11.357 -0.1590  0.1788 -0.2254
17833TIP3    H174914   1.173   2.657  11.331 -0.1333  0.1321 -0.4038
17833TIP3    H274915   1.274   2.633  11.441 -2.1353 -1.3855  1.1303
17834TIP3   OH274916   1.180   2.996  12.200 -0.2544  0.0114  0.1638
17834TIP3    H174917   1.100   2.999  12.253 -0.0073 -0.2765  0.5576
17834TIP3    H274918   1.209   2.905  12.205  1.6424  0.6774  2.3574
17835TIP3   OH274919   1.742   4.777  11.708  0.1661 -0.1308  0.5513
17835TIP3    H174920   1.814   4.803  11.650  0.5731  0.9611  1.5302
17835TIP3    H274921   1.679   4.848  11.700 -1.0460 -1.3141 -0.6706
17836TIP3   OH274922   3.615   5.398   1.264  0.8921  0.2921 -0.5650
17836TIP3    H174923   3.586   5.470   1.208 -3.3428  0.2904  1.3982
17836TIP3    H274924   3.612   5.321   1.207 -1.1779  0.6411 -0.9665
17837TIP3   OH274925   1.036   4.046  12.688 -0.3346  0.4030  0.7756
17837TIP3    H174926   0.998   4.104  12.754 -0.7855  0.3794  0.5418
17837TIP3    H274927   0.984   4.062  12.609  0.0348  0.2455  0.4989
17838TIP3   OH274928   5.516   3.352  13.758 -0.0746 -0.1311 -0.4142
17838TIP3    H174929   5.575   3.301  13.702 -0.7820 -0.9815 -0.3977
17838TIP3    H274930   5.485   3.289  13.823 -0.8651  0.3575 -0.3165
17839TIP3   OH274931   0.377   5.876   1.956 -0.4251 -0.3753  0.1991
17839TIP3    H174932   0.433   5.812   2.001  0.8086  0.5625  0.0348
17839TIP3    H274933   0.360   5.837   1.870 -1.7079 -1.5786  0.9834
17840TIP3   OH274934   5.643   5.179   0.768 -0.0885 -0.2724 -0.1506
17840TIP3    H174935   5.646   5.227   0.686 -1.4592  0.3498  0.1413
17840TIP3    H274936   5.613   5.091   0.744 -0.9422  0.0470 -0.2640
17841TIP3   OH274937   5.085   6.641   2.755 -0.4922  0.4282  0.3696
17841TIP3    H174938   5.164   6.601   2.790 -1.5078 -0.8566  1.2147
17841TIP3    H274939   5.075   6.603   2.668 -0.4071  0.2710  0.4285
17842TIP3   OH274940   5.344   3.123   1.289 -0.0033 -0.6324 -0.1408
17842TIP3    H174941   5.282   3.183   1.246  1.4765 -0.2845 -1.8399
17842TIP3    H274942   5.386   3.177   1.356 -1.3501 -0.7990  0.8422
17843TIP3   OH274943   0.928   3.448   0.124 -0.1986  0.2971  0.1071
17843TIP3    H174944   0.915   3.460   0.218 -0.4350 -3.6811  0.6494
17843TIP3    H274945   1.013   3.404   0.116  0.5007  1.8783 -1.6635
17844TIP3   OH274946   6.283   1.077  12.024 -0.5485 -0.3135 -0.0330
17844TIP3    H174947   6.313   0.998  12.069  2.4045  0.7937  0.0384
17844TIP3    H274948   6.255   1.135  12.095  0.1411 -0.1526  0.1086
17845TIP3   OH274949   3.242   2.231  14.472  0.3465 -0.1543 -0.2605
17845TIP3    H174950   3.232   2.163  14.405  0.4624  0.0903 -0.5265
17845TIP3    H274951   3.180   2.207  14.540 -1.3847  0.8088 -1.4586
17846TIP3   OH274952   5.698   6.249   0.311  0.6957 -0.7887  0.7281
17846TIP3    H174953   5.653   6.181   0.261  0.1437  1.2253 -1.6382
17846TIP3    H274954   5.652   6.330   0.288  2.6391  0.6878  1.8259
17847TIP3   OH274955   0.671   0.313  14.597  0.6079  0.4093 -0.5197
17847TIP3    H174956   0.624   0.360  14.666 -1.0109 -0.0788 -1.2446
17847TIP3    H274957   0.753   0.361  14.586  0.6934  0.7641  1.4094
17848TIP3   OH274958   6.105   3.018   2.039  0.2404 -0.4376  0.4917
17848TIP3    H174959   6.052   2.972   1.974 -0.1520  1.2563 -0.3987
17848TIP3    H274960   6.089   2.970   2.121 -2.1521 -0.3233  0.1054
17849TIP3   OH274961   4.477   5.018   4.332 -0.0383 -1.1059 -0.3306
17849TIP3    H174962   4.520   4.936   4.306  0.6419 -0.0446 -2.6047
17849TIP3    H274963   4.431   5.047   4.254 -2.8373 -0.8600  1.3111
17850TIP3   OH274964   0.709   4.533   0.238 -0.3161  0.6300  0.4882
17850TIP3    H174965   0.787   4.519   0.184  0.8322 -0.7170  2.4256
17850TIP3    H274966   0.657   4.453   0.226  0.6210 -0.2859  2.4558
17851TIP3   OH274967   0.780   6.403  12.365 -0.7299 -0.3490 -0.2993
17851TIP3    H174968   0.687   6.381  12.353 -0.9923  0.0931  0.7762
17851TIP3    H274969   0.801   6.459  12.291 -0.8558 -1.8117 -1.4725
17852TIP3   OH274970   0.258   1.515  16.087  0.4904 -0.2780  0.3770
17852TIP3    H174971   0.336   1.529  16.140  0.2407 -1.9600  1.1980
17852TIP3    H274972   0.189   1.564  16.132  1.1688  1.7771 -0.7104
17853TIP3   OH274973   5.306   0.739  14.796  0.5423 -0.0850 -0.2258
17853TIP3    H174974   5.293   0.695  14.712  3.0004 -1.3956  0.0229
17853TIP3    H274975   5.378   0.690  14.837  1.5423  2.5385  1.2451
17854TIP3   OH274976   6.624   5.197  11.604 -0.3297 -0.3621 -0.0405
17854TIP3    H174977   6.632   5.161  11.516  0.3570  0.6205 -0.3831
17854TIP3    H274978   6.529   5.208  11.616 -0.5210 -1.7612 -0.1259
17855TIP3   OH274979   3.342   3.807  14.374  0.7883  0.4822  0.5255
17855TIP3    H174980   3.318   3.767  14.457  1.7069 -0.3651  0.3822
17855TIP3    H274981   3.437   3.804  14.372  0.7031 -2.1415 -1.8489
17856TIP3   OH274982   1.104   1.785   2.432  0.7279  0.2255  0.0265
17856TIP3    H174983   1.120   1.699   2.395 -1.2826 -0.1276 -0.1198
17856TIP3    H274984   1.009   1.796   2.425  1.1265  3.0934 -1.3832
17857TIP3   OH274985   0.699   6.446  12.833 -0.5947  0.9030 -0.3026
17857TIP3    H174986   0.701   6.533  12.792  0.6784  1.0351  0.0041
17857TIP3    H274987   0.791   6.424  12.846 -0.9651  0.3944  1.5344
17858TIP3   OH274988   3.838   5.184  11.961 -0.8019  0.0481  0.2944
17858TIP3    H174989   3.786   5.244  11.907  1.2013  0.9381 -0.7226
17858TIP3    H274990   3.911   5.159  11.905  0.5098 -0.2267  2.0803
17859TIP3   OH274991   0.991   6.485  12.876  0.7468 -0.4461 -0.2808
17859TIP3    H174992   1.045   6.562  12.858  0.9206 -0.8500 -1.5633
17859TIP3    H274993   1.013   6.424  12.806  1.5476 -2.1732  1.4353
17860TIP3   OH274994   2.918   1.078   2.799  0.7141  0.0627 -0.1007
17860TIP3    H174995   2.955   1.056   2.885  0.2309 -0.2525  0.0241
17860TIP3    H274996   2.828   1.047   2.803 -0.1774  2.5240  0.2993
17861TIP3   OH274997   0.979   0.489   1.476 -0.2952  0.0248  0.0772
17861TIP3    H174998   1.066   0.511   1.442  0.6628 -1.0067  1.8387
17861TIP3    H274999   0.966   0.550   1.548  0.2492 -1.7861  1.7373
17862TIP3   OH275000   5.447   5.794  12.331  0.4522  0.6270 -0.4105
17862TIP3    H175001   5.482   5.882  12.346  0.8819  0.3271  0.3552
17862TIP3    H275002   5.522   5.743  12.303  0.6228  0.0139  1.1161
17863TIP3   OH275003   2.362   2.865   4.827 -0.0759  0.0636  0.2720
17863TIP3    H175004   2.304   2.914   4.885  1.0618 -0.6429  2.0625
17863TIP3    H275005   2.440   2.920   4.818 -1.7409  1.9226 -3.7336
17864TIP3   OH275006   0.910   3.267  10.532  0.2946 -0.2843  0.5243
17864TIP3    H175007   0.886   3.355  10.559 -0.1154  0.2125 -1.3885
17864TIP3    H275008   0.997   3.253  10.568  0.5057  1.0316  0.5356
17865TIP3   OH275009   1.032   0.504   5.892 -0.3831 -0.4180 -0.5018
17865TIP3    H175010   1.006   0.492   5.983 -0.5124  0.5305 -0.4065
17865TIP3    H275011   1.126   0.522   5.896 -0.6744  1.1517 -0.4163
17866TIP3   OH275012   2.172   4.825   0.235 -0.4414 -0.1840 -0.1866
17866TIP3    H175013   2.122   4.796   0.311  1.3331 -1.6734  0.4453
17866TIP3    H275014   2.250   4.867   0.273  0.0226 -0.1475 -1.1848
17867TIP3   OH275015   5.273   5.115   5.705  0.1996 -0.2191  0.2176
17867TIP3    H175016   5.243   5.184   5.646  0.8597  0.8427  1.1030
17867TIP3    H275017   5.194   5.085   5.749 -0.0349  0.2818  0.1489
17868TIP3   OH275018   0.209   4.774  11.788  0.6566 -0.5132  0.3385
17868TIP3    H175019   0.195   4.683  11.813  0.4848 -0.3905  0.6801
17868TIP3    H275020   0.263   4.810  11.858  0.1276 -0.1553  0.5583
17869TIP3   OH275021   0.453   3.859   4.804  0.2613  0.0340 -0.2448
17869TIP3    H175022   0.414   3.828   4.886  1.0585 -0.0393  0.1182
17869TIP3    H275023   0.405   3.813   4.735 -1.2649  1.0589  0.1268
17870TIP3   OH275024   3.402   0.016   5.382  0.1936  0.4612 -0.4687
17870TIP3    H175025   3.318   0.029   5.426  1.2951  1.7133  1.2887
17870TIP3    H275026   3.387   0.046   5.292 -1.0812  1.2171 -0.0080
17871TIP3   OH275027   5.385   3.290   0.743  0.4523  0.1120 -0.2514
17871TIP3    H175028   5.326   3.220   0.771 -0.7718  1.3557  0.3633
17871TIP3    H275029   5.357   3.310   0.654  2.8153 -2.2491 -1.5720
17872TIP3   OH275030   2.270   5.637  16.386 -0.3669 -0.4689 -0.4264
17872TIP3    H175031   2.191   5.655  16.335 -1.2662 -1.6758  0.5256
17872TIP3    H275032   2.269   5.703  16.455 -0.6034 -0.5426 -0.3565
17873TIP3   OH275033   1.688   4.825  14.270 -0.5404  0.0226 -0.0731
17873TIP3    H175034   1.783   4.835  14.261 -0.6150  0.7306 -0.0835
17873TIP3    H275035   1.669   4.857  14.358 -0.5418 -1.7641  0.5908
17874TIP3   OH275036   4.221   6.681  13.172 -0.3520  0.6548 -0.0963
17874TIP3    H175037   4.240   6.682  13.078 -0.7079 -2.0703 -0.2409
17874TIP3    H275038   4.307   6.690  13.213 -0.1643  1.5976 -0.6903
17875TIP3   OH275039   0.774   4.971  14.169  0.1025  0.4383 -0.1475
17875TIP3    H175040   0.840   5.040  14.161  0.6369 -0.2217 -1.5234
17875TIP3    H275041   0.702   4.999  14.113  0.3259 -0.1103 -0.7220
17876TIP3   OH275042   1.112   0.209  14.225 -0.2783  0.3043  0.4602
17876TIP3    H175043   1.183   0.239  14.281  0.6739  1.5754 -1.4077
17876TIP3    H275044   1.144   0.126  14.189  0.5762  1.1946 -0.8953
17877TIP3   OH275045   1.596   1.307  14.793 -0.2918  0.7872  0.1564
17877TIP3    H175046   1.612   1.314  14.887 -0.6951  2.1188  0.1429
17877TIP3    H275047   1.651   1.235  14.764 -0.7752 -0.1589  1.5512
17878TIP3   OH275048   5.343   1.995   5.014 -0.0940  0.0107 -0.0802
17878TIP3    H175049   5.266   2.017   4.962  0.7115 -1.8613 -2.1026
17878TIP3    H275050   5.308   1.960   5.096 -1.3758  4.3301  1.3466
17879TIP3   OH275051   0.192   6.589   1.571  0.0942 -0.3954 -0.1139
17879TIP3    H175052   0.267   6.600   1.630 -0.0255 -0.7566  0.1079
17879TIP3    H275053   0.230   6.547   1.494  0.0402 -0.9943  0.1828
17880TIP3   OH275054   2.879   5.342   0.228 -0.2286  0.2736  0.3727
17880TIP3    H175055   2.887   5.437   0.230 -0.1420  0.2969 -0.7364
17880TIP3    H275056   2.968   5.311   0.213 -0.6517  0.1327 -1.9522
17881TIP3   OH275057   1.783   0.167  12.692  0.1326 -0.7244  0.0301
17881TIP3    H175058   1.730   0.208  12.761  0.9232  0.4998 -0.0759
17881TIP3    H275059   1.722   0.156  12.619 -0.4220 -0.9619  0.5216
17882TIP3   OH275060   0.781   3.686   0.004  0.0235 -0.2335 -0.2047
17882TIP3    H175061   0.700   3.658  -0.041 -1.2533 -0.0651  1.9109
17882TIP3    H275062   0.838   3.609  -0.000 -0.2193 -0.3453 -1.7593
17883TIP3   OH275063   1.839   2.302   2.701 -0.6363  0.1777 -0.1121
17883TIP3    H175064   1.809   2.250   2.775  0.1575  0.8461  0.6835
17883TIP3    H275065   1.789   2.268   2.626 -0.5014 -1.3755  0.4854
17884TIP3   OH275066   1.953   6.696  16.733  0.0595  0.2660  0.0012
17884TIP3    H175067   1.868   6.686  16.776  0.3883 -0.1559  0.5647
17884TIP3    H275068   1.942   6.654  16.648  0.1420 -1.0849  0.6532
17885TIP3   OH275069   0.991   6.013  15.507  0.1376  0.6360  0.1705
17885TIP3    H175070   1.045   6.058  15.442  1.5186  0.9773  1.5234
17885TIP3    H275071   1.039   6.023  15.589 -1.7550  0.5215  1.3170
17886TIP3   OH275072   5.747   2.703  13.147 -0.5529  0.1820 -0.1626
17886TIP3    H175073   5.678   2.642  13.122 -1.5680  1.4677 -0.5187
17886TIP3    H275074   5.824   2.648  13.159 -1.2344 -1.0682 -1.3580
17887TIP3   OH275075   0.076   5.343  16.644  0.4263 -0.3322  0.0509
17887TIP3    H175076   0.048   5.311  16.730 -0.5223 -0.6927 -0.3896
17887TIP3    H275077   0.001   5.328  16.587 -0.4830  3.5845  0.0482
17888TIP3   OH275078   3.978   6.514   4.435 -0.0539 -0.2676 -0.1466
17888TIP3    H175079   3.998   6.454   4.507  0.5753 -0.0138 -0.1085
17888TIP3    H275080   4.063   6.532   4.394 -0.4812 -0.9508 -1.3789
17889TIP3   OH275081   1.181   4.280  12.443 -0.2489  0.0487  0.2002
17889TIP3    H175082   1.148   4.194  12.466  0.6720 -0.1679  0.7383
17889TIP3    H275083   1.241   4.265  12.370 -0.7410  0.3466 -0.2732
17890TIP3   OH275084   1.478   4.744  12.303 -0.6614 -0.0022  0.0377
17890TIP3    H175085   1.444   4.665  12.262 -0.2034  0.4618 -1.2725
17890TIP3    H275086   1.571   4.727  12.315 -0.3333  0.7462 -1.2934
17891TIP3   OH275087   1.259   0.428  13.177 -0.2972  0.7083 -0.3781
17891TIP3    H175088   1.179   0.444  13.127 -1.0421  1.6010  1.0849
17891TIP3    H275089   1.229   0.389  13.259  0.6580  2.1926  0.6987
17892TIP3   OH275090   5.641   2.731  14.813  0.4111 -0.3246  0.0542
17892TIP3    H175091   5.568   2.708  14.871  0.4260  0.8163  0.5305
17892TIP3    H275092   5.631   2.673  14.738 -0.9770 -0.1997  0.1314
17893TIP3   OH275093   4.483   1.516  11.272 -0.2109  0.3098 -0.1155
17893TIP3    H175094   4.498   1.426  11.299 -0.2981 -0.3819 -2.3075
17893TIP3    H275095   4.554   1.565  11.312  0.3958 -0.8873  0.2901
17894TIP3   OH275096   0.466   5.847   1.307  0.1690 -0.1411 -0.2280
17894TIP3    H175097   0.381   5.846   1.263  0.5732 -0.0717 -1.0167
17894TIP3    H275098   0.500   5.935   1.290 -0.1675  0.2681  1.1839
17895TIP3   OH275099   2.686   0.954  14.957 -0.6097  0.3380 -0.0780
17895TIP3    H175100   2.761   1.006  14.929  0.3401 -0.6830  0.5282
17895TIP3    H275101   2.617   1.018  14.972  0.0528  1.2662 -0.8899
17896TIP3   OH275102   4.517   3.681  12.321  0.2422 -0.3441  0.1874
17896TIP3    H175103   4.553   3.743  12.257  0.8209 -0.4288  0.4269
17896TIP3    H275104   4.481   3.610  12.269 -0.8536  0.4184 -0.1146
17897TIP3   OH275105   0.735   5.920   0.666 -0.4203 -0.3731  0.2634
17897TIP3    H175106   0.646   5.889   0.653 -0.3661 -0.3900 -0.0661
17897TIP3    H275107   0.733   6.012   0.641 -0.0967 -0.6485 -0.8176
17898TIP3   OH275108   6.015   4.382   6.111 -0.1919 -0.1673 -0.4123
17898TIP3    H175109   5.927   4.410   6.134  0.3989  0.9801  0.5456
17898TIP3    H275110   6.071   4.418   6.181  0.9624 -1.3300 -0.7029
17899TIP3   OH275111   3.224   1.535   3.568 -0.0732 -0.2484  0.1931
17899TIP3    H175112   3.252   1.466   3.508 -0.4672 -0.8418  0.6821
17899TIP3    H275113   3.239   1.498   3.656  0.0085  0.4067  0.4578
17900TIP3   OH275114   4.076   6.715  12.648 -0.1225  0.4175 -0.5588
17900TIP3    H175115   3.987   6.746  12.637 -0.4466  0.1893  1.2288
17900TIP3    H275116   4.128   6.767  12.587 -1.4727  0.5226 -1.6251
17901TIP3   OH275117   1.355   2.697   6.298 -0.6751  0.1685  0.1630
17901TIP3    H175118   1.267   2.704   6.263 -0.1880  0.4508 -1.0212
17901TIP3    H275119   1.391   2.785   6.292 -0.1596 -0.0334  0.2442
17902TIP3   OH275120   4.211   4.412   4.113 -0.1792  0.0072  0.0449
17902TIP3    H175121   4.188   4.505   4.120  0.0096 -0.0862  2.4726
17902TIP3    H275122   4.301   4.411   4.081 -0.5088  0.6294 -0.9096
17903TIP3   OH275123   3.403   5.846  14.142 -0.0945 -0.0949  0.6957
17903TIP3    H175124   3.456   5.845  14.221  0.9960  0.0492 -0.0166
17903TIP3    H275125   3.325   5.896  14.165  0.2073 -0.0625  1.6698
17904TIP3   OH275126   2.955   5.639   3.134 -0.0687  0.0650  0.2591
17904TIP3    H175127   2.939   5.548   3.106 -0.3544 -0.7320  2.8737
17904TIP3    H275128   2.878   5.662   3.185  0.1626  1.6895 -0.1021
17905TIP3   OH275129   1.316   3.593   1.044  0.2664 -0.3233 -0.1062
17905TIP3    H175130   1.346   3.557   0.960  2.9962 -1.1263  1.1470
17905TIP3    H275131   1.364   3.676   1.053  1.4781 -1.1787  1.5329
17906TIP3   OH275132   3.106   6.784   2.943  0.1496 -0.4356  0.6266
17906TIP3    H175133   3.075   6.845   2.875  0.0577 -0.7405  0.3933
17906TIP3    H275134   3.032   6.725   2.957 -0.3122  0.4226  1.9323
17907TIP3   OH275135   1.989   5.050  15.640 -0.1968  0.0099 -0.5054
17907TIP3    H175136   1.988   5.003  15.557 -2.5541 -0.6574 -0.1294
17907TIP3    H275137   1.993   4.982  15.707 -0.4486  0.4654 -0.0243
17908TIP3   OH275138   5.160   6.233  12.038 -0.9496  0.0565  0.1155
17908TIP3    H175139   5.211   6.313  12.033 -2.0090  0.7828  0.7333
17908TIP3    H275140   5.100   6.237  11.964 -2.3638  0.8171  1.2628
17909TIP3   OH275141   0.997   3.894  15.924 -0.0627 -0.1547  0.2152
17909TIP3    H175142   0.911   3.924  15.953  0.2764 -0.1750  1.2682
17909TIP3    H275143   1.056   3.969  15.938 -0.5107  1.0238 -3.6587
17910TIP3   OH275144   3.196   0.759   2.489  0.0640 -0.0083  0.0418
17910TIP3    H175145   3.118   0.808   2.513 -0.3676 -0.6024 -0.1436
17910TIP3    H275146   3.231   0.727   2.573 -0.5272 -0.6949  0.0371
17911TIP3   OH275147   0.162   1.321  11.934 -0.0153 -0.0821  0.0744
17911TIP3    H175148   0.138   1.265  12.008 -1.8238  1.0960  0.4080
17911TIP3    H275149   0.087   1.379  11.922  0.5718  0.2741 -2.1999
17912TIP3   OH275150   1.338   5.822  11.763  0.3351 -0.3054 -0.4506
17912TIP3    H175151   1.413   5.876  11.787  0.1975 -0.3973  0.1706
17912TIP3    H275152   1.270   5.886  11.739  0.9767 -0.2329 -2.1355
17913TIP3   OH275153   5.970   4.767   1.309  0.5819 -0.3746 -0.4046
17913TIP3    H175154   6.013   4.847   1.280  2.2847 -0.5833  1.4173
17913TIP3    H275155   5.887   4.766   1.263 -0.3609  3.4868  1.0532
17914TIP3   OH275156   0.110   0.354  11.281 -0.1521 -0.0976  0.4303
17914TIP3    H175157   0.143   0.434  11.240  0.1893 -0.9699 -1.0157
17914TIP3    H275158   0.150   0.283  11.231  0.2027 -1.1850  2.2213
17915TIP3   OH275159   5.769   2.126  15.894 -0.2245 -0.0761  0.4468
17915TIP3    H175160   5.738   2.171  15.816  0.9094  1.4957  0.8916
17915TIP3    H275161   5.705   2.148  15.962  0.0207  0.3892  0.5251
17916TIP3   OH275162   6.656   5.988  11.370 -0.4135 -0.5579 -0.4581
17916TIP3    H175163   6.724   6.036  11.417 -0.1870  0.0610 -1.3971
17916TIP3    H275164   6.698   5.907  11.343  0.6829  0.7648 -2.9615
17917TIP3   OH275165   2.339   0.662  13.276 -0.4067  0.4105  0.4713
17917TIP3    H175166   2.371   0.752  13.290 -2.0581  0.8538  1.5453
17917TIP3    H275167   2.393   0.629  13.204  0.8374  1.9498  0.6471
17918TIP3   OH275168   5.962   4.619   0.542 -0.0948  0.1707 -0.5503
17918TIP3    H175169   5.963   4.644   0.450  2.5080 -0.7192 -0.8161
17918TIP3    H275170   5.980   4.525   0.542  2.0334  0.5250  0.9037
17919TIP3   OH275171   5.577   6.636  16.127 -0.3775 -0.3324 -0.0897
17919TIP3    H175172   5.491   6.616  16.165  0.0312 -0.9217  0.5464
17919TIP3    H275173   5.565   6.624  16.033 -0.4482 -2.5633  0.1722
17920TIP3   OH275174   1.554   2.570   3.343 -0.0433 -0.0485 -0.9040
17920TIP3    H175175   1.521   2.484   3.369  1.8498 -0.1716  1.2819
17920TIP3    H275176   1.479   2.629   3.357 -1.4948 -1.3609 -2.8658
17921TIP3   OH275177   0.917   5.525   4.767  0.5711  0.2397  0.7679
17921TIP3    H175178   1.006   5.537   4.732  0.7571  1.0999  1.5176
17921TIP3    H275179   0.863   5.506   4.690  1.4110 -0.3214  0.3078
17922TIP3   OH275180   5.974   5.333  15.629 -0.3049 -0.1052  0.3624
17922TIP3    H175181   6.034   5.361  15.698 -0.7336 -0.5637  0.9304
17922TIP3    H275182   5.891   5.316  15.675 -1.3469  2.0696 -0.6201
17923TIP3   OH275183   2.245   1.598   1.214  0.6323 -0.4335 -0.3183
17923TIP3    H175184   2.233   1.508   1.244  0.2156 -0.4757 -0.6145
17923TIP3    H275185   2.334   1.621   1.243 -0.1293 -0.1074  1.8664
17924TIP3   OH275186   4.586   6.046  16.494  0.2373  0.6158  0.0074
17924TIP3    H175187   4.642   6.093  16.432 -1.3113  0.2930 -1.6767
17924TIP3    H275188   4.610   5.954  16.484 -0.6037  0.4694 -0.7637
17925TIP3   OH275189   3.142   4.616   0.525 -0.2886 -0.1764 -0.0158
17925TIP3    H175190   3.086   4.615   0.447  1.8824 -0.0619 -1.6117
17925TIP3    H275191   3.222   4.571   0.498  0.8143  0.5558  1.9088
17926TIP3   OH275192   2.446   4.000   4.399 -0.6661 -0.3051  0.4929
17926TIP3    H175193   2.453   4.094   4.416 -1.2939 -0.4892  1.8797
17926TIP3    H275194   2.513   3.983   4.334  0.1352  0.9373  0.9580
17927TIP3   OH275195   5.423   0.409  16.540 -0.5428 -0.1827  0.0883
17927TIP3    H175196   5.432   0.406  16.636  1.7977  3.3377  0.0607
17927TIP3    H275197   5.334   0.442  16.526 -0.0034  1.7905  1.1386
17928TIP3   OH275198   5.714   6.379  12.621  0.4672  0.3094 -0.5072
17928TIP3    H175199   5.753   6.298  12.590 -0.2888  0.4103 -1.7312
17928TIP3    H275200   5.774   6.410  12.689  0.7089 -1.3112  0.0294
17929TIP3   OH275201   5.085   2.353   4.058 -0.4631 -0.3044  0.1048
17929TIP3    H175202   5.089   2.279   3.998  0.7737 -0.7840  0.7632
17929TIP3    H275203   5.158   2.409   4.031 -0.9126  0.2932  0.1156
17930TIP3   OH275204   3.886   5.418  12.143 -0.2791 -0.0908 -0.4190
17930TIP3    H175205   3.881   5.347  12.079  1.8299 -0.2336 -0.4581
17930TIP3    H275206   3.979   5.438  12.149 -0.4210 -0.1376  2.6496
17931TIP3   OH275207   0.715   5.707  13.936  0.3214 -0.2183 -0.1289
17931TIP3    H175208   0.663   5.715  14.016 -0.5710 -0.8156 -0.6387
17931TIP3    H275209   0.805   5.724  13.964 -0.2717  1.8536  0.5700
17932TIP3   OH275210   1.650   4.540  12.843  0.4094 -0.3372  0.5438
17932TIP3    H175211   1.686   4.495  12.919  2.2931 -0.5178 -0.4165
17932TIP3    H275212   1.631   4.470  12.780 -0.2330 -0.1093  0.4791
17933TIP3   OH275213   3.619   2.304   1.220 -0.2906  0.6112  0.1113
17933TIP3    H175214   3.596   2.232   1.280 -0.4899 -0.7109 -1.4979
17933TIP3    H275215   3.661   2.260   1.146 -2.3100  1.9345 -1.8713
17934TIP3   OH275216   2.047   0.016   0.254  0.5328  0.0551  0.5159
17934TIP3    H175217   1.985  -0.041   0.207  1.4121 -0.4773 -0.0027
17934TIP3    H275218   2.036   0.101   0.213 -2.9841  1.0632  3.2782
17935TIP3   OH275219   0.028   3.624   3.281  0.7642  0.0352 -0.2004
17935TIP3    H175220   0.009   3.714   3.254 -0.1028  0.2043  0.9829
17935TIP3    H275221  -0.021   3.611   3.362  0.5944 -1.6266 -0.5444
17936TIP3   OH275222   2.295   6.714   4.400  0.1158 -0.0818 -0.2445
17936TIP3    H175223   2.297   6.762   4.317 -2.9627  0.7420  0.0946
17936TIP3    H275224   2.296   6.783   4.467  0.3838 -0.6689  0.3609
17937TIP3   OH275225   4.819   0.628  17.021  0.2702  0.3846  0.8110
17937TIP3    H175226   4.736   0.636  17.067  0.0758 -0.6676  0.6516
17937TIP3    H275227   4.881   0.599  17.088  0.3195  0.3129  0.7352
17938TIP3   OH275228   4.224   3.452  12.062  0.0934 -0.1218  0.0619
17938TIP3    H175229   4.148   3.502  12.033  0.1237  0.4932  1.0388
17938TIP3    H275230   4.266   3.423  11.980 -0.0966  1.1865 -0.5081
17939TIP3   OH275231   3.166   4.998  11.656 -0.6312  0.3547  0.2048
17939TIP3    H175232   3.138   5.075  11.707 -1.3440  0.7769 -0.7948
17939TIP3    H275233   3.206   5.035  11.577  2.9181 -0.2521  1.6607
17940TIP3   OH275234   4.767   4.162   0.671  0.4830 -0.0602  0.6547
17940TIP3    H175235   4.759   4.245   0.718  0.1588 -0.4094  1.2158
17940TIP3    H275236   4.860   4.140   0.676  0.5810  0.3018  0.4450
17941TIP3   OH275237   4.808   3.972   2.801  0.5694  0.1960  0.2302
17941TIP3    H175238   4.773   3.940   2.884 -2.7040 -0.5500 -1.3581
17941TIP3    H275239   4.901   3.948   2.803  0.6107  0.4387  3.7455
17942TIP3   OH275240   4.214   0.712  13.496  0.2113 -0.3440 -0.7051
17942TIP3    H175241   4.201   0.641  13.432  2.1687 -0.3050 -1.1663
17942TIP3    H275242   4.281   0.768  13.456  0.7838  0.1836  0.9775
17943TIP3   OH275243   4.561   2.080   5.892 -0.3742  0.0009  0.2156
17943TIP3    H175244   4.574   2.170   5.862  0.5600 -0.0953  0.3135
17943TIP3    H275245   4.645   2.037   5.874  0.1687 -0.0954  2.8258
17944TIP3   OH275246   4.321   4.794   2.329 -0.0538 -0.0528 -0.0367
17944TIP3    H175247   4.383   4.732   2.368 -0.0906  0.8323  1.4251
17944TIP3    H275248   4.261   4.816   2.400 -1.4601 -0.1357 -1.1803
17945TIP3   OH275249   2.299   6.344  13.066  0.0645 -0.5156  0.2343
17945TIP3    H175250   2.368   6.309  13.123  1.2557  1.7456  0.2324
17945TIP3    H275251   2.238   6.388  13.127 -0.5350 -1.1179  0.0803
17946TIP3   OH275252   2.915   5.741  16.956  0.4028  0.8569 -0.0501
17946TIP3    H175253   2.848   5.708  16.896  1.2086 -0.1376 -0.4185
17946TIP3    H275254   2.900   5.692  17.037  0.8441  0.4438 -0.2171
17947TIP3   OH275255   4.068   4.341   3.727  0.0094  0.0646  0.2059
17947TIP3    H175256   3.988   4.317   3.774 -1.2461  3.8078  0.1308
17947TIP3    H275257   4.116   4.397   3.789  1.0267  0.4448 -0.9043
17948TIP3   OH275258   3.015   0.766  14.078  0.1589  0.0481 -0.5977
17948TIP3    H175259   3.070   0.805  14.147  0.2199 -1.0152 -0.0281
17948TIP3    H275260   2.944   0.724  14.126 -0.2754  0.0427 -1.2445
17949TIP3   OH275261   5.879   4.300  10.822 -0.3444  0.2675 -0.5523
17949TIP3    H175262   5.834   4.217  10.805 -2.8263  1.1129  1.4680
17949TIP3    H275263   5.927   4.285  10.903 -1.5964  1.0293  0.3686
17950TIP3   OH275264   0.856   4.977   2.029  0.7500  0.3936  0.1834
17950TIP3    H175265   0.874   4.899   1.975 -0.3069 -0.6665  1.3143
17950TIP3    H275266   0.939   4.996   2.071  0.9253 -0.3936  0.2146
17951TIP3   OH275267   6.560   1.715   1.674 -0.0553 -0.4178 -0.2571
17951TIP3    H175268   6.542   1.640   1.617 -2.7941  1.2603 -1.7501
17951TIP3    H275269   6.622   1.768   1.625 -1.9621  0.7314 -1.5075
17952TIP3   OH275270   3.898   3.072  16.238  0.9104 -0.0043  0.0663
17952TIP3    H175271   3.929   3.087  16.328 -0.0497 -2.3515  0.8374
17952TIP3    H275272   3.818   3.123  16.231  1.3329  0.6937  0.3415
17953TIP3   OH275273   0.990   6.740   6.426  0.2118 -0.3357 -0.4877
17953TIP3    H175274   0.997   6.801   6.354 -0.2403  1.5094  0.9851
17953TIP3    H275275   1.075   6.743   6.470 -1.3695  3.1171  2.5558
17954TIP3   OH275276   4.747   1.119  11.151  0.3074 -0.0550  0.2138
17954TIP3    H175277   4.833   1.081  11.171  1.8790  1.6426 -3.0304
17954TIP3    H275278   4.701   1.050  11.103  1.1229  0.2204 -0.9662
17955TIP3   OH275279   3.179   3.080   1.372 -0.0556 -0.0707  0.3095
17955TIP3    H175280   3.136   3.014   1.318 -0.3557  1.1599 -0.9738
17955TIP3    H275281   3.116   3.101   1.440  0.1162 -1.2310  0.8481
17956TIP3   OH275282   6.672   2.167   4.859 -0.1674 -0.1578  0.1685
17956TIP3    H175283   6.664   2.246   4.913  0.0988 -0.2789  0.3820
17956TIP3    H275284   6.739   2.189   4.794 -0.2391 -0.1361  0.1016
17957TIP3   OH275285   3.203   4.987   2.759 -0.3183 -0.2424 -0.4383
17957TIP3    H175286   3.209   5.053   2.828  0.1523 -0.3105 -0.4083
17957TIP3    H275287   3.123   4.938   2.778  1.1070 -1.8853  1.5094
17958TIP3   OH275288   3.946   5.575   4.453  0.6409  0.3102  0.4186
17958TIP3    H175289   3.893   5.548   4.529  0.4743 -0.5336  0.0103
17958TIP3    H275290   3.924   5.667   4.440 -2.8500 -0.7177 -1.4602
17959TIP3   OH275291   6.201   1.668   1.909 -1.3636  0.0795  0.7772
17959TIP3    H175292   6.284   1.620   1.913 -1.1385  0.1990 -1.5129
17959TIP3    H275293   6.201   1.723   1.987  0.4280 -0.3847  1.1291
17960TIP3   OH275294   1.254   1.591  15.430 -0.4918 -0.0571 -0.3924
17960TIP3    H175295   1.275   1.672  15.477 -1.3547 -0.0668  0.0186
17960TIP3    H275296   1.290   1.522  15.485 -0.8947 -0.0258 -0.0840
17961TIP3   OH275297   1.503   0.902  14.847 -0.0608  0.1648  0.1057
17961TIP3    H175298   1.488   0.807  14.856 -1.8418  0.6235  2.5946
17961TIP3    H275299   1.415   0.940  14.844  0.6376  1.6649 -2.1172
17962TIP3   OH275300   4.985   3.075   4.283  0.0834  0.4776 -0.4261
17962TIP3    H175301   4.895   3.090   4.257  0.2108  0.5475 -0.8244
17962TIP3    H275302   5.005   2.987   4.253 -0.3520 -0.1506  1.0532
17963TIP3   OH275303   6.183   6.367  14.737 -0.4484 -0.1276 -0.3072
17963TIP3    H175304   6.252   6.413  14.690  0.1246  0.5285  1.1588
17963TIP3    H275305   6.125   6.436  14.768 -1.2957 -0.6173 -0.7828
17964TIP3   OH275306   3.848   4.945   1.382  0.4614 -0.2286 -0.9891
17964TIP3    H175307   3.789   4.935   1.457  1.7114  0.7215  0.1576
17964TIP3    H275308   3.791   4.942   1.306 -1.0104  0.2322  0.0740
17965TIP3   OH275309   3.651   4.501  13.386  0.0866 -0.9177 -0.0419
17965TIP3    H175310   3.637   4.472  13.296 -1.0499  2.1634 -0.9173
17965TIP3    H275311   3.563   4.525  13.418  0.6889 -0.4678  1.3358
17966TIP3   OH275312   1.012   3.588   4.889  0.0707  0.0003 -0.3849
17966TIP3    H175313   1.002   3.494   4.873  1.1422  0.0881 -1.6184
17966TIP3    H275314   0.953   3.629   4.827  0.6961  0.1885 -0.8579
17967TIP3   OH275315   5.084   4.398   4.457  0.2028  0.2894 -0.0034
17967TIP3    H175316   5.089   4.428   4.548 -0.5035  0.8993 -0.1593
17967TIP3    H275317   4.991   4.409   4.433  0.3304 -0.1295 -0.7032
17968TIP3   OH275318   3.353   6.467   0.501  0.0845  0.1201 -0.3160
17968TIP3    H175319   3.398   6.530   0.556 -1.9262 -0.5719  2.2332
17968TIP3    H275320   3.260   6.480   0.521 -0.6423 -0.6724 -3.0031
17969TIP3   OH275321   4.513   0.751  11.543  0.8379 -0.2666  0.5183
17969TIP3    H175322   4.603   0.784  11.551  0.6052  1.4391 -3.0150
17969TIP3    H275323   4.505   0.725  11.451 -2.1728 -0.7561  0.8717
17970TIP3   OH275324   0.419   6.778  16.946  0.0165 -0.5453 -0.6168
17970TIP3    H175325   0.505   6.747  16.917  0.3731 -0.5251  0.3947
17970TIP3    H275326   0.402   6.730  17.027 -1.4540 -1.3937 -1.4091
17971TIP3   OH275327   3.785   6.769  11.050  0.1418  0.0264  0.6760
17971TIP3    H175328   3.869   6.813  11.064 -0.0244  0.8558 -0.7828
17971TIP3    H275329   3.786   6.746  10.957 -1.5462  0.6711  0.4796
17972TIP3   OH275330   6.057   5.976   0.413 -0.4610  0.5695  0.1349
17972TIP3    H175331   6.048   5.965   0.508 -1.6674  0.0140 -0.0401
17972TIP3    H275332   6.131   5.920   0.390  0.5768  1.5907  0.9076
17973TIP3   OH275333   0.087   6.196  12.860  0.2455  0.2341  0.4624
17973TIP3    H175334   0.021   6.189  12.930 -0.1120  1.0338  0.2073
17973TIP3    H275335   0.131   6.111  12.861 -0.8703 -0.3540  0.5612
17974TIP3   OH275336   6.228   6.589  16.343 -0.0934 -0.0418 -0.2996
17974TIP3    H175337   6.272   6.645  16.280 -1.3854  0.8490 -0.4231
17974TIP3    H275338   6.253   6.500  16.317  0.3277  0.3692 -1.3349
17975TIP3   OH275339   3.816   4.523  16.887  0.7413  0.3481  0.2276
17975TIP3    H175340   3.889   4.579  16.859 -0.4916  1.1217 -1.5377
17975TIP3    H275341   3.755   4.526  16.813  0.0826 -2.3428  0.6449
17976TIP3   OH275342   1.216   2.996   3.780  0.9141  0.0980  0.2153
17976TIP3    H175343   1.165   2.994   3.699 -0.7194 -1.8267  1.2413
17976TIP3    H275344   1.265   2.913   3.779  1.0497  0.1657  1.0817
17977TIP3   OH275345   1.465   0.529   2.332 -0.5156  0.2664  0.3455
17977TIP3    H175346   1.492   0.497   2.246 -1.0833 -0.1650  0.3237
17977TIP3    H275347   1.508   0.471   2.394 -0.7768  0.0562  0.3302
17978TIP3   OH275348   1.817   3.548   1.687 -0.0516  0.1433 -0.3452
17978TIP3    H175349   1.777   3.474   1.641  1.5446 -0.6983 -0.4041
17978TIP3    H275350   1.757   3.622   1.671 -1.2622 -0.9416 -0.9139
17979TIP3   OH275351   0.531   0.680   3.182  0.2795 -0.3048 -0.1674
17979TIP3    H175352   0.445   0.714   3.205 -0.7716 -1.2652 -2.5910
17979TIP3    H275353   0.584   0.758   3.164  0.3645  0.3487  2.6658
17980TIP3   OH275354   1.541   0.241   0.541 -0.2487  1.0774 -0.6309
17980TIP3    H175355   1.476   0.207   0.479 -0.0375  1.1092 -0.8734
17980TIP3    H275356   1.502   0.228   0.627  0.8527 -2.1468 -0.5262
17981TIP3   OH275357   5.121   3.607   5.471  0.4208  0.2926  0.1846
17981TIP3    H175358   5.061   3.533   5.468  0.1151  0.5388  0.2360
17981TIP3    H275359   5.208   3.568   5.459  0.1491  0.0831 -1.0632
17982TIP3   OH275360   0.887   0.087  14.436  0.3270 -0.1353  0.3514
17982TIP3    H175361   0.828   0.048  14.501 -0.0155 -1.6357 -0.8195
17982TIP3    H275362   0.941   0.013  14.406  0.2956  0.4745 -1.2532
17983TIP3   OH275363   5.104   5.982   2.851 -0.2426 -0.2631  0.3917
17983TIP3    H175364   5.042   6.025   2.791  1.4378  0.1107 -1.1013
17983TIP3    H275365   5.086   6.023   2.936 -0.4260  1.5532 -0.4979
17984TIP3   OH275366   4.315   2.738   3.031  0.0954  0.0496 -0.1287
17984TIP3    H175367   4.307   2.643   3.044  1.8103  0.1601  1.9702
17984TIP3    H275368   4.396   2.749   2.981 -0.6244  0.3683 -1.2483
17985TIP3   OH275369   3.764   4.542   1.875  0.0823  0.7190  0.2182
17985TIP3    H175370   3.851   4.581   1.873  1.4885 -2.3048 -0.6656
17985TIP3    H275371   3.765   4.487   1.953 -0.8831  0.3148 -0.0548
17986TIP3   OH275372   2.496   2.545  12.317  0.0297 -0.4231  0.1502
17986TIP3    H175373   2.435   2.572  12.386 -2.2072  0.6989 -2.1608
17986TIP3    H275374   2.583   2.567  12.351 -1.0064 -0.1255  2.6919
17987TIP3   OH275375   4.557   5.432   0.104  0.0154  0.2810 -0.0486
17987TIP3    H175376   4.614   5.474   0.040 -0.4673  0.6400 -0.2382
17987TIP3    H275377   4.481   5.490   0.112 -0.6715 -0.5656 -0.3365
17988TIP3   OH275378   5.633   3.921   2.687 -0.3622 -0.5604  0.0533
17988TIP3    H175379   5.558   3.927   2.746  0.1131  1.1099  0.5092
17988TIP3    H275380   5.595   3.902   2.602 -1.2283 -0.8100  0.4932
17989TIP3   OH275381   1.490   4.366   2.349  0.0939 -0.0798 -0.4202
17989TIP3    H175382   1.431   4.372   2.274 -1.1646  0.6246  0.5941
17989TIP3    H275383   1.474   4.447   2.398 -0.4101 -1.3486  1.5502
17990TIP3   OH275384   5.220   3.163   4.178  0.2734 -0.1568 -0.2014
17990TIP3    H175385   5.229   3.083   4.126  1.4637 -1.5971  2.1086
17990TIP3    H275386   5.137   3.152   4.224  1.6131 -1.2703  2.0233
17991TIP3   OH275387   6.628   1.409  17.089  0.1188  0.3052  0.3731
17991TIP3    H175388   6.569   1.354  17.038  0.1954 -0.6997  1.3554
17991TIP3    H275389   6.604   1.392  17.180  1.4794  0.3952  0.7512
17992TIP3   OH275390   3.097   2.474   3.475  0.5563  0.3711 -0.1108
17992TIP3    H175391   3.030   2.443   3.413 -0.3604  0.5936  0.7611
17992TIP3    H275392   3.151   2.396   3.492 -0.3313 -0.1746  0.2647
17993TIP3   OH275393   1.188   4.323   5.601  0.5438  0.0910  0.1512
17993TIP3    H175394   1.105   4.280   5.622 -0.5525  1.4014 -1.4474
17993TIP3    H275395   1.224   4.272   5.529  0.7421  0.0124  0.3045
17994TIP3   OH275396   3.538   3.680  16.859 -0.3421 -0.9851  0.4398
17994TIP3    H175397   3.478   3.748  16.828  1.9163  1.4288  1.1480
17994TIP3    H275398   3.501   3.598  16.826 -2.5780  0.6816 -1.3567
17995TIP3   OH275399   4.983   0.435  11.463  0.4840  0.3250 -0.1939
17995TIP3    H175400   5.066   0.474  11.433  1.2167 -0.1475  1.1591
17995TIP3    H275401   4.986   0.444  11.558  0.5119 -2.7408  0.1282
17996TIP3   OH275402   5.189   0.083  14.548 -0.1974 -0.2691 -0.1785
17996TIP3    H175403   5.144   0.030  14.613 -1.2682  0.9528  0.0865
17996TIP3    H275404   5.256   0.025  14.512  0.9489 -0.7129  2.5584
17997TIP3   OH275405   5.836   2.387   0.113  0.3913  0.0847 -0.3675
17997TIP3    H175406   5.822   2.390   0.207  1.1619 -2.9632 -0.0901
17997TIP3    H275407   5.805   2.300   0.087  3.3777 -0.4723 -2.3476
17998TIP3   OH275408   5.763   2.400   5.769 -0.1949  0.2383 -0.3213
17998TIP3    H175409   5.685   2.349   5.747 -0.7562  1.6407 -1.6590
17998TIP3    H275410   5.731   2.471   5.824  0.3859 -0.0802  0.4385
17999TIP3   OH275411   1.591   6.455  12.939  0.6119  0.0108 -0.8856
17999TIP3    H175412   1.529   6.493  12.876 -1.5409 -0.5359  0.8498
17999TIP3    H275413   1.643   6.530  12.969  1.4796  0.3266 -3.0664
18000TIP3   OH275414   2.808   6.516   1.299  0.1542 -0.0726 -0.5572
18000TIP3    H175415   2.771   6.508   1.387 -0.3645  1.3804 -0.6418
18000TIP3    H275416   2.733   6.512   1.241  0.2928  1.1272 -0.8209
18001TIP3   OH275417   5.198   3.974   4.421 -0.1460  0.0068  0.1597
18001TIP3    H175418   5.263   4.004   4.357  1.7028 -0.0132  1.9374
18001TIP3    H275419   5.175   4.053   4.470 -1.2595 -0.0471 -0.2608
18002TIP3   OH275420   3.566   4.147   4.590 -0.0973  0.5033 -0.1938
18002TIP3    H175421   3.643   4.196   4.561 -0.3900  0.9024 -0.3074
18002TIP3    H275422   3.521   4.207   4.650 -1.3316  1.0155 -1.6026
18003TIP3   OH275423   5.944   3.504  14.320 -0.1387 -0.4882  0.2551
18003TIP3    H175424   5.908   3.495  14.232 -0.9342 -0.0370  0.5334
18003TIP3    H275425   5.874   3.544  14.371  0.2383 -0.9383  1.1460
18004TIP3   OH275426   4.551   3.856  11.201  0.0237  0.5854 -0.0937
18004TIP3    H175427   4.525   3.932  11.150 -1.0001 -1.1680 -2.2645
18004TIP3    H275428   4.644   3.843  11.179 -0.5503 -0.4890 -2.0131
18005TIP3   OH275429   6.467   3.355  14.993  0.2274 -0.0165 -0.5162
18005TIP3    H175430   6.540   3.371  15.053  0.4188  0.5589 -0.8989
18005TIP3    H275431   6.452   3.439  14.949 -2.7421  0.7462  1.8038
18006TIP3   OH275432   5.882   3.234   4.718 -0.3583 -0.2841  0.8360
18006TIP3    H175433   5.848   3.246   4.807 -3.1444 -3.5050  0.2974
18006TIP3    H275434   5.815   3.272   4.661  0.4174 -0.1343  0.0033
18007TIP3   OH275435   4.773   6.567   0.105  0.4139 -0.2443 -0.1502
18007TIP3    H175436   4.737   6.631   0.044  1.6408  0.6099 -0.0037
18007TIP3    H275437   4.848   6.612   0.145 -1.6149  0.0226  3.5640
18008TIP3   OH275438   5.354   2.221  12.241 -0.0381  0.6553 -0.3767
18008TIP3    H175439   5.405   2.301  12.249  0.4816  0.4426 -1.5547
18008TIP3    H275440   5.265   2.251  12.223 -0.0396  0.9887  0.1892
18009TIP3   OH275441   1.732   2.606  16.953  0.6062 -0.6532 -0.3466
18009TIP3    H175442   1.668   2.663  16.995  0.4641 -1.7980  1.0291
18009TIP3    H275443   1.817   2.636  16.988  0.7489  0.2812 -1.4796
18010TIP3   OH275444   2.347   4.801   3.809 -0.2848 -0.2943 -0.1811
18010TIP3    H175445   2.316   4.889   3.832  1.3086  0.0843  0.5629
18010TIP3    H275446   2.307   4.743   3.873 -0.0149  0.0999  0.3428
18011TIP3   OH275447   2.187   4.913   2.637 -0.1949  0.0492 -0.1260
18011TIP3    H175448   2.279   4.892   2.623  0.0700  1.4681 -0.5832
18011TIP3    H275449   2.144   4.887   2.555 -0.4125 -1.7063  0.5190
18012TIP3   OH275450   4.407   3.397  15.017 -0.4588 -0.2542 -0.5419
18012TIP3    H175451   4.499   3.390  15.041 -0.8052 -0.5803  0.7331
18012TIP3    H275452   4.394   3.490  15.000 -0.6667  0.3255  2.5519
18013TIP3   OH275453   2.421   3.213   3.290 -0.0485 -0.2824  0.0315
18013TIP3    H175454   2.432   3.305   3.313  1.7418 -0.3003 -0.6702
18013TIP3    H275455   2.380   3.173   3.367 -1.4608  1.2082  0.0907
18014TIP3   OH275456   3.035   6.509   4.708  0.0731  0.0098  0.1860
18014TIP3    H175457   3.095   6.446   4.748 -0.4672 -0.9605 -0.4915
18014TIP3    H275458   2.951   6.492   4.751 -0.6357 -1.4107 -1.7097
18015TIP3   OH275459   2.618   5.846   1.349 -0.0178  0.4180 -0.2520
18015TIP3    H175460   2.569   5.771   1.315  0.0219  0.2105  0.1451
18015TIP3    H275461   2.672   5.876   1.275  0.2406 -0.1744 -0.3027
18016TIP3   OH275462   3.044   5.600  12.869  0.1309  0.1217  0.4078
18016TIP3    H175463   2.993   5.568  12.795  0.1714  0.1416  0.3721
18016TIP3    H275464   2.998   5.679  12.898  0.3081  0.3109  0.1856
18017TIP3   OH275465   4.862   3.087  11.728 -0.4535  0.0472  0.1263
18017TIP3    H175466   4.777   3.082  11.684 -0.2400 -1.5964 -0.1259
18017TIP3    H275467   4.914   3.017  11.689  1.0183  1.0233  0.2983
18018TIP3   OH275468   4.633   6.002  10.349  0.4886  0.0827  0.2941
18018TIP3    H175469   4.670   5.965  10.269 -1.3277  0.6989 -0.8785
18018TIP3    H275470   4.552   5.951  10.363 -0.0039  1.0120  0.8483
18019TIP3   OH275471   5.824   5.633  16.723 -0.0941  0.0433 -0.4477
18019TIP3    H175472   5.796   5.687  16.797 -0.2409  1.3812 -1.4763
18019TIP3    H275473   5.913   5.663  16.703  0.3095 -0.9604 -0.2351
18020TIP3   OH275474   4.966   1.961  14.531  0.7226  0.5397 -0.2317
18020TIP3    H175475   4.872   1.940  14.537  1.0878 -0.8329  1.1511
18020TIP3    H275476   4.983   1.966  14.437 -0.8323  1.2791 -0.5013
18021TIP3   OH275477   1.425   3.760   2.433  0.2538 -0.2492  0.2155
18021TIP3    H175478   1.505   3.776   2.382  1.2615  1.6370  2.2781
18021TIP3    H275479   1.354   3.763   2.369  1.6842 -0.1462 -1.3947
18022TIP3   OH275480   0.189   6.422  12.276  0.2826 -0.6733 -0.0430
18022TIP3    H175481   0.095   6.431  12.262 -0.0085 -1.0716  1.5810
18022TIP3    H275482   0.200   6.433  12.370  2.0031  0.5866 -0.3639
18023TIP3   OH275483   3.093   2.279   1.211 -0.4124 -0.0141  0.0817
18023TIP3    H175484   3.011   2.327   1.204 -1.2505 -1.4900 -0.5202
18023TIP3    H275485   3.151   2.337   1.261 -0.9123  2.2067 -1.8238
18024TIP3   OH275486   1.610   1.548  12.510 -0.4837  0.9209 -0.2256
18024TIP3    H175487   1.658   1.476  12.551 -0.2791  0.0559 -1.9585
18024TIP3    H275488   1.546   1.575  12.576 -2.1392 -2.3874 -0.4026
18025TIP3   OH275489   1.569   3.035  15.983  0.0851  0.2546  0.4029
18025TIP3    H175490   1.594   2.947  15.957  0.9392  0.8665 -0.9100
18025TIP3    H275491   1.580   3.088  15.904  1.9249  2.0064  1.7776
18026TIP3   OH275492   5.330   6.091  15.778 -0.5685  0.2879 -0.5041
18026TIP3    H175493   5.334   6.021  15.712  1.1401  1.7766 -2.0299
18026TIP3    H275494   5.246   6.079  15.820 -1.3909 -1.1694 -2.4688
18027TIP3   OH275495   3.561   4.415  15.083  0.0702 -0.5352  0.4749
18027TIP3    H175496   3.511   4.492  15.056 -2.4017 -2.8377 -1.8502
18027TIP3    H275497   3.502   4.368  15.142  0.3234 -2.1647 -0.5445
18028TIP3   OH275498   1.516   3.452  11.368 -0.1113 -0.3129 -0.2492
18028TIP3    H175499   1.554   3.500  11.441 -0.9125  1.1971 -0.8148
18028TIP3    H275500   1.590   3.435  11.309  0.2933 -0.3610  0.2771
18029TIP3   OH275501   2.959   5.852  13.979 -0.2340  0.4221  0.1334
18029TIP3    H175502   2.875   5.872  14.019  0.4832 -1.5495  2.8069
18029TIP3    H275503   3.024   5.877  14.045  1.1794  0.0299 -1.0683
18030TIP3   OH275504   1.419   5.335  11.327 -0.7750 -0.2341  0.3857
18030TIP3    H175505   1.424   5.268  11.396  1.1359  0.1551  0.6752
18030TIP3    H275506   1.484   5.308  11.263  0.2912  1.5102  0.6796
18031TIP3   OH275507   1.860   1.882  10.754  0.2868  0.3672 -0.2002
18031TIP3    H175508   1.897   1.795  10.739 -1.4156 -0.9575  2.7216
18031TIP3    H275509   1.778   1.882  10.705 -1.0090 -0.7064  1.9066
18032TIP3   OH275510   6.724   5.272   4.533 -0.3566  0.0461 -0.4136
18032TIP3    H175511   6.799   5.221   4.503  0.7686  1.9555 -0.9504
18032TIP3    H275512   6.653   5.248   4.473  0.5550  0.2067 -1.5753
18033TIP3   OH275513   6.262   2.851  14.057  0.5679  0.3844  0.2341
18033TIP3    H175514   6.212   2.770  14.053  0.6571  0.1742  2.7560
18033TIP3    H275515   6.220   2.908  13.992 -0.4386 -1.1400 -0.4814
18034TIP3   OH275516   1.608   4.028  15.698 -0.3243  0.1391  0.2705
18034TIP3    H175517   1.518   4.002  15.679 -0.7522  1.6706  0.1143
18034TIP3    H275518   1.653   4.025  15.614 -0.9766  2.1544 -0.1820
18035TIP3   OH275519   5.399   3.716  16.871 -0.1317 -0.0088 -0.6821
18035TIP3    H175520   5.464   3.785  16.856 -2.0889  1.4362 -2.8641
18035TIP3    H275521   5.446   3.635  16.854  1.2905  0.9864 -1.6084
18036TIP3   OH275522   0.242   2.825   5.902  0.0857  0.0370  0.0589
18036TIP3    H175523   0.253   2.730   5.905  1.4254  0.1999  0.5967
18036TIP3    H275524   0.166   2.842   5.958  0.8639 -0.5654  1.3086
18037TIP3   OH275525   5.955   0.869  14.892  0.0435  0.2735  0.0047
18037TIP3    H175526   5.931   0.854  14.801  0.5850  1.0070 -0.2663
18037TIP3    H275527   6.027   0.809  14.908 -1.0510 -0.9629  0.4206
18038TIP3   OH275528   3.228   0.349  17.054  0.0502 -0.0698  0.2163
18038TIP3    H175529   3.255   0.371  17.143 -2.9469 -0.9830  1.4071
18038TIP3    H275530   3.204   0.257  17.057 -2.9711  0.5966 -0.7285
18039TIP3   OH275531   0.794   6.251   1.871  0.9664  0.4300 -0.1662
18039TIP3    H175532   0.794   6.272   1.777 -1.0542 -2.2750 -0.8534
18039TIP3    H275533   0.869   6.193   1.883 -0.2174 -1.2622 -0.6816
18040TIP3   OH275534   1.558   5.208   1.779  0.3273  0.0841  0.0172
18040TIP3    H175535   1.600   5.133   1.821  2.0765  1.6650  1.1591
18040TIP3    H275536   1.497   5.169   1.716  1.5395 -2.2870  0.2525
18041TIP3   OH275537   6.174   3.649  14.258  0.5592  0.0965  0.5151
18041TIP3    H175538   6.093   3.602  14.280  0.4560  0.6313  1.2949
18041TIP3    H275539   6.212   3.672  14.343  0.7421  1.1889  0.1508
18042TIP3   OH275540   3.588   0.407  16.983  0.3645  0.4179  0.2132
18042TIP3    H175541   3.553   0.408  16.894 -0.9493  1.0795  0.7180
18042TIP3    H275542   3.511   0.420  17.039  1.2402  0.5245  1.4184
18043TIP3   OH275543   5.947   4.953   4.694  0.0559 -0.2113 -0.0979
18043TIP3    H175544   5.922   5.024   4.635 -1.8151 -0.9688 -0.2618
18043TIP3    H275545   6.017   4.990   4.747 -0.9394  1.8074 -0.1227
18044TIP3   OH275546   3.252   6.387   3.099 -0.0243  1.1962  0.3041
18044TIP3    H175547   3.198   6.309   3.084  0.8699 -0.0595  3.2511
18044TIP3    H275548   3.251   6.398   3.194  0.9836  4.0027  0.0112
18045TIP3   OH275549   4.065   4.632  16.266  0.8913 -0.6497 -0.3795
18045TIP3    H175550   4.136   4.696  16.262 -0.1088  0.5519  0.8014
18045TIP3    H275551   4.098   4.564  16.325  2.2320 -1.6080 -2.1865
18046TIP3   OH275552   1.363   0.225  12.001  0.4297  0.0308  0.7771
18046TIP3    H175553   1.385   0.303  11.950  0.8716  0.3048  1.3743
18046TIP3    H275554   1.447   0.181  12.015  0.5485  0.7738  2.5781
18047TIP3   OH275555   4.250   3.323  16.246  0.0417 -0.0247  0.0217
18047TIP3    H175556   4.278   3.295  16.334 -0.4758  0.2768  0.2825
18047TIP3    H275557   4.171   3.374  16.261 -0.2463 -0.2657 -0.6589
18048TIP3   OH275558   2.135   6.516   0.980  0.0825  0.6481 -0.0325
18048TIP3    H175559   2.072   6.543   1.047 -0.0434  0.1974  0.0340
18048TIP3    H275560   2.194   6.456   1.026  0.4948  0.9910 -0.1216
18049TIP3   OH275561   4.477   6.165  15.007 -0.4015 -0.0317  0.7769
18049TIP3    H175562   4.403   6.107  14.991  0.2834 -1.2689  1.9744
18049TIP3    H275563   4.519   6.176  14.922 -1.0578 -0.5679  0.3839
18050TIP3   OH275564   6.535   2.189  14.667 -0.0737  0.2674 -0.2375
18050TIP3    H175565   6.472   2.126  14.632 -1.3085 -0.0192  2.3408
18050TIP3    H275566   6.581   2.141  14.736  1.5754  1.0848 -0.7412
18051TIP3   OH275567   3.429   2.662   4.166  0.1376 -0.4526 -0.3175
18051TIP3    H175568   3.409   2.579   4.122  0.2988 -0.1455 -0.9749
18051TIP3    H275569   3.473   2.714   4.099 -0.4043  0.3544 -0.0469
18052TIP3   OH275570   2.980   5.877   1.063  0.3315  0.0655 -0.1534
18052TIP3    H175571   3.019   5.953   1.020  0.7494 -0.3420 -0.5035
18052TIP3    H275572   2.987   5.807   0.998 -0.7178 -0.0893 -0.1086
18053TIP3   OH275573   3.362   1.038  13.723  0.0731 -0.3905 -0.0695
18053TIP3    H175574   3.457   1.026  13.729  0.3271  1.0164 -0.9159
18053TIP3    H275575   3.331   1.035  13.813  0.9301 -0.7682  0.2196
18054TIP3   OH275576   5.223   4.734   5.395 -0.1926 -0.0139  0.0669
18054TIP3    H175577   5.235   4.825   5.423 -3.3515  0.2714  0.7302
18054TIP3    H275578   5.270   4.728   5.312 -0.2167  2.3301 -0.1579
18055TIP3   OH275579   5.451   2.064   4.490  0.2423 -0.1204  0.4644
18055TIP3    H175580   5.502   1.984   4.480  0.9259  0.2787  0.6420
18055TIP3    H275581   5.374   2.051   4.436  1.2558 -0.1646 -1.0178
18056TIP3   OH275582   6.085   6.604  17.150  0.4454 -0.1192  0.0400
18056TIP3    H175583   6.010   6.637  17.100 -0.0663  0.9251  1.4915
18056TIP3    H275584   6.056   6.519  17.183 -0.3862  0.6075  1.2160
18057TIP3   OH275585   5.717   1.347   3.309  0.0119 -0.3112  0.2574
18057TIP3    H175586   5.689   1.436   3.330  0.4043 -0.1341  0.0366
18057TIP3    H275587   5.795   1.333   3.363  1.6846  0.5491 -1.8824
18058TIP3   OH275588   5.017   1.173  11.691 -0.0095 -0.0237 -0.4097
18058TIP3    H175589   5.040   1.144  11.603 -0.9203  2.2716 -1.4506
18058TIP3    H275590   5.054   1.261  11.698 -2.1494  0.8423  0.5248
18059TIP3   OH275591   1.869   0.476  12.365  0.2222 -0.0144 -0.4146
18059TIP3    H175592   1.822   0.428  12.297 -0.0783 -1.1912  0.5973
18059TIP3    H275593   1.907   0.408  12.420  0.8901  0.9250  0.3028
18060TIP3   OH275594   0.918   4.234   0.251  0.1099 -0.2577  0.3779
18060TIP3    H175595   1.009   4.218   0.228 -0.0688 -0.4822 -0.1851
18060TIP3    H275596   0.888   4.299   0.187 -0.1636 -0.2825  0.4794
18061TIP3   OH275597   3.219   1.392   6.896  0.0207  0.1160  0.2992
18061TIP3    H175598   3.302   1.377   6.940  1.1290  1.0565 -1.3707
18061TIP3    H275599   3.209   1.317   6.837 -0.2437  0.0654  0.4100
18062TIP3   OH275600   1.516   5.022  16.554 -0.4811  0.3241  0.0844
18062TIP3    H175601   1.491   5.003  16.645  0.2326 -0.6689  0.0851
18062TIP3    H275602   1.443   4.987  16.502 -0.2325 -0.3812  0.2043
18063TIP3   OH275603   1.764   1.320  12.585 -0.0206 -0.8610 -0.0770
18063TIP3    H175604   1.837   1.335  12.525  1.3041 -1.0347  1.4591
18063TIP3    H275605   1.728   1.235  12.559  1.7797 -1.8540  0.6124
18064TIP3   OH275606   2.791   4.453   6.040  0.0104  0.4234  0.1765
18064TIP3    H175607   2.840   4.450   5.958 -0.6142  1.6884 -0.2573
18064TIP3    H275608   2.843   4.401   6.101  0.7863 -0.0302 -0.8542
18065TIP3   OH275609   1.797   4.525   4.578 -0.2656 -0.1250 -0.3951
18065TIP3    H175610   1.778   4.436   4.549  0.5181  0.0689 -1.5562
18065TIP3    H275611   1.757   4.581   4.511  0.7667  0.3553 -0.6254
18066TIP3   OH275612   2.641   4.778  15.145 -0.0023  0.1106 -0.6108
18066TIP3    H175613   2.599   4.863  15.157  0.6514  0.6556 -2.0925
18066TIP3    H275614   2.574   4.714  15.170 -0.8802  1.0299 -0.5956
18067TIP3   OH275615   4.750   1.535  13.853  0.1140  0.6070 -0.1325
18067TIP3    H175616   4.723   1.452  13.814 -2.7961  1.0406  0.8257
18067TIP3    H275617   4.826   1.562  13.802  0.1124 -1.8371 -1.4968
18068TIP3   OH275618   1.325   6.652  12.400 -0.3017  0.6171  0.3178
18068TIP3    H175619   1.298   6.666  12.491 -1.0834 -1.6421  0.4688
18068TIP3    H275620   1.263   6.704  12.349 -0.6201  0.9372  1.0239
18069TIP3   OH275621   4.852   0.061   0.231  0.6018 -0.3643 -0.5340
18069TIP3    H175622   4.768   0.020   0.253  1.3980 -0.9495  1.5010
18069TIP3    H275623   4.871   0.117   0.306  2.0347 -0.2223 -1.0008
18070TIP3   OH275624   4.246   4.886   0.096  0.0514 -0.0254  0.0447
18070TIP3    H175625   4.156   4.862   0.073 -0.4397 -0.6597  2.4805
18070TIP3    H275626   4.287   4.803   0.121  1.4279  0.2085 -1.4165
18071TIP3   OH275627   1.698   2.161   3.562  0.1579  0.2137 -0.1839
18071TIP3    H175628   1.652   2.101   3.620 -1.1285  0.7705 -0.5911
18071TIP3    H275629   1.722   2.108   3.486  0.2487 -0.1007  0.0663
18072TIP3   OH275630   6.066   4.712  11.217  0.2058  0.0395  0.5855
18072TIP3    H175631   5.971   4.720  11.215  0.3383  2.4052  1.6602
18072TIP3    H275632   6.096   4.758  11.138  0.3771 -3.6237 -1.6269
18073TIP3   OH275633   2.286   2.344  15.356 -0.1838 -0.0200 -0.6112
18073TIP3    H175634   2.302   2.434  15.382 -0.1594  0.1136 -1.0791
18073TIP3    H275635   2.315   2.340  15.265 -3.0870  0.3014 -1.5942
18074TIP3   OH275636   0.782   1.049  17.011  0.7838 -0.4134  0.0031
18074TIP3    H175637   0.868   1.008  17.002  0.6202 -1.2871  2.1792
18074TIP3    H275638   0.721   0.975  17.018  0.1555  0.2026  1.1098
18075TIP3   OH275639   0.991   5.335  12.464 -0.2562 -1.0878  0.3301
18075TIP3    H175640   1.078   5.295  12.470  1.2199  2.1778  2.1288
18075TIP3    H275641   1.007   5.419  12.419 -2.4965 -0.4833  0.6181
18076TIP3   OH275642   3.261   6.653   3.791  0.2565  0.2224 -0.8736
18076TIP3    H175643   3.261   6.685   3.881 -0.1945 -0.9495 -0.4440
18076TIP3    H275644   3.329   6.586   3.789  0.3688  0.3496 -1.4437
18077TIP3   OH275645   1.906   5.166  13.637 -0.2409 -0.0900 -0.1205
18077TIP3    H175646   1.948   5.185  13.721  0.0864  0.5705 -0.4350
18077TIP3    H275647   1.969   5.110  13.592  0.5143  1.2690 -0.7755
18078TIP3   OH275648   0.638   0.506   2.994 -0.6674  0.0237 -0.3483
18078TIP3    H175649   0.627   0.547   3.080  0.6386  1.9150 -1.0443
18078TIP3    H275650   0.556   0.526   2.947  0.1633  2.3293 -0.8569
18079TIP3   OH275651   0.623   2.115   5.061  0.3851 -0.1157 -0.4221
18079TIP3    H175652   0.673   2.080   5.134  0.8419 -1.1385 -1.2161
18079TIP3    H275653   0.685   2.171   5.014  0.4548 -0.4667 -0.7486
18080TIP3   OH275654   5.963   3.047   4.925 -0.0486 -0.4083  0.4164
18080TIP3    H175655   6.023   3.027   4.854  0.4782 -1.8663  1.2500
18080TIP3    H275656   6.010   3.110   4.979  0.1081 -0.3594  0.2239
18081TIP3   OH275657   1.559   6.242   5.816  0.2861 -0.0513  0.1322
18081TIP3    H175658   1.481   6.295   5.799 -1.5961 -1.9661  2.4235
18081TIP3    H275659   1.535   6.154   5.787  2.2717 -0.3030 -0.8155
18082TIP3   OH275660   6.574   3.500  14.596 -0.1621 -0.4844 -0.2815
18082TIP3    H175661   6.507   3.553  14.553  1.4916  1.3991 -0.5988
18082TIP3    H275662   6.542   3.489  14.686  0.3303  2.7145  0.3575
18083TIP3   OH275663   0.312   1.564  11.195  0.1200 -0.2158  0.9843
18083TIP3    H175664   0.339   1.647  11.233  0.9623 -0.2477  0.4734
18083TIP3    H275665   0.325   1.575  11.101  0.0943 -0.8751  0.8997
18084TIP3   OH275666   6.613   3.788   2.149 -0.1540  0.3002 -0.3711
18084TIP3    H175667   6.527   3.751   2.170  0.6916 -1.8518 -0.5908
18084TIP3    H275668   6.656   3.798   2.234 -0.1204  0.1156 -0.3670
18085TIP3   OH275669   0.541   1.543   1.416 -0.4932 -0.1424  0.1946
18085TIP3    H175670   0.473   1.505   1.359  0.3910 -0.5773 -0.5856
18085TIP3    H275671   0.499   1.619   1.456 -1.2381 -0.0206 -0.7883
18086TIP3   OH275672   3.717   5.176   5.360  0.0503 -0.4585 -0.2891
18086TIP3    H175673   3.663   5.237   5.309  1.4813 -1.2913 -2.8776
18086TIP3    H275674   3.778   5.139   5.296  2.2364 -1.1774  2.1541
18087TIP3   OH275675   1.354   3.028   4.549 -0.5026 -0.2319  0.3802
18087TIP3    H175676   1.378   3.102   4.493 -1.6298 -0.7256 -0.7773
18087TIP3    H275677   1.432   2.972   4.550  1.0797  1.8971  2.8791
18088TIP3   OH275678   0.036   4.768  16.093  0.4075  0.3148 -0.0994
18088TIP3    H175679   0.039   4.750  15.999  3.0269 -1.7703  0.3178
18088TIP3    H275680   0.008   4.859  16.099 -0.3365  0.3093 -2.8769
18089TIP3   OH275681   3.772   0.573   4.367 -0.5902 -0.1982 -0.2160
18089TIP3    H175682   3.809   0.582   4.278 -1.2924 -0.9625 -0.5927
18089TIP3    H275683   3.809   0.490   4.399  0.0713  0.3353  0.4080
18090TIP3   OH275684   0.050   3.254  11.409  0.0906 -0.5032 -0.0749
18090TIP3    H175685   0.059   3.185  11.474 -1.0524  0.5314  1.2135
18090TIP3    H275686   0.139   3.269  11.378  0.4022 -2.2828 -0.1098
18091TIP3   OH275687   3.606   3.468  11.055 -0.3981 -0.6730 -0.0028
18091TIP3    H175688   3.589   3.555  11.020  1.6864  0.0582  0.7032
18091TIP3    H275689   3.595   3.409  10.980  0.6360  0.4860 -1.0896
18092TIP3   OH275690   2.571   2.130  13.300 -0.1992 -0.1094 -0.0167
18092TIP3    H175691   2.497   2.106  13.244  1.0110  0.6511 -2.0111
18092TIP3    H275692   2.596   2.049  13.344 -0.8852 -0.8372 -0.9509
18093TIP3   OH275693   6.185   4.578   6.219 -0.1972  0.3483  0.4851
18093TIP3    H175694   6.276   4.557   6.197 -0.2231  0.8932 -0.1767
18093TIP3    H275695   6.191   4.626   6.301  0.1325  0.5695  0.3338
18094TIP3   OH275696   0.599   4.910  15.407  0.1653 -0.5897  0.0933
18094TIP3    H175697   0.640   4.979  15.458 -0.3473  0.3305 -0.7302
18094TIP3    H275698   0.671   4.862  15.367  0.5501 -1.0286  1.2934
18095TIP3   OH275699   1.836   2.064   4.418  0.1051 -0.6262  0.0455
18095TIP3    H175700   1.804   1.980   4.451 -0.5912 -0.6664 -0.6791
18095TIP3    H275701   1.920   2.044   4.377 -0.4922 -1.1540 -0.9445
18096TIP3   OH275702   4.222   6.586  15.896  0.5549 -0.3847 -0.0017
18096TIP3    H175703   4.214   6.672  15.856  2.5415 -0.8279 -1.4656
18096TIP3    H275704   4.191   6.597  15.985  2.1903  2.2379  0.2919
18097TIP3   OH275705   3.433   5.161  14.753 -0.3093  0.0359  0.0941
18097TIP3    H175706   3.380   5.240  14.752 -1.9530 -1.0203  0.6283
18097TIP3    H275707   3.523   5.192  14.753 -0.9059  1.8693 -1.4482
18098TIP3   OH275708   2.693   3.117  14.746 -0.3108  0.2148  0.2473
18098TIP3    H175709   2.743   3.062  14.806 -1.3797 -0.3936  0.5921
18098TIP3    H275710   2.759   3.161  14.693  0.5899 -0.5235  0.7485
18099TIP3   OH275711   6.183   3.371  13.047 -0.1118  0.2485 -0.1200
18099TIP3    H175712   6.183   3.280  13.076 -0.1770  0.2205 -0.2100
18099TIP3    H275713   6.211   3.367  12.956  0.3345  0.3599  0.0094
18100TIP3   OH275714   4.948   0.818   1.299 -0.6453  0.4180  0.5952
18100TIP3    H175715   4.994   0.786   1.222 -0.0228 -0.4706  1.3210
18100TIP3    H275716   4.895   0.744   1.328  0.1164  0.3057  1.7640
18101TIP3   OH275717   2.582   0.835  13.061  0.0547  0.3349  0.0721
18101TIP3    H175718   2.551   0.788  13.138 -0.0183 -1.3894 -0.9715
18101TIP3    H275719   2.502   0.855  13.012  0.0784  1.6571  0.5649
18102TIP3   OH275720   3.798   3.241   4.292  0.1535 -0.4767  0.2327
18102TIP3    H175721   3.770   3.162   4.337 -0.5768 -1.1295 -1.3225
18102TIP3    H275722   3.889   3.254   4.318  0.4720 -2.1883 -0.0340
18103TIP3   OH275723   1.629   3.583   3.291  0.7996 -0.0358 -0.5495
18103TIP3    H175724   1.632   3.673   3.258 -0.9172  0.2176 -0.1059
18103TIP3    H275725   1.697   3.580   3.359 -0.4500  1.5495  0.8411
18104TIP3   OH275726   4.352   0.300   6.302 -0.7324 -0.0536  0.6197
18104TIP3    H175727   4.286   0.238   6.270 -0.1590 -0.5662  0.4217
18104TIP3    H275728   4.352   0.286   6.397 -1.0089  0.0454  0.6353
18105TIP3   OH275729   4.371   0.791  16.651  0.3865 -0.0964 -0.0577
18105TIP3    H175730   4.427   0.860  16.686 -1.0878  0.8345  0.5051
18105TIP3    H275731   4.382   0.718  16.712 -0.3212  0.6755  1.0057
18106TIP3   OH275732   6.577   5.971  11.115 -0.8783 -0.3397  0.5544
18106TIP3    H175733   6.596   6.046  11.058 -0.4893  0.7686  2.1280
18106TIP3    H275734   6.601   6.001  11.203 -1.6987 -1.9568  1.3394
18107TIP3   OH275735   3.454   0.503   2.360 -0.1658  0.3252 -0.7745
18107TIP3    H175736   3.541   0.542   2.354 -0.7175  1.7636  0.3283
18107TIP3    H275737   3.466   0.427   2.417  0.7684 -0.7242 -2.3397
18108TIP3   OH275738   6.442   1.831   5.341 -0.1338  0.1478 -0.5492
18108TIP3    H175739   6.418   1.743   5.370  1.0609 -0.0165 -0.0105
18108TIP3    H275740   6.376   1.888   5.381 -0.7103 -0.4647 -0.6173
18109TIP3   OH275741   3.470   4.937  14.152  0.6404 -0.1231 -0.1388
18109TIP3    H175742   3.397   4.960  14.210  0.6692 -0.0208 -0.1444
18109TIP3    H275743   3.518   4.869  14.200  0.4744 -0.2749 -0.1864
18110TIP3   OH275744   3.727   3.447  12.796 -0.2893 -0.4413 -0.3531
18110TIP3    H175745   3.756   3.499  12.721 -0.5132  0.6851  0.3406
18110TIP3    H275746   3.784   3.474  12.867 -1.4260 -0.0181  0.4032
18111TIP3   OH275747   5.822   4.006  16.803 -0.4518 -0.1298 -0.4551
18111TIP3    H175748   5.877   4.047  16.869 -1.8783  1.1139 -0.0152
18111TIP3    H275749   5.855   3.916  16.797  0.1162 -0.0772  1.4611
18112TIP3   OH275750   6.396   4.444   1.267 -0.5432 -0.6502 -0.0824
18112TIP3    H175751   6.368   4.353   1.264 -2.3917 -0.1266  0.6655
18112TIP3    H275752   6.315   4.494   1.267  0.3538  0.9042  2.8208
18113TIP3   OH275753   6.054   1.804   5.163 -0.1900 -0.4358 -0.0782
18113TIP3    H175754   6.069   1.854   5.243 -0.8068  2.1431 -1.5185
18113TIP3    H275755   5.974   1.841   5.126 -0.1969 -1.9405 -1.6216
18114TIP3   OH275756   6.785   3.918  16.862 -0.0010 -0.0428 -0.4326
18114TIP3    H175757   6.713   3.876  16.910  0.3545  0.0624  0.2102
18114TIP3    H275758   6.862   3.902  16.917 -0.1747  3.1082  0.8032
18115TIP3   OH275759   4.899   0.419  12.057  0.1622  0.2283  0.3067
18115TIP3    H175760   4.889   0.340  12.110 -2.1455  0.8918  0.9464
18115TIP3    H275761   4.992   0.421  12.034  0.2311 -2.8139  0.0235
18116TIP3   OH275762   4.710   3.602   1.590  0.0392 -0.0889  0.3741
18116TIP3    H175763   4.763   3.558   1.657 -0.0287 -1.5104 -0.4984
18116TIP3    H275764   4.622   3.604   1.627  0.4702  1.3382  1.3738
18117TIP3   OH275765   3.875   4.398   6.146 -0.4418  0.1743 -0.1911
18117TIP3    H175766   3.852   4.362   6.061 -0.9957 -2.8021  1.1742
18117TIP3    H275767   3.798   4.447   6.173 -0.3173  1.0136 -1.2979
18118TIP3   OH275768   6.769   2.180   0.764 -0.1278 -0.1266 -0.5422
18118TIP3    H175769   6.702   2.242   0.795  0.7780  0.5284  0.1590
18118TIP3    H275770   6.759   2.104   0.821 -0.7812 -0.3444 -0.9435
18119TIP3   OH275771   1.672   0.156   0.868  0.1540 -0.6290  0.1760
18119TIP3    H175772   1.589   0.108   0.863  0.3403 -1.0029  0.6088
18119TIP3    H275773   1.647   0.245   0.895 -0.0226 -1.0015  1.2677
18120TIP3   OH275774   6.426   6.053   5.060  0.2093  0.4130 -0.5552
18120TIP3    H175775   6.513   6.078   5.030  0.3532  0.1248 -0.3813
18120TIP3    H275776   6.381   6.136   5.074  0.4209  0.5619 -0.7463
18121TIP3   OH275777   3.816   0.555  17.028 -0.0183  0.1718  0.1393
18121TIP3    H175778   3.735   0.508  17.044  0.6596 -0.8016  0.8244
18121TIP3    H275779   3.793   0.625  16.968 -1.5203  0.3810  0.9532
18122TIP3   OH275780   2.509   1.662   2.387 -0.1078  0.0383  0.5491
18122TIP3    H175781   2.551   1.748   2.382  0.2139 -0.1601 -0.2291
18122TIP3    H275782   2.449   1.669   2.461  1.9606  0.0175  2.2776
18123TIP3   OH275783   0.531   4.503   2.766 -0.3083  0.5840 -0.2873
18123TIP3    H175784   0.567   4.592   2.760  2.1343 -0.2532  1.1914
18123TIP3    H275785   0.571   4.457   2.692  0.9312 -0.0868  0.7790
18124TIP3   OH275786   6.193   6.068   0.057  0.2166 -0.7969  0.3840
18124TIP3    H175787   6.274   6.054   0.106  1.3091 -0.4679 -1.3086
18124TIP3    H275788   6.211   6.037  -0.031 -0.8394  1.1045 -0.5463
18125TIP3   OH275789   3.228   2.840   1.833 -0.4743  0.5068  0.4023
18125TIP3    H175790   3.205   2.855   1.924 -1.0860 -1.1039  0.5296
18125TIP3    H275791   3.285   2.763   1.835  0.7053  1.3532 -0.4289
18126TIP3   OH275792   2.697   5.918  10.888 -0.3671 -0.1082  0.0691
18126TIP3    H175793   2.711   6.012  10.898 -0.4852  0.2593 -2.8848
18126TIP3    H275794   2.774   5.888  10.840  0.2899 -1.7915  2.0802
18127TIP3   OH275795   5.573   4.570  12.391  0.6934  0.8012  0.0470
18127TIP3    H175796   5.498   4.586  12.448  1.6235 -1.0995  1.8245
18127TIP3    H275797   5.572   4.476  12.375  0.1745  1.3351 -3.5032
18128TIP3   OH275798   4.999   4.841  10.937 -0.2453 -0.3934 -0.2492
18128TIP3    H175799   5.073   4.847  10.997 -0.6999  0.9106  0.2092
18128TIP3    H275800   4.973   4.932  10.922  0.6594 -0.6147 -3.4694
18129TIP3   OH275801   5.953   3.746  12.937 -0.1553 -0.5343  0.0063
18129TIP3    H175802   5.893   3.781  13.003  0.6220  1.0428 -0.0990
18129TIP3    H275803   5.949   3.651  12.949  1.5889 -0.2330  3.7665
18130TIP3   OH275804   1.398   2.017  15.186 -0.3927  0.2204  0.2024
18130TIP3    H175805   1.308   1.996  15.158 -0.7086  1.9345 -0.1693
18130TIP3    H275806   1.443   2.041  15.105  0.2497 -0.0933  0.4627
18131TIP3   OH275807   1.372   0.998   3.664  0.1234  0.3549 -0.0874
18131TIP3    H175808   1.461   1.012   3.631  0.8203 -2.4960  0.4802
18131TIP3    H275809   1.362   0.903   3.669 -2.6807  0.6300  0.6635
18132TIP3   OH275810   2.620   4.727  11.990 -0.6323 -0.5137  0.3226
18132TIP3    H175811   2.606   4.638  11.956 -0.1786 -0.7249  0.6775
18132TIP3    H275812   2.710   4.748  11.964  0.3238 -1.3469  2.8766
18133TIP3   OH275813   0.282   4.033   0.604  0.5131 -0.2819  0.0352
18133TIP3    H175814   0.289   4.039   0.508 -0.7904  0.8427 -0.0040
18133TIP3    H275815   0.191   4.055   0.623  1.0576  0.6973  1.6275
18134TIP3   OH275816   5.700   4.718   1.271  0.0066  0.0824 -0.1961
18134TIP3    H175817   5.637   4.785   1.297  0.9125  0.1393  1.9409
18134TIP3    H275818   5.657   4.635   1.293  0.1034  0.0726 -0.0416
18135TIP3   OH275819   6.125   1.270   5.897 -0.6031  0.4779  0.5984
18135TIP3    H175820   6.061   1.220   5.947 -0.0842  1.8964  2.7332
18135TIP3    H275821   6.085   1.280   5.810 -1.0821 -2.8621  0.3739
18136TIP3   OH275822   4.704   4.832  13.534  0.1775 -0.3870  0.7520
18136TIP3    H175823   4.654   4.750  13.528 -1.0566  0.3893  0.2406
18136TIP3    H275824   4.672   4.885  13.461  2.5332 -0.2854 -0.2583
18137TIP3   OH275825   0.664   6.726   3.991 -0.1842  0.5975  1.3600
18137TIP3    H175826   0.698   6.666   3.925  1.0386 -0.3260  2.8109
18137TIP3    H275827   0.569   6.719   3.983 -0.0612 -1.6298  1.6025
18138TIP3   OH275828   4.879   3.213   3.083  0.2125  0.2713  0.4975
18138TIP3    H175829   4.916   3.206   2.995  0.3925 -1.3992  0.6749
18138TIP3    H275830   4.953   3.230   3.140  0.7812 -2.9012  0.8304
18139TIP3   OH275831   4.001   2.526  14.770  0.0947 -0.1137  1.0740
18139TIP3    H175832   3.999   2.618  14.798  0.2615 -0.2086  1.3991
18139TIP3    H275833   3.959   2.479  14.842 -1.2961 -0.1246  0.2717
18140TIP3   OH275834   2.204   2.611   2.291 -0.0572  0.1181  0.0926
18140TIP3    H175835   2.284   2.662   2.305  1.1274 -1.5949 -0.2669
18140TIP3    H275836   2.210   2.539   2.354 -0.2605 -1.2142 -1.3582
18141TIP3   OH275837   6.374   2.186  13.602  0.0835  0.2557  0.2027
18141TIP3    H175838   6.451   2.241  13.614  0.3042 -0.2664  1.2329
18141TIP3    H275839   6.382   2.118  13.670 -0.7501 -0.3948 -0.3357
18142TIP3   OH275840   0.980   6.509   3.531  0.0148  0.6493 -0.4673
18142TIP3    H175841   1.007   6.556   3.452  0.3837 -0.4628 -1.0079
18142TIP3    H275842   1.061   6.476   3.569 -0.4114 -1.3095 -1.2176
18143TIP3   OH275843   1.178   2.146  16.898  0.2865 -0.1210  0.6529
18143TIP3    H175844   1.117   2.219  16.892  0.3644 -0.0936  0.1315
18143TIP3    H275845   1.188   2.130  16.992  0.6731  0.8708  0.7938
18144TIP3   OH275846   4.691   3.944  13.890  0.2500  0.2113 -0.2468
18144TIP3    H175847   4.687   4.000  13.813  1.1247  1.9289  0.9403
18144TIP3    H275848   4.613   3.967  13.941 -0.2332 -0.7969 -0.5070
18145TIP3   OH275849   3.342   4.576   1.280  0.0381 -0.6187 -0.3192
18145TIP3    H175850   3.250   4.580   1.254  0.4418  1.0016 -1.5865
18145TIP3    H275851   3.385   4.527   1.210  0.4801  0.4580 -0.8211
18146TIP3   OH275852   3.853   4.768  12.363 -0.5710  0.3068 -0.9029
18146TIP3    H175853   3.948   4.761  12.362 -0.6049 -0.3842 -0.3048
18146TIP3    H275854   3.835   4.862  12.356  0.2668  0.8392  2.7282
18147TIP3   OH275855   3.234   5.640  17.058 -0.0593  0.0523  0.5303
18147TIP3    H175856   3.188   5.571  17.106 -0.1475 -0.9868 -0.9879
18147TIP3    H275857   3.319   5.647  17.101 -0.9703  0.7491  2.2515
18148TIP3   OH275858   0.743   3.374  12.414  0.1028  0.1441  0.2089
18148TIP3    H175859   0.784   3.460  12.420 -2.0292  1.1398  0.7274
18148TIP3    H275860   0.653   3.391  12.389 -0.0694 -2.0170 -0.8173
18149TIP3   OH275861   4.706   6.705  15.712 -0.2077 -0.8813  0.2176
18149TIP3    H175862   4.660   6.624  15.689 -0.3844 -0.7362  0.0514
18149TIP3    H275863   4.798   6.686  15.698 -0.4027 -0.3432 -2.0544
18150TIP3   OH275864   4.783   6.669   1.931 -0.7170 -0.3130  0.2428
18150TIP3    H175865   4.822   6.635   1.851  1.3635  1.4471  0.4627
18150TIP3    H275866   4.811   6.609   2.000  0.4438  0.1368  0.1722
18151TIP3   OH275867   2.142   2.061   0.770 -0.0566 -0.5433  0.2701
18151TIP3    H175868   2.120   2.006   0.695 -0.1716 -1.7380  1.1574
18151TIP3    H275869   2.223   2.106   0.744  0.8929 -2.2972  0.1036
18152TIP3   OH275870   5.765   6.388  15.928  0.3579 -0.2065 -0.1692
18152TIP3    H175871   5.761   6.410  16.021 -0.9018  0.3698 -0.3608
18152TIP3    H275872   5.857   6.363  15.914  1.0493  1.6547  0.7932
18153TIP3   OH275873   5.194   1.956  14.369 -0.1889 -0.3678 -0.1843
18153TIP3    H175874   5.252   1.902  14.316 -0.8758 -0.1175 -1.2046
18153TIP3    H275875   5.183   1.907  14.450 -0.6325 -1.6591 -1.0135
18154TIP3   OH275876   2.521   0.277  12.242  0.0331 -0.0017 -0.5080
18154TIP3    H175877   2.449   0.321  12.288  2.0234  0.2311  2.4742
18154TIP3    H275878   2.565   0.346  12.193 -0.9186  0.0946 -1.2399
18155TIP3   OH275879   1.645   1.234  15.971 -0.1093  0.1023 -0.4506
18155TIP3    H175880   1.651   1.143  15.940  1.1211 -0.6296  1.8110
18155TIP3    H275881   1.731   1.272  15.952 -0.5315  0.7244 -1.1422
18156TIP3   OH275882   5.771   6.460  14.081  0.2859  0.2966 -0.4176
18156TIP3    H175883   5.795   6.406  14.005 -0.9307  0.7369 -1.1148
18156TIP3    H275884   5.824   6.424  14.152  0.2721 -1.1463 -1.1107
18157TIP3   OH275885   2.039   2.672   4.424  0.0821  0.2160 -0.3621
18157TIP3    H175886   1.960   2.626   4.396 -0.8543  0.9968  0.9149
18157TIP3    H275887   2.087   2.608   4.476  0.4286 -0.3369 -1.3376
18158TIP3   OH275888   3.494   3.367  15.375 -0.8290  0.2073  0.0494
18158TIP3    H175889   3.419   3.419  15.348 -0.5076  0.0376 -1.1677
18158TIP3    H275890   3.513   3.310  15.301  0.3096  0.0336  0.4525
18159TIP3   OH275891   2.229   0.830   0.570 -0.3630 -0.2903  0.1669
18159TIP3    H175892   2.280   0.750   0.588 -1.3026 -0.7085  1.0642
18159TIP3    H275893   2.261   0.893   0.634  0.8535  0.2828 -0.9813
18160TIP3   OH275894   5.278   2.092  17.011 -0.2325 -0.5435 -0.2203
18160TIP3    H175895   5.276   2.173  17.062 -1.9777  0.2273 -1.4335
18160TIP3    H275896   5.341   2.110  16.941 -0.6432 -0.2082 -0.5072
18161TIP3   OH275897   6.623   3.105   2.649  0.2429  0.1168  0.3792
18161TIP3    H175898   6.613   3.112   2.554 -0.7308  0.0718  0.4773
18161TIP3    H275899   6.594   3.190   2.682 -0.2631 -0.1769  0.6977
18162TIP3   OH275900   5.597   5.840   3.386  0.1380  0.3863  0.3307
18162TIP3    H175901   5.666   5.892   3.428 -1.5966  2.3908  0.7249
18162TIP3    H275902   5.544   5.808   3.459  0.5090 -1.0418  0.0089
18163TIP3   OH275903   6.158   0.048   3.660  0.1776 -0.1688  0.4006
18163TIP3    H175904   6.120   0.044   3.747  0.0205  1.6380  0.4405
18163TIP3    H275905   6.213  -0.030   3.653 -1.5803 -1.4913  1.2582
18164TIP3   OH275906   4.547   5.532   3.702 -0.5010  0.2529 -0.4219
18164TIP3    H175907   4.475   5.567   3.648 -1.1551  1.0508  0.9462
18164TIP3    H275908   4.503   5.491   3.776  0.4798  2.2001  1.2956
18165TIP3   OH275909   0.105   0.241   4.887 -0.0069 -0.7767 -0.1525
18165TIP3    H175910   0.198   0.259   4.894 -0.0360 -1.2920  1.8034
18165TIP3    H275911   0.099   0.145   4.892 -0.6027 -0.7752 -0.7712
18166TIP3   OH275912   4.138   1.620  11.909  0.3986  0.1270 -0.2611
18166TIP3    H175913   4.132   1.711  11.880 -0.4263  0.3008  0.4475
18166TIP3    H275914   4.228   1.594  11.888  0.3598  0.8093 -1.3114
18167TIP3   OH275915   5.985   1.194   5.465 -0.4351  0.3542  0.3261
18167TIP3    H175916   5.949   1.249   5.396 -0.7106  0.4747  0.5643
18167TIP3    H275917   5.909   1.165   5.516 -0.4289 -1.3158 -0.5699
18168TIP3   OH275918   4.168   1.875   5.058  0.7904 -0.4816  0.3214
18168TIP3    H175919   4.230   1.805   5.076  1.5643  0.8518  3.1908
18168TIP3    H275920   4.090   1.851   5.107 -0.1542 -0.9796 -1.3927
18169TIP3   OH275921   0.401   1.330  14.943  0.2774 -0.0060  0.3702
18169TIP3    H175922   0.480   1.360  14.990  0.8932  1.2649 -1.4298
18169TIP3    H275923   0.352   1.411  14.925 -0.2327 -0.5427 -0.6709
18170TIP3   OH275924   1.433   5.019   0.914  0.4116  0.3028 -0.1979
18170TIP3    H175925   1.360   4.959   0.926  0.3326  0.6127  0.9026
18170TIP3    H275926   1.497   4.968   0.862 -0.7209  0.1727 -1.4847
18171TIP3   OH275927   6.395   6.523  11.033 -0.2042  1.0750  0.1456
18171TIP3    H175928   6.377   6.506  10.941 -0.3999  1.5427  0.0926
18171TIP3    H275929   6.489   6.538  11.037  0.5907 -3.3453  0.7258
18172TIP3   OH275930   0.230   6.423  12.541 -0.1638  0.0622  0.0160
18172TIP3    H175931   0.175   6.446  12.616  0.7090  1.1987  0.3141
18172TIP3    H275932   0.295   6.492  12.536  0.0850 -0.2541 -1.5103
18173TIP3   OH275933   2.044   2.666  16.352 -0.3514  0.1588  0.1066
18173TIP3    H175934   2.075   2.580  16.380 -2.3197 -0.9715 -1.0881
18173TIP3    H275935   1.948   2.661  16.359 -0.5627  1.8479 -1.1025
18174TIP3   OH275936   5.267   3.951  11.198  0.8043  0.1166  0.3152
18174TIP3    H175937   5.198   4.017  11.206  0.6653 -0.1041  1.0469
18174TIP3    H275938   5.258   3.916  11.109 -1.5892 -1.6035  1.1557
18175TIP3   OH275939   5.151   1.055  11.476  0.3387 -0.0541  1.0752
18175TIP3    H175940   5.210   1.129  11.460 -0.4576  0.6152  1.2001
18175TIP3    H275941   5.205   0.991  11.522  1.8372 -0.7831 -1.6295
18176TIP3   OH275942   3.194   1.368   5.680 -0.0490 -0.2269 -0.2275
18176TIP3    H175943   3.165   1.458   5.690 -0.8958 -0.3822 -1.1909
18176TIP3    H275944   3.128   1.327   5.625  1.0159 -1.0790 -0.9101
18177TIP3   OH275945   1.976   3.705   1.447 -0.2520 -0.3107 -0.1692
18177TIP3    H175946   2.041   3.722   1.378 -1.4062  1.9228 -0.7389
18177TIP3    H275947   1.939   3.620   1.424 -0.8320  0.5423 -2.5229
18178TIP3   OH275948   4.931   1.165   4.396 -0.0948 -0.6508  0.1113
18178TIP3    H175949   4.935   1.234   4.462 -1.1998  0.0930 -0.5920
18178TIP3    H275950   4.951   1.084   4.444  3.1149  0.3526  0.5897
18179TIP3   OH275951   1.986   3.226   0.168  0.0063  0.2030  0.5288
18179TIP3    H175952   2.061   3.181   0.130  0.1645  0.1593  0.8886
18179TIP3    H275953   1.979   3.189   0.256  1.5355  2.5041  1.6640
18180TIP3   OH275954   3.588   0.584  11.929 -0.2011 -0.2266 -0.0891
18180TIP3    H175955   3.674   0.556  11.898  0.2498  0.7470  0.2460
18180TIP3    H275956   3.530   0.569  11.854  0.2469 -0.9235 -0.3081
18181TIP3   OH275957   0.160   2.300   5.732 -0.2322  0.3669 -0.2138
18181TIP3    H175958   0.117   2.383   5.711  1.8175  1.1014 -1.6141
18181TIP3    H275959   0.161   2.253   5.649 -1.5978 -1.1847  0.6278
18182TIP3   OH275960   2.234   5.499  13.615  0.5443 -0.6165 -0.0827
18182TIP3    H175961   2.181   5.487  13.535  0.5568  0.3588 -0.2367
18182TIP3    H275962   2.220   5.418  13.664 -3.2486  0.6639  1.1433
18183TIP3   OH275963   4.832   2.264   4.656 -0.6561 -0.1084  0.1057
18183TIP3    H175964   4.753   2.317   4.671 -0.2964  1.3995 -2.8894
18183TIP3    H275965   4.801   2.190   4.604 -0.1458  0.4392 -0.9964
18184TIP3   OH275966   4.844   2.846  13.089 -0.5807 -0.5356  0.6919
18184TIP3    H175967   4.915   2.866  13.149 -0.1507  0.7402 -0.2162
18184TIP3    H275968   4.874   2.769  13.042  0.4305  0.2593 -0.0071
18185TIP3   OH275969   3.440   5.669   2.065  0.0575 -0.1362 -0.3981
18185TIP3    H175970   3.370   5.706   2.011  0.6616 -0.6892 -1.5917
18185TIP3    H275971   3.491   5.744   2.093 -3.7719  0.8336  4.6125
18186TIP3   OH275972   4.729   5.683  16.717 -0.3199  0.2956  0.1864
18186TIP3    H175973   4.801   5.694  16.780 -0.9019 -0.1398  0.9287
18186TIP3    H275974   4.650   5.682  16.771 -0.8177 -0.1114 -0.5537
18187TIP3   OH275975   4.298   4.671  11.877  0.7162  0.1496  0.1735
18187TIP3    H175976   4.379   4.635  11.840 -0.3030 -0.1216 -1.8503
18187TIP3    H275977   4.230   4.610  11.850 -0.6613  2.2134 -1.0779
18188TIP3   OH275978   3.508   3.904   1.887  0.5580  0.0219  0.6875
18188TIP3    H175979   3.558   3.979   1.919  0.5918 -0.3702  1.5423
18188TIP3    H275980   3.557   3.873   1.810  0.0378  1.4613 -0.2519
18189TIP3   OH275981   1.018   1.069   5.730 -0.0205 -0.5076 -0.2959
18189TIP3    H175982   1.112   1.051   5.730  0.6386  2.6081 -1.4932
18189TIP3    H275983   1.001   1.109   5.815  0.3430  1.5396 -1.1462
18190TIP3   OH275984   6.066   6.564   4.522 -0.1606 -0.4810  0.1273
18190TIP3    H175985   5.983   6.599   4.553  0.9204  1.5931  0.7369
18190TIP3    H275986   6.049   6.540   4.431 -1.1452  0.8951 -0.0663
18191TIP3   OH275987   5.091   4.116  10.927 -0.7023 -0.2402 -0.3352
18191TIP3    H175988   5.136   4.172  10.991 -0.8464  0.3469 -0.7409
18191TIP3    H275989   5.150   4.041  10.917 -0.3185  0.0167 -0.0696
18192TIP3   OH275990   5.101   0.026   4.281 -0.0673  0.0766  0.8322
18192TIP3    H175991   5.191  -0.005   4.271  0.0016 -1.1879  4.6542
18192TIP3    H275992   5.110   0.118   4.306  0.0411  0.7120 -1.4751
18193TIP3   OH275993   1.634   1.393   0.629 -0.0370 -0.2702  0.1363
18193TIP3    H175994   1.680   1.471   0.599 -0.3502 -0.0172  0.3162
18193TIP3    H275995   1.570   1.374   0.560 -0.7181  0.2787  0.6088
18194TIP3   OH275996   4.767   5.262   1.973 -1.0203  0.0331  0.2279
18194TIP3    H175997   4.786   5.170   1.951 -3.2699 -1.0328  2.4567
18194TIP3    H275998   4.709   5.292   1.903  0.3986  0.0683 -0.9726
18195TIP3   OH275999   5.991   2.027  12.149  0.0782  0.3282  0.0411
18195TIP3    H176000   6.041   1.949  12.176  1.9054  1.4517 -0.0009
18195TIP3    H276001   5.927   1.994  12.087  0.9814 -1.1284 -0.1411
18196TIP3   OH276002   3.579   3.352   6.153  0.6147 -0.2696 -0.6186
18196TIP3    H176003   3.658   3.400   6.125  1.3874 -0.0925  1.7623
18196TIP3    H276004   3.612   3.267   6.182 -0.0111 -0.0807  0.6891
18197TIP3   OH276005   4.713   5.772  10.917 -0.1021  0.1152 -0.0334
18197TIP3    H176006   4.683   5.827  10.844 -2.0472  3.3046  3.0520
18197TIP3    H276007   4.804   5.800  10.932 -0.0219  0.1568 -0.5804
18198TIP3   OH276008   5.620   2.055  14.748  0.0334 -0.2310 -0.6696
18198TIP3    H176009   5.525   2.063  14.752 -0.0926 -1.5399 -0.7325
18198TIP3    H276010   5.637   2.016  14.662  0.4708 -1.8842  0.1369
18199TIP3   OH276011   0.386   0.538  12.349  0.5687 -0.3512 -0.0561
18199TIP3    H176012   0.382   0.551  12.444  0.3207  1.4323 -0.2854
18199TIP3    H276013   0.404   0.445  12.338  0.0539 -0.6785  1.7323
18200TIP3   OH276014   5.825   5.708   4.685 -0.0160  0.3830  0.3294
18200TIP3    H176015   5.758   5.717   4.617  0.9772  1.2133 -0.5471
18200TIP3    H276016   5.892   5.773   4.662  0.9154 -0.1724  1.4153
18201TIP3   OH276017   4.427   0.882   2.399 -0.6478 -0.1863  0.5505
18201TIP3    H176018   4.460   0.840   2.320 -0.0548 -0.5232  0.9724
18201TIP3    H276019   4.359   0.823   2.431 -1.4109  0.3182 -0.1069
18202TIP3   OH276020   2.685   1.294  12.608  0.1854 -0.6466 -0.3807
18202TIP3    H176021   2.736   1.372  12.632 -2.8672  1.7015 -1.2069
18202TIP3    H276022   2.738   1.251  12.541  0.6949  2.3182 -2.0021
18203TIP3   OH276023   6.474   1.939  12.352 -0.3812  0.0737 -0.2944
18203TIP3    H176024   6.439   1.850  12.362  0.7116 -0.4124 -0.7546
18203TIP3    H276025   6.509   1.960  12.439  2.3147 -1.2358 -1.0152
18204TIP3   OH276026   2.298   4.108  12.548 -0.8781 -0.1335  0.3788
18204TIP3    H176027   2.261   4.135  12.631 -2.1005 -0.7391  0.0515
18204TIP3    H276028   2.244   4.151  12.482 -1.6567 -1.7891 -0.1155
18205TIP3   OH276029   4.072   5.566  13.326  0.4628  0.3102 -0.0973
18205TIP3    H176030   4.047   5.633  13.390  1.1701  1.0863 -0.6091
18205TIP3    H276031   4.044   5.602  13.242 -0.5296 -0.7363 -0.2243
18206TIP3   OH276032   6.527   4.171   1.199 -0.1106  0.0611 -0.3712
18206TIP3    H176033   6.464   4.106   1.168  1.2232 -0.9083 -1.1732
18206TIP3    H276034   6.533   4.235   1.128  0.0326 -0.0281 -0.4413
18207TIP3   OH276035   2.432   5.040  11.463 -0.3507  0.2698 -0.3260
18207TIP3    H176036   2.501   4.978  11.442 -0.3202  0.8434 -1.9654
18207TIP3    H276037   2.414   5.086  11.381 -2.4164  0.3867  0.1543
18208TIP3   OH276038   0.523   6.493   5.528 -0.3054  0.0391  0.4443
18208TIP3    H176039   0.572   6.423   5.570  1.0548  0.7346  0.0611
18208TIP3    H276040   0.495   6.456   5.444  0.2433 -0.1225  0.3282
18209TIP3   OH276041   3.540   4.163   1.300  0.5179  0.2010  0.0230
18209TIP3    H176042   3.614   4.216   1.330 -0.0866  1.2854 -0.3586
18209TIP3    H276043   3.581   4.091   1.252  1.3739  0.0360  0.9908
18210TIP3   OH276044   3.314   5.507   1.386  0.4354  0.4008  0.5677
18210TIP3    H176045   3.294   5.600   1.384 -1.5759 -0.0171 -1.0880
18210TIP3    H276046   3.367   5.492   1.307 -0.2482 -0.0582  0.1936
18211TIP3   OH276047   1.090   3.142  14.562  0.2056 -0.5085  0.3326
18211TIP3    H176048   1.149   3.069  14.541  0.4826 -0.7231  1.7866
18211TIP3    H276049   1.148   3.212  14.590 -0.2581 -1.0612  2.7641
18212TIP3   OH276050   2.783   4.214   0.758 -0.3326  0.1941  0.9378
18212TIP3    H176051   2.739   4.130   0.768 -1.2340  0.4530 -0.7263
18212TIP3    H276052   2.736   4.273   0.817 -1.4472  0.1910  0.0518
18213TIP3   OH276053   4.039   0.419  14.625  0.4066 -0.5445  0.3356
18213TIP3    H176054   4.101   0.491  14.633  2.0989 -1.6680 -1.9390
18213TIP3    H276055   4.072   0.351  14.684  0.0183 -0.2661  0.8751
18214TIP3   OH276056   0.515   3.757  11.019  0.2541 -0.3472 -0.0140
18214TIP3    H176057   0.531   3.790  10.930  1.6490  0.6094  0.5769
18214TIP3    H276058   0.439   3.806  11.050 -0.3396 -0.7992 -0.7278
18215TIP3   OH276059   0.331   1.492   0.194  0.0037 -0.2563  0.1240
18215TIP3    H176060   0.309   1.401   0.215 -0.1615 -0.0020  1.0740
18215TIP3    H276061   0.248   1.539   0.202  0.5223  0.3822  1.9360
18216TIP3   OH276062   1.086   5.713   5.586 -0.0514 -0.6662  0.3404
18216TIP3    H176063   1.032   5.735   5.510 -1.1280 -0.5946  1.1058
18216TIP3    H276064   1.175   5.705   5.552 -0.5513 -0.7709 -0.9436
18217TIP3   OH276065   1.710   4.878   1.087  0.3270 -0.5062 -0.2678
18217TIP3    H176066   1.651   4.910   1.155  2.0340  0.2455  0.8796
18217TIP3    H276067   1.795   4.870   1.130  1.5970  0.6278 -2.4536
18218TIP3   OH276068   1.295   0.522  11.753  0.4931 -0.2267  0.5169
18218TIP3    H176069   1.217   0.491  11.799  0.8085 -0.5303  0.8451
18218TIP3    H276070   1.359   0.536  11.822  0.0883  1.9737  0.4743
18219TIP3   OH276071   0.667   1.065  11.283 -0.3632  0.1796  0.0544
18219TIP3    H176072   0.635   1.106  11.363 -0.1381 -1.2444  0.8953
18219TIP3    H276073   0.590   1.021  11.246 -0.5163  1.0178 -0.6340
18220TIP3   OH276074   4.395   5.361   3.856  0.2036  0.1043  0.8490
18220TIP3    H176075   4.340   5.383   3.931 -0.4785 -1.3359  0.7811
18220TIP3    H276076   4.353   5.285   3.816 -0.6781  2.1288 -2.2767
18221TIP3   OH276077   5.200   2.022  11.477 -0.1553  0.5340 -0.0977
18221TIP3    H176078   5.221   2.109  11.442  1.0452  0.1902 -0.2553
18221TIP3    H276079   5.219   1.962  11.406 -0.2010  0.0628  0.2820
18222TIP3   OH276080   0.256   3.268  12.742  0.0161  0.4556 -0.7981
18222TIP3    H176081   0.294   3.276  12.654  0.6106  0.8192 -0.5154
18222TIP3    H276082   0.268   3.355  12.781  4.0291 -0.9443  1.3305
18223TIP3   OH276083   2.651   5.564  14.560  0.8528 -0.4563 -0.4298
18223TIP3    H176084   2.612   5.516  14.487  2.2745 -1.6854 -0.3979
18223TIP3    H276085   2.577   5.608  14.603  0.0080  0.3255 -2.6204
18224TIP3   OH276086   1.493   6.493   0.185 -0.1004 -0.3001  0.7963
18224TIP3    H176087   1.410   6.538   0.202 -1.7634 -2.7094 -0.6230
18224TIP3    H276088   1.530   6.477   0.272 -2.0434 -0.7955  1.5570
18225TIP3   OH276089   6.786   2.451  12.025 -0.0218 -0.1868  0.5436
18225TIP3    H176090   6.781   2.546  12.037  0.0911 -0.1745  0.4823
18225TIP3    H276091   6.713   2.431  11.967 -0.1154 -0.1527  0.6480
18226TIP3   OH276092   0.253   2.922  15.460  0.2303  0.4622  0.0612
18226TIP3    H176093   0.339   2.943  15.424  0.2795  0.8832  0.4231
18226TIP3    H276094   0.255   2.956  15.549 -0.4157  0.7298 -0.0239
18227TIP3   OH276095   5.269   2.565  11.947  0.1729 -0.4631 -0.4889
18227TIP3    H176096   5.179   2.557  11.915 -0.4386  0.8861  0.8637
18227TIP3    H276097   5.307   2.635  11.894  0.3007 -0.7204 -0.7426
18228TIP3   OH276098   6.229   5.952   1.681 -0.5749 -0.1795 -0.2206
18228TIP3    H176099   6.285   5.953   1.758 -0.6141 -1.2182 -0.1663
18228TIP3    H276100   6.271   6.012   1.619  0.4379 -0.7181 -0.0681
18229TIP3   OH276101   5.356   6.768  11.050  0.8766  0.2200 -0.0656
18229TIP3    H176102   5.295   6.764  11.123  1.1850  0.0491  0.1814
18229TIP3    H276103   5.435   6.723  11.081  1.2598  0.7437 -0.2633
18230TIP3   OH276104   3.712   6.641  14.515 -0.2888  0.5986 -0.0670
18230TIP3    H176105   3.736   6.651  14.607  2.8538 -1.2274 -0.5903
18230TIP3    H276106   3.774   6.697  14.468 -1.1263  0.6466 -1.1395
18231TIP3   OH276107   2.044   5.752  14.322 -0.3362 -0.3242  0.1641
18231TIP3    H176108   2.125   5.716  14.358 -1.4005 -1.3716  1.5471
18231TIP3    H276109   2.007   5.805  14.392  0.0788  1.7453 -1.1044
18232TIP3   OH276110   1.955   3.034  14.214  0.1312 -0.0248  0.0459
18232TIP3    H176111   1.958   3.000  14.303 -0.8106  0.5954  0.3244
18232TIP3    H276112   1.968   3.129  14.224  1.3495 -0.1150 -0.5940
18233TIP3   OH276113   0.152   3.178   3.603  0.0717 -0.1189  0.0098
18233TIP3    H176114   0.096   3.185   3.526  1.8722 -0.1370 -1.3097
18233TIP3    H276115   0.225   3.238   3.586  1.5722 -1.6976  0.7599
18234TIP3   OH276116   1.065   4.629   1.559 -0.1300 -0.2341  0.2890
18234TIP3    H176117   1.129   4.697   1.579 -3.4450  3.2560 -0.2654
18234TIP3    H276118   1.055   4.580   1.640  1.8492  0.3596  0.9084
18235TIP3   OH276119   5.480   6.686  14.718 -0.0916 -0.2210  0.6633
18235TIP3    H176120   5.572   6.682  14.690 -0.5362  1.8666 -1.2901
18235TIP3    H276121   5.431   6.660  14.640 -1.2147  0.0718  1.2729
18236TIP3   OH276122   2.700   0.862  16.710  0.2129  0.0167 -0.0151
18236TIP3    H176123   2.652   0.906  16.640  2.3032  1.4718 -0.5724
18236TIP3    H276124   2.743   0.788  16.666 -0.8177 -0.7950  0.3184
18237TIP3   OH276125   3.439   1.833  14.977 -0.2328 -0.3433 -0.0028
18237TIP3    H176126   3.372   1.768  14.956 -0.7871  0.0464  0.5730
18237TIP3    H276127   3.391   1.915  14.987  0.4926  0.2046 -0.9563
18238TIP3   OH276128   0.528   5.810   5.098  0.5068  0.2969  0.4457
18238TIP3    H176129   0.514   5.737   5.039  2.0742  1.2786 -1.2082
18238TIP3    H276130   0.441   5.832   5.131 -0.1735 -1.2725 -0.2734
18239TIP3   OH276131   3.082   2.811  15.820 -0.4557  0.6430  1.0644
18239TIP3    H176132   3.039   2.749  15.879 -0.4523 -0.4723 -0.0897
18239TIP3    H276133   3.010   2.849  15.768 -0.0052 -2.1861 -1.7821
18240TIP3   OH276134   2.792   0.530   3.787  0.3454 -0.0895  0.1012
18240TIP3    H176135   2.766   0.572   3.868 -0.7153 -0.6057  0.0313
18240TIP3    H276136   2.711   0.516   3.739  0.9527  0.1515 -1.0252
18241TIP3   OH276137   2.614   1.249   2.704  0.7181  0.4836 -0.3762
18241TIP3    H176138   2.685   1.215   2.650  0.5187 -1.1092  0.3372
18241TIP3    H276139   2.629   1.343   2.707  1.7086  0.3862 -1.7860
18242TIP3   OH276140   3.098   5.772   5.886  0.1816 -0.3204 -0.0438
18242TIP3    H176141   3.133   5.805   5.968  0.2317 -0.1027 -0.1504
18242TIP3    H276142   3.013   5.816   5.878  0.2781 -0.1641 -0.2203
18243TIP3   OH276143   1.103   4.066   0.093  0.5380  0.1101  0.9951
18243TIP3    H176144   1.108   4.065  -0.003 -0.1779  0.6882  0.9491
18243TIP3    H276145   1.099   3.973   0.117  1.0519 -0.0512  0.4902
18244TIP3   OH276146   5.935   2.514   4.101  0.9269  0.8444 -0.1811
18244TIP3    H176147   5.937   2.418   4.095 -4.3345  0.5188  0.4987
18244TIP3    H276148   5.949   2.532   4.194 -0.8771  0.4913  0.1822
18245TIP3   OH276149   4.133   6.458  12.327 -0.4265 -0.2126 -0.3751
18245TIP3    H176150   4.106   6.370  12.353  0.6347 -0.1281  1.0982
18245TIP3    H276151   4.052   6.501  12.300 -1.1505 -1.2168  0.1611
18246TIP3   OH276152   0.263   1.609   5.290 -0.6326 -0.9346 -0.0711
18246TIP3    H176153   0.345   1.619   5.339 -1.1875 -1.4322  0.9703
18246TIP3    H276154   0.267   1.520   5.255 -0.5744 -0.8401 -0.3035
18247TIP3   OH276155   1.740   5.035  16.362  0.4192 -0.8638  0.4137
18247TIP3    H176156   1.696   5.038  16.447 -1.3131  0.1361 -0.4927
18247TIP3    H276157   1.772   4.945  16.355  1.5773 -0.6707  2.5815
18248TIP3   OH276158   5.225   6.702   1.311  1.3284  0.1740  0.4647
18248TIP3    H176159   5.180   6.723   1.393 -0.3733 -0.3933 -0.2951
18248TIP3    H276160   5.265   6.616   1.328 -0.0951 -0.5428  0.3088
18249TIP3   OH276161   3.019   4.455  12.648 -0.3142  0.0259 -0.1075
18249TIP3    H176162   2.958   4.420  12.714  0.8697 -0.7605  0.5778
18249TIP3    H276163   2.989   4.417  12.566 -0.0176 -1.3458  0.4062
18250TIP3   OH276164   3.408   5.357  15.080  0.1088  0.1479 -0.1064
18250TIP3    H176165   3.328   5.305  15.078 -0.3425  0.8593 -0.9662
18250TIP3    H276166   3.385   5.439  15.036  0.7340  1.1857  1.4237
18251TIP3   OH276167   1.220   6.648   4.448 -0.3993 -0.0536 -0.2630
18251TIP3    H176168   1.228   6.706   4.372 -1.6603 -0.8345 -1.0183
18251TIP3    H276169   1.136   6.672   4.487 -0.4341 -0.6588  0.0333
18252TIP3   OH276170   2.468   1.710   4.642 -0.1901  0.0843  0.3944
18252TIP3    H176171   2.460   1.750   4.729  0.3123 -0.2621  0.6034
18252TIP3    H276172   2.531   1.639   4.654 -1.3089 -0.9727  0.0978
18253TIP3   OH276173   1.762   6.601   2.192  0.5698 -0.5017  0.5036
18253TIP3    H176174   1.704   6.675   2.173  2.5554  1.1297  0.6719
18253TIP3    H276175   1.761   6.548   2.113 -2.0439 -1.1333  0.9106
18254TIP3   OH276176   3.258   1.411   4.586 -0.2850  0.4401 -0.2470
18254TIP3    H176177   3.308   1.485   4.551  1.4185 -0.3476  0.4476
18254TIP3    H276178   3.212   1.375   4.510  0.2055  1.1847 -0.9087
18255TIP3   OH276179   3.716   6.359  16.414  0.4334 -0.0240 -0.0057
18255TIP3    H176180   3.799   6.386  16.452  0.2458  0.8042 -0.1704
18255TIP3    H276181   3.658   6.435  16.427  0.1524 -0.0090 -1.2687
18256TIP3   OH276182   3.643   6.778   5.714 -0.1057  0.2830  0.6479
18256TIP3    H176183   3.581   6.851   5.708  1.9215  1.9564 -0.8082
18256TIP3    H276184   3.683   6.788   5.800  0.7410  1.4237  0.1446
18257TIP3   OH276185   5.823   1.345  15.911  0.5798  0.4645 -0.0679
18257TIP3    H176186   5.769   1.331  15.833  1.3829 -0.0780 -0.5391
18257TIP3    H276187   5.780   1.416  15.958 -1.1597 -0.6870  0.1228
18258TIP3   OH276188   1.077   2.661   6.250  0.0502  0.3234  0.5974
18258TIP3    H176189   1.044   2.720   6.317 -2.2591  0.0850 -0.2821
18258TIP3    H276190   1.012   2.591   6.244 -0.6429  1.1301 -2.8948
18259TIP3   OH276191   4.236   4.314   2.818  0.5859 -0.6880 -0.4261
18259TIP3    H176192   4.182   4.238   2.838 -0.6698  0.1456 -0.6209
18259TIP3    H276193   4.248   4.359   2.902 -0.3537 -0.0168 -0.6418
18260TIP3   OH276194   6.444   6.422  10.336  0.7200  0.2111  0.9875
18260TIP3    H176195   6.498   6.343  10.339  1.2523  0.6037  2.1601
18260TIP3    H276196   6.494   6.484  10.283 -0.3946 -0.7220 -1.2230
18261TIP3   OH276197   3.604   2.638   2.098  0.2146  0.4870  0.1510
18261TIP3    H176198   3.602   2.542   2.105  0.5907  0.5362  0.9602
18261TIP3    H276199   3.552   2.669   2.173  0.1571  0.9171 -0.0662
18262TIP3   OH276200   3.656   4.998   3.840  0.1035  0.1053 -0.3269
18262TIP3    H176201   3.591   5.061   3.810 -0.0955  0.1916  0.2753
18262TIP3    H276202   3.740   5.035   3.813  0.1748  1.8745  2.1900
18263TIP3   OH276203   3.174   4.357   4.391 -0.5750  0.0753  0.1458
18263TIP3    H176204   3.083   4.329   4.386  0.0534 -1.6395 -2.1675
18263TIP3    H276205   3.224   4.275   4.393  0.9169  0.9969  1.6778
18264TIP3   OH276206   4.941   5.726   3.497  0.1914  0.4555  0.0550
18264TIP3    H176207   4.866   5.670   3.475  0.5311 -0.2030  0.5683
18264TIP3    H276208   5.006   5.706   3.430  0.3174  0.2221  0.2448
18265TIP3   OH276209   2.023   0.271   0.898 -0.0691 -0.2813  0.1008
18265TIP3    H176210   1.980   0.187   0.885  2.1312 -1.3700 -0.2871
18265TIP3    H276211   2.063   0.292   0.814 -0.6775  1.2303  0.1539
18266TIP3   OH276212   0.443   5.920  11.746  0.1095 -0.2873  0.1089
18266TIP3    H176213   0.418   5.849  11.805  2.7292 -1.4056 -0.0603
18266TIP3    H276214   0.385   5.992  11.769 -0.3306 -1.4027  2.6134
18267TIP3   OH276215   2.718   3.726   4.386  0.3451 -0.2170  0.1849
18267TIP3    H176216   2.651   3.741   4.453 -0.1413 -0.8918 -0.1369
18267TIP3    H276217   2.669   3.694   4.310  0.8627  0.8021 -0.5936
18268TIP3   OH276218   6.378   3.212   2.909  0.0266 -0.5099 -0.5025
18268TIP3    H176219   6.300   3.162   2.886  0.9600 -2.8982  1.2482
18268TIP3    H276220   6.350   3.267   2.983 -0.0679 -1.2549  0.0264
18269TIP3   OH276221   0.600   0.628  12.971  0.6201  0.8732 -0.8079
18269TIP3    H176222   0.547   0.666  12.901  0.4263  0.6041 -0.8096
18269TIP3    H276223   0.565   0.667  13.052 -1.6971 -1.6565 -0.5050
18270TIP3   OH276224   0.963   5.917   2.489 -0.6704  0.0788  0.4400
18270TIP3    H176225   1.024   5.866   2.435  0.9096  2.4263 -0.0788
18270TIP3    H276226   0.912   5.968   2.426  0.2423  1.8103  1.0784
18271TIP3   OH276227   0.359   1.457   4.298 -0.2707  0.3900 -0.5485
18271TIP3    H176228   0.323   1.456   4.387  1.9156  0.1252  0.3688
18271TIP3    H276229   0.297   1.406   4.246 -1.2589  0.0455  0.9431
18272TIP3   OH276230   3.873   0.902  16.568 -0.3722  0.1987 -0.4066
18272TIP3    H176231   3.958   0.885  16.607 -0.3449  0.6371 -0.2655
18272TIP3    H276232   3.883   0.986  16.523 -1.1687  1.0511  0.9596
18273TIP3   OH276233   4.737   4.509  12.043  0.5916 -0.5994 -0.1663
18273TIP3    H176234   4.664   4.503  11.981  0.6433 -0.1885 -0.2671
18273TIP3    H276235   4.721   4.439  12.106  0.0901 -0.4868 -0.1678
18274TIP3   OH276236   1.392   5.227   1.102  0.2791  0.4327 -0.5893
18274TIP3    H176237   1.369   5.310   1.058 -0.6797 -0.0302 -0.9784
18274TIP3    H276238   1.411   5.167   1.030 -0.4187 -0.0819 -0.3481
18275TIP3   OH276239   0.849   5.434  14.191 -0.0016 -0.2670 -0.1105
18275TIP3    H176240   0.926   5.481  14.159 -0.4107 -0.3583 -1.2806
18275TIP3    H276241   0.883   5.369  14.252  1.0300 -1.4129 -1.8679
18276TIP3   OH276242   0.554   1.223  16.774 -0.3209  0.3540  0.4629
18276TIP3    H176243   0.554   1.272  16.856 -0.8647  0.8257  0.1813
18276TIP3    H276244   0.462   1.204  16.758 -0.0892 -1.0795  0.7560
18277TIP3   OH276245   1.536   2.710   1.748 -0.0407 -0.2814  1.1222
18277TIP3    H176246   1.601   2.738   1.813 -0.1277 -0.1331  1.1453
18277TIP3    H276247   1.565   2.623   1.722  1.3559  0.5779 -0.3632
18278TIP3   OH276248   4.993   4.712  13.647 -0.0940  0.6704  0.0747
18278TIP3    H176249   4.960   4.638  13.699  0.6393  1.4842  1.7463
18278TIP3    H276250   4.930   4.723  13.577 -0.0164 -1.7973 -0.4231
18279TIP3   OH276251   1.772   4.901  15.008 -0.0124 -0.5120  0.1092
18279TIP3    H176252   1.860   4.938  15.013 -1.0588  2.0904 -0.0710
18279TIP3    H276253   1.760   4.856  15.092  1.1179 -0.0391  0.5298
18280TIP3   OH276254   5.947   2.642   3.398 -0.2905 -0.0942  0.7968
18280TIP3    H176255   5.912   2.657   3.486  0.4904 -1.8447  1.4407
18280TIP3    H276256   6.041   2.626   3.412  0.2469  1.7277 -0.5916
18281TIP3   OH276257   5.421   6.008   0.493 -0.7754 -0.1397 -0.1928
18281TIP3    H176258   5.429   6.011   0.397 -2.9636 -1.0843 -0.4406
18281TIP3    H276259   5.482   6.074   0.524  0.2041 -0.0345 -2.2328
18282TIP3   OH276260   6.544   4.520   2.093 -0.0833 -0.0253 -0.1093
18282TIP3    H176261   6.595   4.535   2.014  1.9275 -0.4692  1.0811
18282TIP3    H276262   6.555   4.426   2.111 -0.6878  0.0320  0.5988
18283TIP3   OH276263   2.390   4.377   2.227 -0.1994  0.1923  0.0945
18283TIP3    H176264   2.429   4.301   2.184  0.7552 -0.1908  1.6037
18283TIP3    H276265   2.342   4.339   2.302  0.1221  1.0511  0.7391
18284TIP3   OH276266   5.932   2.995  16.560 -0.7803  0.0945  0.2600
18284TIP3    H176267   6.020   3.034  16.562 -0.7762  0.0836  0.2840
18284TIP3    H276268   5.946   2.903  16.586 -0.8272  0.1455  0.4623
18285TIP3   OH276269   0.498   2.061  15.647  0.0542  0.6492 -0.3805
18285TIP3    H176270   0.460   2.147  15.634  0.6901  1.2193  1.4251
18285TIP3    H276271   0.429   2.009  15.687  0.0279  0.6395 -0.4393
18286TIP3   OH276272   4.286   0.974   5.227  0.3683  0.0558 -0.0089
18286TIP3    H176273   4.267   1.067   5.240  1.7958  0.2997  0.4491
18286TIP3    H276274   4.368   0.973   5.178 -0.1623 -0.9638 -0.8952
18287TIP3   OH276275   0.633   0.820   0.653  0.0304 -0.1889  0.4902
18287TIP3    H176276   0.674   0.740   0.621  1.8144  1.0790 -0.4898
18287TIP3    H276277   0.576   0.848   0.581 -2.2627 -1.7022  1.6712
18288TIP3   OH276278   5.031   1.032   0.427  1.0317  0.1706  0.1213
18288TIP3    H176279   5.108   1.050   0.373  0.8549  0.3452 -0.0737
18288TIP3    H276280   5.066   0.986   0.504  1.3762  0.5676  0.2060
18289TIP3   OH276281   4.983   3.253   6.543 -0.6602 -0.2698 -0.4148
18289TIP3    H176282   4.966   3.188   6.610 -2.0043  0.6384  0.1349
18289TIP3    H276283   5.069   3.229   6.507  0.3719 -0.3916  2.0559
18290TIP3   OH276284   4.887   3.273  12.269 -0.1534  0.2094 -0.4755
18290TIP3    H176285   4.949   3.342  12.296  1.9207 -1.5656 -0.5527
18290TIP3    H276286   4.898   3.268  12.174  1.1927 -1.5593 -0.2511
18291TIP3   OH276287   1.509   1.417  14.210 -0.0799 -0.5259  0.0945
18291TIP3    H176288   1.512   1.503  14.252 -0.5347 -0.5615  0.2002
18291TIP3    H276289   1.572   1.423  14.138 -0.7724  0.1912 -0.4635
18292TIP3   OH276290   2.953   4.217  14.898 -0.0197 -0.6175  0.1062
18292TIP3    H176291   2.987   4.132  14.923  0.5185 -1.4674 -3.2921
18292TIP3    H276292   2.881   4.198  14.837  1.1235  1.3254 -1.9384
18293TIP3   OH276293   0.418   3.872   6.343  0.0583 -0.0845 -0.4367
18293TIP3    H176294   0.381   3.822   6.271  0.8490  2.6826 -2.8896
18293TIP3    H276295   0.347   3.929   6.372  0.4311  0.5162 -0.6855
18294TIP3   OH276296   4.496   6.048   1.331  0.2550  0.4256  0.0694
18294TIP3    H176297   4.517   6.024   1.241  0.2595 -0.2477  0.2496
18294TIP3    H276298   4.556   5.997   1.384  0.2353  0.8056  0.4587
18295TIP3   OH276299   0.830   0.077   1.328 -0.4267  0.5786  0.3158
18295TIP3    H176300   0.817   0.030   1.246  0.2944 -1.2843  1.2463
18295TIP3    H276301   0.832   0.169   1.303 -0.5623  0.0496 -1.7028
18296TIP3   OH276302   4.731   4.583   5.222  0.4122  0.3532  0.3241
18296TIP3    H176303   4.683   4.652   5.268 -0.7343  0.3356 -0.8052
18296TIP3    H276304   4.702   4.502   5.264 -0.9189  0.3086 -0.6465
18297TIP3   OH276305   2.241   3.450   3.524 -0.2167 -0.0765  0.3069
18297TIP3    H176306   2.185   3.450   3.447  0.9709 -3.6293 -0.6438
18297TIP3    H276307   2.181   3.435   3.597 -1.2306  2.4064  0.0194
18298TIP3   OH276308   2.962   5.413   1.093 -0.4151  0.4140 -0.3195
18298TIP3    H176309   3.018   5.372   1.028  1.8227  3.8215 -0.6701
18298TIP3    H276310   3.018   5.421   1.171 -1.4043  1.0215  0.3414
18299TIP3   OH276311   5.214   2.334   5.586 -0.0828  0.3365 -0.3823
18299TIP3    H176312   5.276   2.395   5.548 -0.3824  0.5815 -0.4806
18299TIP3    H276313   5.132   2.350   5.539 -0.7806  1.4582  1.1760
18300TIP3   OH276314   0.546   3.399   6.681 -0.1139  0.0290  0.6160
18300TIP3    H176315   0.452   3.387   6.697 -0.2895 -0.0958 -0.4790
18300TIP3    H276316   0.584   3.313   6.698 -0.4976 -0.4799 -0.9558
18301TIP3   OH276317   0.369   6.613  14.346 -0.3438  0.5594 -0.5088
18301TIP3    H176318   0.425   6.536  14.333  0.3067  0.7717  0.9964
18301TIP3    H276319   0.418   6.685  14.307 -0.7260  0.3140 -1.4646
18302TIP3   OH276320   6.352   4.208  12.211 -1.1397 -0.0634 -0.1743
18302TIP3    H176321   6.446   4.213  12.231 -0.9411 -0.5510 -0.9944
18302TIP3    H276322   6.311   4.195  12.297 -0.4547  0.0487  0.1785
18303TIP3   OH276323   3.278   2.375   1.442 -0.0625 -0.0618  0.4667
18303TIP3    H176324   3.342   2.322   1.489 -0.6624 -0.6518  0.6376
18303TIP3    H276325   3.257   2.447   1.502  0.5902  0.2435  0.3250
18304TIP3   OH276326   6.339   5.739   3.942 -0.1065 -0.8003 -0.5802
18304TIP3    H176327   6.398   5.701   4.006 -1.2001 -1.7437 -0.1151
18304TIP3    H276328   6.395   5.762   3.868  0.9248 -1.1210  0.0930
18305TIP3   OH276329   5.712   4.355  11.894  0.3202 -0.8003 -0.1315
18305TIP3    H176330   5.632   4.406  11.886  0.3578 -0.5421  0.9645
18305TIP3    H276331   5.778   4.403  11.844  0.6714  0.9185  1.9144
18306TIP3   OH276332   3.596   1.725  14.236  0.4664  0.1401  0.2483
18306TIP3    H176333   3.613   1.637  14.203 -0.0923 -0.2731  1.0293
18306TIP3    H276334   3.633   1.725  14.324 -0.7217  0.2491  0.7601
18307TIP3   OH276335   4.702   2.163   1.437 -0.2537 -0.1751 -0.7686
18307TIP3    H176336   4.774   2.221   1.411 -0.3614 -0.9074 -2.7783
18307TIP3    H276337   4.700   2.170   1.533  1.9518  0.4849 -0.7255
18308TIP3   OH276338   3.498   1.739  11.081  0.3655 -0.0926  0.2046
18308TIP3    H176339   3.451   1.821  11.076 -0.6966 -0.6515  0.8850
18308TIP3    H276340   3.500   1.706  10.991 -2.6243 -1.2161  0.5091
18309TIP3   OH276341   0.210   0.510  11.747  0.4506  0.7529 -0.2406
18309TIP3    H176342   0.125   0.500  11.704 -0.1781  2.1531  0.6319
18309TIP3    H276343   0.261   0.565  11.687 -0.0528  1.8047  0.2858
18310TIP3   OH276344   3.603   5.900   0.229 -0.1040  0.2546  0.3737
18310TIP3    H176345   3.524   5.934   0.187  0.4261  2.8799  1.4611
18310TIP3    H276346   3.577   5.882   0.319 -0.1800 -1.6153  0.0129
18311TIP3   OH276347   5.687   1.459   4.930 -0.0249 -0.1355 -0.3529
18311TIP3    H176348   5.691   1.378   4.981  0.1535  0.5147  0.6855
18311TIP3    H276349   5.779   1.483   4.916 -0.0887  0.7664  0.7670
18312TIP3   OH276350   2.917   4.616  12.405 -0.2387  0.0736 -0.3603
18312TIP3    H176351   2.825   4.629  12.427 -0.5139 -0.2376 -1.3368
18312TIP3    H276352   2.931   4.522  12.415 -0.1467  0.0531 -0.6914
18313TIP3   OH276353   2.273   3.166  13.461  0.4510  0.7092  0.2847
18313TIP3    H176354   2.202   3.222  13.428 -1.1422 -1.8004 -0.6585
18313TIP3    H276355   2.335   3.228  13.501 -2.4087  2.9635  1.4618
18314TIP3   OH276356   6.774   5.815   3.190  0.5631 -0.5381 -0.6115
18314TIP3    H176357   6.802   5.877   3.122 -0.6207 -0.2160 -0.8182
18314TIP3    H276358   6.696   5.774   3.154 -0.8645  0.6172  1.1134
18315TIP3   OH276359   1.520   6.274  16.060  1.1055 -0.5375  0.7256
18315TIP3    H176360   1.439   6.299  16.104  1.4054  0.1167  0.9070
18315TIP3    H276361   1.567   6.221  16.124  1.1170 -0.3629  0.8645
18316TIP3   OH276362   1.035   0.412  15.704 -0.0812 -0.5933 -0.3173
18316TIP3    H176363   1.095   0.437  15.774  0.0484 -2.1762  0.1506
18316TIP3    H276364   1.072   0.452  15.625  0.0380  0.7798  0.4313
18317TIP3   OH276365   0.029   1.122   5.025  0.0281  0.0910 -0.0937
18317TIP3    H176366  -0.015   1.164   5.099  2.5799 -2.3111  2.9325
18317TIP3    H276367  -0.017   1.039   5.013  2.6402 -1.8129  2.2026
18318TIP3   OH276368   3.783   1.125  16.843 -0.2367  1.0155 -0.2533
18318TIP3    H176369   3.764   1.101  16.934 -1.9894  2.4856 -0.1986
18318TIP3    H276370   3.727   1.067  16.791  1.9657 -0.9794 -0.5296
18319TIP3   OH276371   5.889   1.482   5.995  0.3478 -0.2663  0.0672
18319TIP3    H176372   5.921   1.489   6.085  1.8901  0.2019 -0.4946
18319TIP3    H276373   5.837   1.402   5.994 -0.4212  0.1971  1.5916
18320TIP3   OH276374   0.611   6.729   4.468 -0.0003  0.4118 -0.5726
18320TIP3    H176375   0.665   6.730   4.547  0.0759  0.4823 -0.6256
18320TIP3    H276376   0.671   6.754   4.397 -0.2369  1.0574 -0.5472
18321TIP3   OH276377   2.260   6.271  16.241 -0.0004 -0.2347  0.3996
18321TIP3    H176378   2.178   6.320  16.245  0.0248 -0.2138  0.6715
18321TIP3    H276379   2.323   6.326  16.288  0.0482 -0.4873  0.6329
18322TIP3   OH276380   2.170   6.362  11.857  1.0695 -0.4110 -0.2208
18322TIP3    H176381   2.155   6.455  11.841  2.3212 -0.1494  0.0938
18322TIP3    H276382   2.089   6.320  11.829  0.5218  0.7627 -0.4413
18323TIP3   OH276383   2.891   4.680  10.593 -0.4262 -0.0819 -0.3750
18323TIP3    H176384   2.903   4.745  10.663  1.2464  0.7700 -1.4103
18323TIP3    H276385   2.796   4.670  10.586 -0.6664  1.0965  0.8642
18324TIP3   OH276386   4.894   0.764  12.946 -0.0257  0.5022 -0.3245
18324TIP3    H176387   4.901   0.805  12.860  2.2636  1.5884  0.3409
18324TIP3    H276388   4.812   0.797  12.981  0.5755  2.5999 -0.8176
18325TIP3   OH276389   4.829   5.164  14.708  0.1106 -0.1463 -0.1317
18325TIP3    H176390   4.850   5.152  14.801 -0.7422 -1.7572 -0.1338
18325TIP3    H276391   4.847   5.078  14.668 -2.7868 -0.4852 -0.8219
18326TIP3   OH276392   3.936   6.780   5.021  0.2756 -0.2453 -0.1368
18326TIP3    H176393   3.982   6.719   5.078  0.8881 -1.1543 -1.5643
18326TIP3    H276394   3.843   6.761   5.034  0.3478  0.4972  1.5567
18327TIP3   OH276395   3.251   1.489  11.140  0.0866  0.1528 -0.4128
18327TIP3    H176396   3.307   1.411  11.139 -0.1543 -0.0017 -1.8458
18327TIP3    H276397   3.280   1.541  11.065 -1.0915  0.4969 -0.6424
18328TIP3   OH276398   4.297   1.612   2.222 -0.0917 -0.5497 -0.2612
18328TIP3    H176399   4.270   1.625   2.131  1.3727  1.8828 -0.3888
18328TIP3    H276400   4.218   1.628   2.273 -0.4770 -0.0926 -0.9913
18329TIP3   OH276401   6.390   5.520  13.147  0.2460  0.0173  0.2588
18329TIP3    H176402   6.414   5.544  13.057  0.4197  0.8111  0.5054
18329TIP3    H276403   6.456   5.565  13.201  0.7929 -1.3418  0.7286
18330TIP3   OH276404   5.090   5.452   1.095 -0.0244  0.0132 -0.2085
18330TIP3    H176405   5.002   5.416   1.086 -0.3296  0.5297  0.7234
18330TIP3    H276406   5.139   5.383   1.141 -0.5071  0.6106  1.2213
18331TIP3   OH276407   4.909   0.664  15.534 -0.2757 -0.9446  0.1852
18331TIP3    H176408   4.834   0.606  15.522 -1.1614  0.1453  0.3303
18331TIP3    H276409   4.985   0.611  15.512 -1.0778 -2.1303  0.2455
18332TIP3   OH276410   2.872   3.544   6.723  0.1983  0.3796  0.9808
18332TIP3    H176411   2.911   3.470   6.676  0.7025 -0.2398  2.3438
18332TIP3    H276412   2.782   3.548   6.691  0.4835 -0.1297  0.0887
18333TIP3   OH276413   5.465   3.587  13.606  0.3308  0.1862  0.0852
18333TIP3    H176414   5.482   3.493  13.611 -0.3626  0.1066  0.8855
18333TIP3    H276415   5.407   3.606  13.679 -0.3960  1.0551 -0.7005
18334TIP3   OH276416   3.477   1.385  15.182 -0.4974 -0.5121  0.3844
18334TIP3    H176417   3.448   1.432  15.103 -0.4956 -0.9761  0.1060
18334TIP3    H276418   3.511   1.454  15.239 -0.0750 -0.2244 -0.2107
18335TIP3   OH276419   2.237   1.367   2.763 -0.1855 -0.3885 -0.5910
18335TIP3    H176420   2.269   1.448   2.723  1.3672 -0.1521  1.0630
18335TIP3    H276421   2.207   1.314   2.689 -0.7013  1.4473 -1.7429
18336TIP3   OH276422   2.607   3.045   4.220  0.1722  0.2259  0.2195
18336TIP3    H176423   2.698   3.029   4.194 -0.3749 -0.6873 -1.1447
18336TIP3    H276424   2.605   3.020   4.312  0.7015 -2.2493 -0.4086
18337TIP3   OH276425   3.311   6.494  12.797 -0.3005 -0.4941 -0.2911
18337TIP3    H176426   3.339   6.577  12.835 -0.0851  0.3980 -2.3377
18337TIP3    H276427   3.333   6.429  12.864  0.1696  0.9962  1.0472
18338TIP3   OH276428   3.726   6.558   1.235 -0.0671 -0.0011  0.3844
18338TIP3    H176429   3.739   6.465   1.255  1.7600  0.2999  0.7433
18338TIP3    H276430   3.789   6.576   1.165  2.7809  1.9650  3.3019
18339TIP3   OH276431   0.846   4.479  14.829 -0.0060  0.3053  0.9809
18339TIP3    H176432   0.861   4.573  14.835 -0.4900  0.4641 -0.2022
18339TIP3    H276433   0.751   4.469  14.836  0.0318 -0.0868  0.9645
18340TIP3   OH276434   6.023   0.001  14.523 -0.1268 -0.0973  0.4525
18340TIP3    H176435   5.975  -0.082  14.529 -0.3313 -0.0510 -0.5281
18340TIP3    H276436   6.066  -0.002  14.438  0.2908  0.5841  0.6346
18341TIP3   OH276437   5.737   2.711   2.998  0.0381 -0.1604  0.0179
18341TIP3    H176438   5.803   2.753   3.054  0.4029 -0.6530 -0.0387
18341TIP3    H276439   5.759   2.618   3.001 -0.0111 -0.1987 -0.8689
18342TIP3   OH276440   5.613   0.169  16.675  0.0352 -0.3114  0.4255
18342TIP3    H176441   5.639   0.215  16.755  0.0934 -0.7771  0.6715
18342TIP3    H276442   5.517   0.174  16.675  0.0398 -0.2141  0.4690
18343TIP3   OH276443   4.462   3.632   6.251 -0.2148 -0.3781  0.3030
18343TIP3    H176444   4.414   3.564   6.298  0.7460 -0.9891  0.4202
18343TIP3    H276445   4.528   3.585   6.201 -0.5586  0.3510 -0.8634
18344TIP3   OH276446   4.208   3.575  15.589  0.0251  0.8847  0.4118
18344TIP3    H176447   4.137   3.516  15.614 -0.6266  1.7388  0.6034
18344TIP3    H276448   4.253   3.593  15.671  1.1790 -0.5547  0.1195
18345TIP3   OH276449   4.665   2.905  11.993  0.1176  0.1731  0.2853
18345TIP3    H176450   4.664   2.809  11.989  0.1245  0.1852 -0.0723
18345TIP3    H276451   4.586   2.932  11.945 -0.4037  0.3269  1.2173
18346TIP3   OH276452   6.495   2.728   5.989  0.3928 -0.3299  0.0287
18346TIP3    H176453   6.567   2.710   5.929 -0.1806 -1.0236 -0.4697
18346TIP3    H276454   6.487   2.648   6.041  1.6094  0.6717  1.8146
18347TIP3   OH276455   3.281   4.735  16.013  0.0093 -0.1737  0.1492
18347TIP3    H176456   3.261   4.695  16.098 -0.1471 -0.2865  0.0604
18347TIP3    H276457   3.376   4.728  16.004  0.3375  2.0515  1.4349
18348TIP3   OH276458   2.220   4.372  13.204 -0.1367 -0.5671  0.3065
18348TIP3    H176459   2.223   4.429  13.127  0.2560 -1.3755 -0.2885
18348TIP3    H276460   2.133   4.386  13.242 -0.2045  0.0879 -0.0853
18349TIP3   OH276461   3.312   5.171  15.459 -0.0189  0.1917 -0.3399
18349TIP3    H176462   3.289   5.136  15.545  0.3022  0.2742 -0.2210
18349TIP3    H276463   3.295   5.099  15.398  0.7804 -0.2188 -0.0774
18350TIP3   OH276464   4.638   2.087  12.442  0.1111 -0.2064 -0.0514
18350TIP3    H176465   4.666   2.171  12.478  0.1954 -0.6644  0.9695
18350TIP3    H276466   4.711   2.027  12.460  0.7099 -0.1433 -2.1630
18351TIP3   OH276467   4.591   2.833  13.702 -0.6707  0.1711  0.0542
18351TIP3    H176468   4.597   2.738  13.715 -2.4524 -0.5055 -3.5191
18351TIP3    H276469   4.521   2.861  13.761 -0.4947 -0.8175  0.7461
18352TIP3   OH276470   1.107   5.739   5.846  0.1076 -0.5685 -0.4290
18352TIP3    H176471   1.085   5.733   5.753  0.4060  0.0715 -0.5451
18352TIP3    H276472   1.023   5.729   5.891 -0.5586  2.3695 -0.8902
18353TIP3   OH276473   0.742   3.801   0.974  0.1715  0.3027 -0.0991
18353TIP3    H176474   0.769   3.845   1.055  2.5899 -1.1529 -0.0760
18353TIP3    H276475   0.817   3.812   0.915 -1.1599  0.4519 -1.7901
18354TIP3   OH276476   3.913   3.676  15.714  0.4176 -0.0963  0.0674
18354TIP3    H176477   3.971   3.745  15.680  0.4232  0.0259  0.3187
18354TIP3    H276478   3.929   3.601  15.658 -0.9103  0.6456 -1.3523
18355TIP3   OH276479   6.170   5.602  11.751  0.0897  0.2182  0.1798
18355TIP3    H176480   6.251   5.614  11.702  0.1716 -0.8203  0.0519
18355TIP3    H276481   6.103   5.645  11.698  0.5783  1.2235  0.3686
18356TIP3   OH276482   2.249   2.398  11.306  0.4016  0.3720 -0.1071
18356TIP3    H176483   2.209   2.324  11.351 -0.8340  0.1927 -1.4629
18356TIP3    H276484   2.289   2.360  11.228  0.0909  1.0730 -0.6135
18357TIP3   OH276485   0.325   0.686  14.332 -0.3372 -0.1482 -0.0543
18357TIP3    H176486   0.238   0.670  14.296 -0.5550  1.9412 -0.5165
18357TIP3    H276487   0.336   0.781  14.328  2.4723 -0.4738 -1.1916
18358TIP3   OH276488   1.637   4.477  15.789 -0.0634 -0.2004 -0.1287
18358TIP3    H176489   1.552   4.457  15.750 -0.3069  0.4647  0.0749
18358TIP3    H276490   1.675   4.391  15.808 -1.7024 -0.4912  2.0173
18359TIP3   OH276491   4.944   5.095  14.964 -0.4410 -0.3524  0.5372
18359TIP3    H176492   4.873   5.121  15.023  0.8288  0.4116  1.7507
18359TIP3    H276493   5.003   5.043  15.018  0.7889  0.4250 -0.0294
18360TIP3   OH276494   5.926   1.872  12.596 -0.1651  0.0596 -0.5186
18360TIP3    H176495   6.021   1.856  12.593  0.2617  1.9004  1.7730
18360TIP3    H276496   5.899   1.870  12.504  1.7054 -2.4988 -1.0844
18361TIP3   OH276497   3.633   1.668   3.181  0.3494  0.2457 -0.3997
18361TIP3    H176498   3.589   1.682   3.097  0.2694  0.2427 -0.3585
18361TIP3    H276499   3.600   1.739   3.237  0.7861  0.5467 -0.5214
18362TIP3   OH276500   3.017   3.239  14.294 -0.5862 -0.0013  0.2982
18362TIP3    H176501   3.056   3.325  14.281  0.3342 -0.9565 -4.5138
18362TIP3    H276502   2.923   3.255  14.301 -0.3462  1.4875  0.2448
18363TIP3   OH276503   3.370   2.646  12.415  0.9009  0.0879 -0.3632
18363TIP3    H176504   3.376   2.568  12.360 -1.4651 -0.4958  0.1591
18363TIP3    H276505   3.304   2.701  12.373 -0.9052 -0.3490  1.8338
18364TIP3   OH276506   3.633   5.009   1.232  0.6383 -0.0216 -0.1331
18364TIP3    H176507   3.607   5.071   1.164  0.3316 -2.0558 -1.9056
18364TIP3    H276508   3.552   4.992   1.280  0.4880  0.1009 -0.3413
18365TIP3   OH276509   3.316   3.521  15.961  0.0063 -1.2783  0.1298
18365TIP3    H176510   3.239   3.524  16.019 -0.3730 -0.6720 -0.4014
18365TIP3    H276511   3.379   3.581  16.001 -0.1997 -0.9725  0.0003
18366TIP3   OH276512   1.057   2.782  15.225 -0.1967  0.2683  0.3361
18366TIP3    H176513   0.978   2.814  15.182  0.0313  0.6704  0.2129
18366TIP3    H276514   1.062   2.833  15.306  1.6842  2.5891 -1.1553
18367TIP3   OH276515   2.901   1.121  10.687 -0.1757  0.2694 -0.2476
18367TIP3    H176516   2.839   1.192  10.703  1.8445  1.8675  0.6173
18367TIP3    H276517   2.845   1.047  10.662 -2.3416  2.0428 -0.8973
18368TIP3   OH276518   5.334   0.686  17.043 -0.3289  0.0955 -0.2774
18368TIP3    H176519   5.303   0.600  17.071 -0.2154 -0.3316 -1.4427
18368TIP3    H276520   5.314   0.690  16.950 -2.8255  2.4112  0.2991
18369TIP3   OH276521   1.319   0.751  14.325  0.0743  0.2631  0.5073
18369TIP3    H176522   1.275   0.809  14.387  0.8423 -0.2092  1.5108
18369TIP3    H276523   1.410   0.750  14.353  0.3485 -0.2726 -0.3859
18370TIP3   OH276524   2.869   1.919  11.413 -0.7620 -0.1076  0.5231
18370TIP3    H176525   2.791   1.907  11.466 -1.1701 -1.9830 -0.4750
18370TIP3    H276526   2.836   1.936  11.325 -0.0623  1.1966  0.4934
18371TIP3   OH276527   0.575   6.145   4.620 -0.0156 -0.0992 -0.0394
18371TIP3    H176528   0.658   6.191   4.607 -0.2403  0.2279 -0.3237
18371TIP3    H276529   0.561   6.098   4.538  0.7917 -1.6075  0.6782
18372TIP3   OH276530   6.033   4.713   4.613  0.3666  0.8532 -0.5519
18372TIP3    H176531   5.964   4.713   4.547  1.0712 -1.9231 -1.3514
18372TIP3    H276532   6.027   4.799   4.653 -3.1732  0.9117 -1.0018
18373TIP3   OH276533   3.502   0.758   2.265  0.0699  0.0889  0.1351
18373TIP3    H176534   3.590   0.727   2.285  0.5732  0.5880 -1.2406
18373TIP3    H276535   3.444   0.696   2.309  1.0821 -1.7664 -1.1151
18374TIP3   OH276536   1.445   6.192   5.322  0.2085  0.0337 -0.2493
18374TIP3    H176537   1.498   6.271   5.324 -1.1301  0.9800 -1.0904
18374TIP3    H276538   1.366   6.217   5.274 -0.7607 -1.4848  0.5042
18375TIP3   OH276539   2.269   5.628   3.282 -0.2864 -0.1266  0.1697
18375TIP3    H176540   2.315   5.555   3.239 -2.3942 -1.8680  0.7652
18375TIP3    H276541   2.224   5.673   3.210  0.1136 -0.0658 -0.0487
18376TIP3   OH276542   3.943   2.842  15.397 -0.0218  0.9758 -0.0769
18376TIP3    H176543   3.958   2.936  15.409 -0.1472  1.4603 -3.4171
18376TIP3    H276544   4.031   2.804  15.393  0.0407  0.6570  2.8573
18377TIP3   OH276545   3.341   5.326  13.081  0.4992 -0.0195 -0.2690
18377TIP3    H176546   3.398   5.391  13.122  0.4023 -0.8562  1.2291
18377TIP3    H276547   3.254   5.364  13.086  0.7778  0.8666 -1.7561
18378TIP3   OH276548   4.767   2.193   2.201  0.5096 -0.2998 -0.2606
18378TIP3    H176549   4.779   2.126   2.134  1.2075 -0.3874 -0.0432
18378TIP3    H276550   4.689   2.165   2.249  0.1358 -0.3547 -0.8930
18379TIP3   OH276551   2.424   6.594  14.921 -0.2939 -0.0674 -0.3745
18379TIP3    H176552   2.450   6.598  15.013 -1.4039 -1.5270  0.0142
18379TIP3    H276553   2.430   6.501  14.899 -0.2955  0.2431 -1.7027
18380TIP3   OH276554   5.937   5.910  13.754 -0.5928 -0.2664 -0.2671
18380TIP3    H176555   5.958   5.842  13.690 -0.3791  0.3710 -0.8763
18380TIP3    H276556   5.851   5.943  13.727 -0.9388 -0.6573  0.3425
18381TIP3   OH276557   2.537   1.849   4.396  0.2399  0.0761 -0.6402
18381TIP3    H176558   2.453   1.823   4.432  0.0397 -0.2030 -1.2969
18381TIP3    H276559   2.540   1.944   4.409  0.3174 -0.0643  0.3930
18382TIP3   OH276560   2.159   0.934  10.819  0.0515  0.2577  0.1446
18382TIP3    H176561   2.112   0.863  10.773  0.7302 -0.5183  0.6334
18382TIP3    H276562   2.161   0.906  10.910 -3.1678  2.8130  1.0886
18383TIP3   OH276563   5.609   5.977  14.688  0.5317 -0.3112 -0.1685
18383TIP3    H176564   5.632   5.884  14.681  0.8314 -0.0751 -2.4667
18383TIP3    H276565   5.630   6.000  14.779  1.8309 -2.1084  0.0021
18384TIP3   OH276566   4.645   1.330  13.035 -0.0009  0.2459  0.1020
18384TIP3    H176567   4.676   1.255  12.984 -1.0656 -1.9690  2.6353
18384TIP3    H276568   4.551   1.315  13.044  0.0659  0.9585  2.1296
18385TIP3   OH276569   4.324   4.274   5.279  0.1382  0.0980 -0.2945
18385TIP3    H176570   4.352   4.195   5.324  0.7133  0.6424  0.3272
18385TIP3    H276571   4.283   4.328   5.348 -0.1481  0.3866 -0.6847
18386TIP3   OH276572   2.287   1.802   1.490  0.0803  0.1080  0.0194
18386TIP3    H176573   2.322   1.890   1.489 -1.1667  0.6888  2.7335
18386TIP3    H276574   2.363   1.745   1.483  1.1520  1.3893  1.0678
18387TIP3   OH276575   3.471   1.747  16.327 -0.3966  0.3311 -0.3641
18387TIP3    H176576   3.489   1.654  16.315 -0.3995  0.3634 -0.6228
18387TIP3    H276577   3.410   1.750  16.401 -0.9094  0.0792 -0.7752
18388TIP3   OH276578   1.405   0.371   2.089  0.6720 -0.5736  0.1262
18388TIP3    H176579   1.336   0.436   2.103  1.2072  0.3356 -1.3617
18388TIP3    H276580   1.421   0.334   2.176 -0.9729 -0.0819  0.6554
18389TIP3   OH276581   4.131   5.825  13.977  0.5827  0.0962 -0.1925
18389TIP3    H176582   4.169   5.748  13.935 -1.0269 -0.4907 -0.5979
18389TIP3    H276583   4.157   5.818  14.069  0.6762 -0.7691 -0.2835
18390TIP3   OH276584   3.314   2.714   4.888 -0.2292  1.1544  0.3200
18390TIP3    H176585   3.272   2.799   4.877 -0.6926  1.0506  1.2346
18390TIP3    H276586   3.242   2.653   4.900  0.1315  0.7464  0.4276
18391TIP3   OH276587   3.364   0.037  16.777  0.5450 -0.1265  0.1507
18391TIP3    H176588   3.393   0.121  16.744  0.8223  0.1955  1.1940
18391TIP3    H276589   3.423   0.018  16.850  0.1069 -0.9321  0.3064
18392TIP3   OH276590   3.104   4.302   5.922  0.6607 -0.1712  0.2621
18392TIP3    H176591   3.149   4.387   5.920 -0.9789  0.7197  0.2536
18392TIP3    H276592   3.103   4.278   6.015 -0.3992  0.6639  0.4751
18393TIP3   OH276593   3.391   6.721  16.020  0.2273  0.6014 -0.3180
18393TIP3    H176594   3.423   6.671  16.096 -0.2634 -0.5436 -0.8596
18393TIP3    H276595   3.450   6.796  16.015 -0.6437  1.5054  2.1105
18394TIP3   OH276596   3.813   0.422  11.643 -0.2011 -0.0479  0.5509
18394TIP3    H176597   3.836   0.428  11.736  0.0369  3.4574  0.3205
18394TIP3    H276598   3.896   0.427  11.597 -0.4277 -0.5217  0.0829
18395TIP3   OH276599   0.526   3.918   1.983  0.3749  0.3054 -0.6803
18395TIP3    H176600   0.461   3.956   2.042  2.7158 -1.5252  3.2618
18395TIP3    H276601   0.549   3.989   1.923 -3.8273  1.5157 -1.0202
18396TIP3   OH276602   6.357   5.473  13.914 -0.2501 -0.3861 -0.1578
18396TIP3    H176603   6.306   5.554  13.921 -0.1470 -0.2955 -0.4299
18396TIP3    H276604   6.443   5.495  13.949 -0.5754 -0.7034  0.8465
18397TIP3   OH276605   2.144   4.175   0.801  0.1114 -0.2025 -0.0352
18397TIP3    H176606   2.111   4.153   0.714 -1.1287  0.3444  0.2859
18397TIP3    H276607   2.108   4.261   0.820 -1.3804 -1.1994  1.8833
18398TIP3   OH276608   0.253   0.057   5.444 -0.3963 -0.4359 -0.4499
18398TIP3    H176609   0.303   0.108   5.507 -0.0045  0.3977 -1.4174
18398TIP3    H276610   0.245  -0.030   5.484 -0.0974  0.0612  0.7028
18399TIP3   OH276611   0.449   1.156   2.451 -0.0888 -0.1884  0.2244
18399TIP3    H176612   0.438   1.066   2.482  1.2598 -0.5126 -0.1797
18399TIP3    H276613   0.371   1.173   2.397  0.2126 -1.5340 -0.6579
18400TIP3   OH276614   1.518   2.987   1.537 -0.1673  0.3986 -0.3234
18400TIP3    H176615   1.596   2.936   1.515 -0.8375  0.0064 -1.8334
18400TIP3    H276616   1.542   3.034   1.617  0.7515 -1.6146  0.6053
18401TIP3   OH276617   0.830   2.437  13.095  0.5402 -0.0796  0.8415
18401TIP3    H176618   0.812   2.437  13.189 -0.6611 -3.2077  0.6598
18401TIP3    H276619   0.764   2.496  13.058 -0.2963 -0.4569  1.7331
18402TIP3   OH276620   1.780   4.243   4.604 -0.5023 -0.2577 -0.2980
18402TIP3    H176621   1.790   4.273   4.694 -0.2016 -1.2836  0.0175
18402TIP3    H276622   1.755   4.151   4.612 -0.8061 -0.2637 -1.2568
18403TIP3   OH276623   4.724   0.491   2.409 -0.2917 -0.1142  0.3223
18403TIP3    H176624   4.720   0.512   2.503  1.5483 -0.4918  0.4951
18403TIP3    H276625   4.702   0.398   2.404 -2.4812  0.3898  0.1521
18404TIP3   OH276626   0.699   3.757  15.389 -0.1744 -0.0996  0.0086
18404TIP3    H176627   0.732   3.744  15.300  0.4180 -1.3141  0.3904
18404TIP3    H276628   0.774   3.795  15.436 -0.6829  1.1189 -0.1602
18405TIP3   OH276629   6.714   4.326   0.262  0.1730  0.2549  0.2065
18405TIP3    H176630   6.692   4.250   0.316 -0.2055 -0.2421 -0.6414
18405TIP3    H276631   6.630   4.356   0.229  0.4660  0.1465 -0.6518
18406TIP3   OH276632   6.021   3.201   6.048 -0.1268  0.5613 -0.7589
18406TIP3    H176633   6.022   3.131   6.113  3.3884 -0.1433 -1.4873
18406TIP3    H276634   6.027   3.282   6.099  0.8012  0.1002 -0.1399
18407TIP3   OH276635   2.669   0.958   2.865 -0.2172 -0.1453  0.3384
18407TIP3    H176636   2.585   1.003   2.872 -0.6166 -0.6482 -0.9912
18407TIP3    H276637   2.651   0.882   2.809  0.9463 -0.7008  0.6936
18408TIP3   OH276638   0.567   0.461  15.837 -0.1187 -0.1345 -0.6070
18408TIP3    H176639   0.539   0.375  15.807 -0.2350 -0.4187  0.3255
18408TIP3    H276640   0.502   0.521  15.801 -0.5463 -0.5325 -0.5021
18409TIP3   OH276641   5.452   1.905  17.170  0.4737  0.1399  0.1503
18409TIP3    H176642   5.398   1.963  17.116  1.7287  0.5983 -0.6413
18409TIP3    H276643   5.400   1.826  17.179 -0.1856  0.4429 -0.8897
18410TIP3   OH276644   6.114   3.484  12.630 -0.2694 -0.2361  0.2749
18410TIP3    H176645   6.191   3.472  12.574 -0.8340  2.9534 -1.2686
18410TIP3    H276646   6.149   3.487  12.719  1.3830  1.0310 -0.3994
18411TIP3   OH276647   4.429   1.328  16.390 -0.2830  0.2349  0.2357
18411TIP3    H176648   4.380   1.381  16.328  0.0398 -1.2008 -1.2586
18411TIP3    H276649   4.371   1.321  16.466 -0.6576  2.0326  0.1321
18412TIP3   OH276650   1.890   1.457   1.587 -0.4311  0.4795 -0.8274
18412TIP3    H176651   1.958   1.523   1.601 -0.9041  0.6056  0.9403
18412TIP3    H276652   1.827   1.472   1.658 -1.5151 -0.6320 -1.5443
18413TIP3   OH276653   5.491   2.650  16.570  0.4606  0.7079 -0.0961
18413TIP3    H176654   5.551   2.580  16.592  0.6187  0.5529 -1.0131
18413TIP3    H276655   5.444   2.619  16.493  0.5853  1.6291 -0.5592
18414TIP3   OH276656   0.168   4.177   3.859  0.1325 -0.4782  0.0527
18414TIP3    H176657   0.075   4.199   3.864 -0.0087 -1.4947  2.3486
18414TIP3    H276658   0.213   4.260   3.874 -0.4139 -0.3693  1.1274
18415TIP3   OH276659   2.607   0.994   0.372  0.2472  0.6980  0.0168
18415TIP3    H176660   2.593   0.926   0.306  1.2137 -1.5224  2.0002
18415TIP3    H276661   2.628   1.073   0.322  0.5715 -0.8352 -2.3266
18416TIP3   OH276662   0.262   2.874   5.157 -0.1214 -0.6758 -0.1421
18416TIP3    H176663   0.200   2.856   5.228 -1.4478  0.8346 -0.8961
18416TIP3    H276664   0.232   2.818   5.085 -0.7619  0.2240 -0.5814
18417TIP3   OH276665   3.076   3.122   4.102  0.1687  0.0842  0.4315
18417TIP3    H176666   3.091   3.174   4.181 -1.1959 -1.4296  1.7126
18417TIP3    H276667   3.146   3.058   4.100  0.5227  0.4767  0.0972
18418TIP3   OH276668   5.394   4.022   4.206 -0.2388  0.1615  0.0134
18418TIP3    H176669   5.487   4.015   4.185 -0.3074  0.1482 -0.2832
18418TIP3    H276670   5.369   3.934   4.236  0.1264  0.4623  1.2560
18419TIP3   OH276671   4.835   4.444   3.474 -0.0809  0.3028  0.1859
18419TIP3    H176672   4.813   4.453   3.567  1.1008 -0.0691  0.5046
18419TIP3    H276673   4.915   4.392   3.473  1.4657  2.6176 -0.8918
18420TIP3   OH276674   0.335   5.047  12.143 -0.0955 -0.2957  0.3994
18420TIP3    H176675   0.386   5.070  12.065  0.8720  1.2606  1.4491
18420TIP3    H276676   0.329   4.952  12.140  2.4671 -0.4866 -0.0546
18421TIP3   OH276677   3.812   5.245   2.092  0.5158 -0.2538  0.2684
18421TIP3    H176678   3.871   5.191   2.145 -0.1284 -0.8090  0.4203
18421TIP3    H276679   3.731   5.195   2.087  0.0633  0.4909  0.0279
18422TIP3   OH276680   2.411   0.083   5.143 -0.0824 -0.0460 -0.2905
18422TIP3    H176681   2.414   0.148   5.073 -1.3290  0.6618  0.3011
18422TIP3    H276682   2.472   0.014   5.115 -0.4027  0.3361 -1.9542
18423TIP3   OH276683   4.110   1.966   2.236 -0.4082  0.8223 -0.1607
18423TIP3    H176684   4.068   1.895   2.283  0.9138 -0.6973 -1.2186
18423TIP3    H276685   4.144   2.024   2.304 -3.1577  1.4931  0.7109
18424TIP3   OH276686   5.336   3.494  14.306  0.0493 -0.3269 -0.0979
18424TIP3    H176687   5.330   3.414  14.254 -2.0168  0.6561 -1.4611
18424TIP3    H276688   5.274   3.481  14.377  0.9615 -0.6092  0.6553
18425TIP3   OH276689   5.362   4.757   3.834 -0.3903  0.2324  0.2491
18425TIP3    H176690   5.302   4.720   3.770  0.4701 -2.0485  0.6994
18425TIP3    H276691   5.305   4.794   3.902 -1.2873  0.4369 -0.6050
18426TIP3   OH276692   4.909   3.580   3.703 -0.3596  0.3824  0.6092
18426TIP3    H176693   4.946   3.638   3.770 -0.0871  2.0562 -0.9476
18426TIP3    H276694   4.942   3.493   3.725 -1.0093  0.7357  3.1619
18427TIP3   OH276695   5.801   1.810  13.234  0.7249  0.3965  0.0756
18427TIP3    H176696   5.740   1.784  13.303  1.3024 -0.4936  0.2514
18427TIP3    H276697   5.763   1.890  13.198  0.5983  1.0557  1.6433
18428TIP3   OH276698   4.313   1.856  12.648 -0.0255  0.2517  0.5266
18428TIP3    H176699   4.234   1.897  12.614  1.4039  1.9484 -0.8745
18428TIP3    H276700   4.315   1.770  12.607 -0.2924  0.8439 -0.7676
18429TIP3   OH276701   5.963   6.333  16.636  0.2432  0.6834  0.4681
18429TIP3    H176702   6.005   6.419  16.633  0.8193  0.5375  3.2499
18429TIP3    H276703   6.002   6.286  16.562  1.1842  2.2228 -0.0626
18430TIP3   OH276704   0.110   4.698   4.913  0.3261  0.2729 -0.1424
18430TIP3    H176705   0.106   4.607   4.940  0.6575  0.6897  1.3502
18430TIP3    H276706   0.123   4.747   4.994 -1.0989  1.7481 -0.7586
18431TIP3   OH276707   2.696   4.892   6.597 -0.5478  0.7404 -0.1429
18431TIP3    H176708   2.773   4.835   6.603 -0.7657  0.6029  1.3994
18431TIP3    H276709   2.653   4.883   6.682 -1.6116  1.7548 -0.5719
18432TIP3   OH276710   2.647   5.779  13.239 -0.1313 -0.5021  0.0321
18432TIP3    H176711   2.645   5.779  13.334  1.6640 -1.4567  0.0860
18432TIP3    H276712   2.557   5.799  13.213 -0.4208  0.7182  1.9155
18433TIP3   OH276713   4.700   4.978   5.448  0.6288  0.5194 -0.1887
18433TIP3    H176714   4.792   4.966   5.423  0.7522  0.9937  0.0355
18433TIP3    H276715   4.701   5.053   5.506  0.2297 -0.1010  0.6211
18434TIP3   OH276716   0.063   4.905   0.695  0.3125  0.5654 -0.4685
18434TIP3    H176717   0.014   4.854   0.760 -1.6321  1.3937 -1.2522
18434TIP3    H276718   0.083   4.987   0.740  2.4427 -0.3735  0.3973
18435TIP3   OH276719   6.505   5.210   4.390  0.3906  0.2364 -0.2916
18435TIP3    H176720   6.503   5.190   4.297  3.6517 -0.3231 -0.3186
18435TIP3    H276721   6.466   5.133   4.432  1.1376 -0.5803 -1.0790
18436TIP3   OH276722   5.195   3.821  15.447 -0.1696 -0.2180 -0.0133
18436TIP3    H176723   5.160   3.874  15.519  0.1789 -0.1474  0.1050
18436TIP3    H276724   5.157   3.734  15.461  0.1156 -0.2781  0.4227
18437TIP3   OH276725   4.454   4.430   1.819 -0.6792  0.0875 -0.7491
18437TIP3    H176726   4.399   4.486   1.765  0.0812 -0.1316 -1.7689
18437TIP3    H276727   4.541   4.470   1.815 -0.5213 -0.1755 -0.0459
18438TIP3   OH276728   0.553   5.690   3.227  0.1485 -0.0500  0.2192
18438TIP3    H176729   0.644   5.701   3.199 -0.1439 -0.0248 -0.7313
18438TIP3    H276730   0.501   5.734   3.159 -0.5708 -0.0004  0.7906
18439TIP3   OH276731   3.377   1.164  11.736  0.4590  0.1766  0.4142
18439TIP3    H176732   3.445   1.225  11.706  1.1377 -0.6086  0.3304
18439TIP3    H276733   3.352   1.116  11.657  0.1535  0.1216  0.5442
18440TIP3   OH276734   0.398   0.770  13.615  0.7897 -0.0338  0.7051
18440TIP3    H176735   0.489   0.802  13.614  1.3962 -1.7267 -1.2919
18440TIP3    H276736   0.350   0.835  13.564  0.8341  0.8919  1.8033
18441TIP3   OH276737   4.064   1.383   4.798  0.0076  0.3603 -0.2063
18441TIP3    H176738   3.991   1.370   4.859  0.0507  0.0663 -0.2158
18441TIP3    H276739   4.139   1.403   4.854  1.0377 -4.0126  0.1800
18442TIP3   OH276740   0.033   5.152   3.879 -0.3786 -0.0387  0.4360
18442TIP3    H176741   0.064   5.160   3.788 -2.1326 -0.7210 -0.2522
18442TIP3    H276742  -0.062   5.160   3.872 -0.5661 -0.6223  2.1758
18443TIP3   OH276743   4.109   4.431  15.939  0.8230 -0.0137  0.2849
18443TIP3    H176744   4.033   4.433  15.997 -0.9209  0.1520 -1.9470
18443TIP3    H276745   4.100   4.348  15.892  1.6169  0.3648 -0.5308
18444TIP3   OH276746   0.322   4.303   2.762 -0.3346  0.8442  0.2039
18444TIP3    H176747   0.316   4.397   2.749 -0.7562  0.6067 -1.3734
18444TIP3    H276748   0.415   4.283   2.757 -0.2277  1.1991  0.7500
18445TIP3   OH276749   0.276   2.321   6.246 -0.1553  0.2010 -0.6039
18445TIP3    H176750   0.367   2.315   6.217 -0.4046  0.9102 -1.5610
18445TIP3    H276751   0.265   2.248   6.307  0.7755 -0.4869 -1.2479
18446TIP3   OH276752   2.838   4.202   1.455 -0.7673  0.3512 -0.2709
18446TIP3    H176753   2.928   4.218   1.482 -0.1801 -1.3585 -1.0993
18446TIP3    H276754   2.820   4.113   1.486 -2.2265  0.7558  0.0457
18447TIP3   OH276755   2.853   2.053   6.328 -0.1625  0.1622  0.0382
18447TIP3    H176756   2.761   2.046   6.301 -0.2599  0.7008  0.2322
18447TIP3    H276757   2.854   2.126   6.390  0.7253  1.3196 -1.3076
18448TIP3   OH276758   2.358   0.314  10.738 -0.4243  0.8716  0.2385
18448TIP3    H176759   2.315   0.360  10.666 -0.7800  0.0542 -0.0741
18448TIP3    H276760   2.381   0.383  10.800 -2.4233  1.2849  0.5354
18449TIP3   OH276761   6.359   1.702  11.194 -0.1297  0.1960 -0.2689
18449TIP3    H176762   6.294   1.671  11.130 -0.4453 -2.1110  1.0963
18449TIP3    H276763   6.402   1.622  11.223  0.5165  1.3083  1.8649
18450TIP3   OH276764   4.764   1.847   4.786  0.0016  0.1146  0.2582
18450TIP3    H176765   4.855   1.874   4.775 -0.3539  1.3928  0.3375
18450TIP3    H276766   4.761   1.808   4.873  0.5071 -0.0638  0.1967
18451TIP3   OH276767   0.308   2.481   3.411  0.4701  0.1836 -0.2821
18451TIP3    H176768   0.230   2.505   3.460 -0.3744 -1.0046 -1.0030
18451TIP3    H276769   0.341   2.563   3.375  0.7884  0.9896  1.7833
18452TIP3   OH276770   2.135   3.366  13.639 -0.2333 -0.2064  0.3558
18452TIP3    H176771   2.094   3.285  13.669  0.7243 -0.5563  0.7316
18452TIP3    H276772   2.095   3.383  13.554 -2.3785  0.3657  1.4572
18453TIP3   OH276773   4.710   2.081   4.361  0.5138 -0.4414 -0.0417
18453TIP3    H176774   4.717   2.173   4.335 -1.0207 -0.4586 -0.6073
18453TIP3    H276775   4.616   2.068   4.375  0.7752 -1.8046  0.4998
18454TIP3   OH276776   4.604   0.274   0.547  0.6859  0.3911  0.1345
18454TIP3    H176777   4.510   0.267   0.565  0.7689 -1.0736  0.0429
18454TIP3    H276778   4.627   0.363   0.574 -0.6485  0.6275  0.5267
18455TIP3   OH276779   1.765   6.049  17.231 -0.4603 -0.2945 -0.3762
18455TIP3    H176780   1.751   5.977  17.292 -0.5034 -1.2803 -1.5374
18455TIP3    H276781   1.841   6.022  17.179 -0.2513  0.6535 -0.5727
18456TIP3   OH276782   1.335   2.341  16.186  0.6777  0.2137  0.6292
18456TIP3    H176783   1.426   2.334  16.157  0.2655 -0.7818 -0.4935
18456TIP3    H276784   1.287   2.282  16.127 -0.9126  1.8093  0.2754
18457TIP3   OH276785   4.731   5.569   3.484 -0.1001  0.1923 -0.4300
18457TIP3    H176786   4.670   5.512   3.532  1.1433  0.1258  1.1097
18457TIP3    H276787   4.741   5.527   3.398 -1.0535 -0.5992 -0.1593
18458TIP3   OH276788   1.784   4.576  13.587 -0.1748  0.2059  0.1479
18458TIP3    H176789   1.700   4.574  13.633 -0.2658  1.3118  0.0404
18458TIP3    H276790   1.792   4.489  13.548 -1.0156 -0.0895  0.6157
18459TIP3   OH276791   3.517   2.056  13.574  0.3052 -0.2171 -0.1904
18459TIP3    H176792   3.488   2.039  13.484  1.3297 -0.2616 -0.5142
18459TIP3    H276793   3.569   2.136  13.568 -1.2124  0.8514  0.6862
18460TIP3   OH276794   0.710   3.023   4.136  0.2721 -0.4128 -0.0418
18460TIP3    H176795   0.738   3.070   4.057 -0.0959  1.0724  0.6807
18460TIP3    H276796   0.784   3.032   4.196 -0.9574  1.9447  1.2072
18461TIP3   OH276797   0.399   0.383  13.754  0.3668 -0.4339 -0.7815
18461TIP3    H176798   0.369   0.462  13.709 -0.8414 -0.1789  0.4518
18461TIP3    H276799   0.396   0.405  13.847  3.9313 -0.5544 -0.5401
18462TIP3   OH276800   2.112   2.082   0.388  0.0234  0.2180  0.0959
18462TIP3    H176801   2.031   2.032   0.373  0.1200 -0.2501  1.1328
18462TIP3    H276802   2.182   2.020   0.369  0.1463  0.5852 -0.6724
18463TIP3   OH276803   3.250   6.575   5.081  1.0829 -0.1218  0.0797
18463TIP3    H176804   3.281   6.640   5.018  2.2261 -1.1936 -0.4950
18463TIP3    H276805   3.162   6.551   5.050  1.0487  0.4383 -0.2592
18464TIP3   OH276806   4.698   1.586  11.406 -0.4238 -0.0729  0.7341
18464TIP3    H176807   4.765   1.523  11.382  0.7250  0.6890  1.9228
18464TIP3    H276808   4.671   1.560  11.494  0.0396  1.0879  1.2184
18465TIP3   OH276809   5.707   1.054   4.851  0.1556 -0.2300  0.2903
18465TIP3    H176810   5.728   1.128   4.908 -0.0764 -0.1609  0.2870
18465TIP3    H276811   5.659   1.092   4.777  1.9653 -0.0928 -0.8294
18466TIP3   OH276812   5.679   5.668  14.983 -0.0657 -0.2411 -0.2245
18466TIP3    H176813   5.598   5.716  14.997  0.3799  0.7320 -0.9168
18466TIP3    H276814   5.699   5.681  14.890  0.3477 -1.3092 -0.2901
18467TIP3   OH276815   4.439   5.370   0.776 -0.2632  0.0946  0.2248
18467TIP3    H176816   4.468   5.354   0.686 -3.0332 -0.5674 -0.5904
18467TIP3    H276817   4.370   5.305   0.791 -1.7234  1.9808  1.8713
18468TIP3   OH276818   0.359   4.438   2.111 -0.3406 -0.1738  0.1284
18468TIP3    H176819   0.288   4.494   2.081 -0.1286  0.4172  0.7187
18468TIP3    H276820   0.330   4.349   2.091 -1.5486  0.0165  0.9912
18469TIP3   OH276821   4.456   6.171   4.193  0.2822  0.3611 -0.6069
18469TIP3    H176822   4.474   6.079   4.209  0.2379  0.5735  0.7361
18469TIP3    H276823   4.366   6.183   4.223  0.6203  1.0568  0.1299
18470TIP3   OH276824   6.363   6.383  12.914 -0.4860  0.3139  0.3111
18470TIP3    H176825   6.336   6.379  12.822 -1.5723  2.3646  0.4972
18470TIP3    H276826   6.449   6.424  12.912 -0.4466  0.2268  0.1950
18471TIP3   OH276827   4.961   4.494  10.855 -0.9837 -0.1715  0.2074
18471TIP3    H176828   5.048   4.472  10.821 -0.3950  0.7454  1.0906
18471TIP3    H276829   4.916   4.410  10.862  0.3742 -0.8348  1.2156
18472TIP3   OH276830   4.207   3.498   3.525  0.6488  0.1645  0.4019
18472TIP3    H176831   4.248   3.468   3.606 -1.9472 -0.8713  1.4071
18472TIP3    H276832   4.159   3.577   3.550  0.7779  0.5111 -0.4124
18473TIP3   OH276833   3.334   1.575   4.380  0.9477 -0.3038 -0.0615
18473TIP3    H176834   3.417   1.622   4.376  1.0168 -0.5543 -1.9257
18473TIP3    H276835   3.268   1.644   4.378  1.0826 -0.1860 -0.5136
18474TIP3   OH276836   4.980   0.998  11.246  0.4858  0.3200  0.2742
18474TIP3    H176837   5.048   0.939  11.213  0.9282  0.7245  0.4678
18474TIP3    H276838   5.020   1.043  11.320  0.0557  0.6737  0.2959
18475TIP3   OH276839   2.327   5.304  11.552 -0.5309 -0.4659  0.1254
18475TIP3    H176840   2.392   5.238  11.531  1.8872  2.2061 -1.1404
18475TIP3    H276841   2.268   5.304  11.477 -0.0106 -0.5647 -0.2868
18476TIP3   OH276842   3.571   0.627  15.986 -0.0677  0.8185 -0.4176
18476TIP3    H176843   3.583   0.587  16.073 -1.8340  3.4324  1.1270
18476TIP3    H276844   3.655   0.668  15.966  0.5215 -0.2780 -0.1704
18477TIP3   OH276845   4.796   2.192   5.247 -0.5218 -0.3338 -0.4892
18477TIP3    H176846   4.858   2.119   5.247  1.9672  1.6876  2.2721
18477TIP3    H276847   4.730   2.167   5.312 -0.1983 -0.5757 -0.2510
18478TIP3   OH276848   3.150   2.142  13.843 -0.5507 -0.0188 -0.3166
18478TIP3    H176849   3.213   2.185  13.785  0.8703 -1.1393  0.3348
18478TIP3    H276850   3.087   2.101  13.783  0.1173 -0.0169 -1.0432
18479TIP3   OH276851   0.216   0.898  14.698  0.1788 -0.3828  0.0912
18479TIP3    H176852   0.163   0.828  14.736  1.0819  0.0121  2.1012
18479TIP3    H276853   0.306   0.873  14.716  0.6184  0.1050 -1.3176
18480TIP3   OH276854   5.206   6.706   5.819  0.5514  0.5003  0.5728
18480TIP3    H176855   5.116   6.725   5.846  0.3929 -0.5297  0.8129
18480TIP3    H276856   5.233   6.633   5.876  0.7232 -0.7329 -1.0367
18481TIP3   OH276857   0.491   4.056  12.149  0.3059  0.1329 -0.0337
18481TIP3    H176858   0.430   3.998  12.104  1.3399 -0.2399 -1.0058
18481TIP3    H276859   0.566   4.061  12.089  0.4662  2.0102  0.3063
18482TIP3   OH276860   5.720   2.075  11.709  0.2066  0.5165 -0.1320
18482TIP3    H176861   5.768   2.014  11.765 -0.9353 -1.4077 -1.1855
18482TIP3    H276862   5.757   2.062  11.622  1.3600  2.8519 -0.0266
18483TIP3   OH276863   0.626   5.490  11.257  0.0948 -0.1405  0.2661
18483TIP3    H176864   0.648   5.443  11.177  0.1719  1.2503 -0.5529
18483TIP3    H276865   0.708   5.491  11.307  0.4373  0.1992 -0.2846
18484TIP3   OH276866   3.914   1.514  11.774  0.7940  0.4102  0.2294
18484TIP3    H176867   3.939   1.438  11.723 -0.3678 -0.1682  0.5075
18484TIP3    H276868   3.994   1.538  11.821  1.0298 -0.9663  0.5580
18485TIP3   OH276869   4.408   4.098  15.124  0.3375  0.2842 -0.1622
18485TIP3    H176870   4.474   4.134  15.183  0.1995 -2.3140  1.6523
18485TIP3    H276871   4.459   4.062  15.051  0.7421  0.4463  0.0368
18486TIP3   OH276872   0.348   1.530  13.599  0.2659 -0.3220 -0.6938
18486TIP3    H176873   0.256   1.509  13.586 -0.5094  2.2806  0.1335
18486TIP3    H276874   0.360   1.613  13.553  1.7190  0.2510  0.6584
18487TIP3   OH276875   2.926   1.070  15.066 -0.4576 -0.0489 -1.0131
18487TIP3    H176876   2.933   1.129  15.141 -0.6370 -1.3917  0.0771
18487TIP3    H276877   3.010   1.026  15.061 -1.2476 -1.6960 -0.1213
18488TIP3   OH276878   5.225   5.886  13.206  0.4926 -0.2393  0.0130
18488TIP3    H176879   5.285   5.852  13.272  0.0201  1.8306  1.5312
18488TIP3    H276880   5.139   5.852  13.232  0.5908 -1.0280 -0.6634
18489TIP3   OH276881   4.956   1.998   4.491 -0.3681  0.5689  0.1466
18489TIP3    H176882   4.931   1.906   4.497 -0.1972  0.4844 -0.3883
18489TIP3    H276883   4.885   2.038   4.440 -0.0506  0.5740 -0.3001
18490TIP3   OH276884   6.530   6.741   4.530 -0.4459 -0.6983  0.1558
18490TIP3    H176885   6.581   6.804   4.581 -1.0946 -2.4321  3.0720
18490TIP3    H276886   6.596   6.686   4.488  0.1161 -0.1991  0.3689
18491TIP3   OH276887   6.349   4.299   6.243 -0.0657  0.4014  0.5044
18491TIP3    H176888   6.403   4.377   6.259 -1.3164  1.7663 -1.7634
18491TIP3    H276889   6.275   4.309   6.303 -1.3400  2.1136 -1.3044
18492TIP3   OH276890   5.558   0.484   5.348  0.3506  0.2329  0.4128
18492TIP3    H176891   5.557   0.506   5.441  0.4962  2.8942 -0.1657
18492TIP3    H276892   5.470   0.506   5.317  0.9590  1.5240 -0.4911
18493TIP3   OH276893   3.052   1.914  11.635  0.2555 -0.0695 -0.7387
18493TIP3    H176894   3.014   1.897  11.549 -1.2335 -1.3882  0.1523
18493TIP3    H276895   3.062   2.009  11.639 -0.3695  0.0622 -2.0609
18494TIP3   OH276896   1.062   4.145  11.317 -0.0541  0.0613  0.0322
18494TIP3    H176897   1.110   4.123  11.236  0.0988 -0.0507  0.1507
18494TIP3    H276898   1.105   4.092  11.384 -0.0564  0.3024  0.2204
18495TIP3   OH276899   0.352   2.843  12.533  0.0497 -0.4795  0.1920
18495TIP3    H176900   0.339   2.897  12.611  3.6151 -1.1150  1.3272
18495TIP3    H276901   0.321   2.897  12.461 -1.5278  0.8914  1.8592
18496TIP3   OH276902   2.367   0.309   2.077  0.7652 -0.2831 -0.0002
18496TIP3    H176903   2.398   0.219   2.078  2.8991  0.4426  0.6234
18496TIP3    H276904   2.395   0.345   2.161 -0.5024  0.8426 -0.0408
18497TIP3   OH276905   0.890   1.991   5.987 -0.3608  0.2838  0.0687
18497TIP3    H176906   0.959   1.989   6.054 -0.3681 -0.2832  0.0572
18497TIP3    H276907   0.931   2.034   5.912  0.2920 -0.9601 -0.2931
18498TIP3   OH276908   1.738   1.161  14.134  0.1299  0.1771  0.1552
18498TIP3    H176909   1.723   1.164  14.229  1.3621  0.3533  0.3552
18498TIP3    H276910   1.725   1.251  14.105  1.7016  0.5273  0.4819
18499TIP3   OH276911   0.981   4.307  16.584 -0.1165 -0.2934 -0.5271
18499TIP3    H176912   1.031   4.309  16.502 -0.9162  1.2681 -1.0150
18499TIP3    H276913   0.899   4.352  16.562 -0.3376  0.1337  1.1288
18500TIP3   OH276914   0.057   2.321   3.751 -0.1707  0.3932 -0.4138
18500TIP3    H176915   0.012   2.371   3.819 -0.6823 -0.1243 -0.3736
18500TIP3    H276916   0.150   2.334   3.771 -0.2449  2.5580 -1.2921
18501TIP3   OH276917   5.012   0.337  13.951 -0.0097  0.1987  0.2893
18501TIP3    H176918   4.999   0.310  13.860  1.4343  1.7284 -0.3821
18501TIP3    H276919   5.061   0.265  13.991  1.9471  0.8369 -0.9298
18502TIP3   OH276920   0.094   5.703   2.046  0.1261 -0.0400 -0.0585
18502TIP3    H176921   0.090   5.762   2.121 -1.7055  0.0121 -0.1617
18502TIP3    H276922   0.168   5.646   2.063 -0.9600 -0.7941  2.3630
18503TIP3   OH276923   2.125   0.299  15.806  0.2345  0.2707 -0.4316
18503TIP3    H176924   2.155   0.386  15.833 -1.6336  0.5119  0.9778
18503TIP3    H276925   2.200   0.242  15.824  1.0208  1.3819 -0.1136
18504TIP3   OH276926   3.302   6.011  14.769 -0.0296  0.6529  0.4048
18504TIP3    H176927   3.230   6.020  14.831  0.8545 -3.7182  2.3057
18504TIP3    H276928   3.373   6.065  14.806 -0.7877  1.1714  1.1125
18505TIP3   OH276929   2.517   5.861  16.310 -0.0578 -0.3868  0.6274
18505TIP3    H176930   2.453   5.798  16.275  1.1541 -2.1532  1.5239
18505TIP3    H276931   2.601   5.818  16.298  1.0662  2.2003 -1.1572
18506TIP3   OH276932   4.915   4.212  14.961  0.5439 -0.4610 -0.5203
18506TIP3    H176933   5.006   4.202  14.932  0.6644 -0.8046 -0.0358
18506TIP3    H276934   4.923   4.245  15.051  0.1879 -0.8623 -0.3429
18507TIP3   OH276935   4.214   0.125  11.240  0.1749 -0.6235 -0.0737
18507TIP3    H176936   4.244   0.216  11.231  1.7686 -1.0563  0.6056
18507TIP3    H276937   4.170   0.106  11.157  0.5859  0.4898 -0.5602
18508TIP3   OH276938   1.752   4.173  16.158  0.0114  0.4328 -0.6162
18508TIP3    H176939   1.803   4.251  16.137  0.6926  0.5704  1.4533
18508TIP3    H276940   1.816   4.102  16.159 -0.0113  0.4207  0.8886
18509TIP3   OH276941   2.348   2.290   2.517  0.0858 -0.0335  0.1483
18509TIP3    H176942   2.378   2.319   2.603 -0.7601 -1.3953  0.9303
18509TIP3    H276943   2.253   2.280   2.527  0.1132 -1.2518 -0.6022
18510TIP3   OH276944   6.738   4.651   1.228  0.2699  0.1315  0.0293
18510TIP3    H176945   6.804   4.594   1.189 -1.1999 -2.7440  1.6378
18510TIP3    H276946   6.710   4.708   1.156  1.7040 -1.2229 -1.6269
18511TIP3   OH276947   4.493   0.307   4.008 -0.2522 -0.3092  0.4512
18511TIP3    H176948   4.536   0.227   3.977 -0.5901 -0.6676  0.8925
18511TIP3    H276949   4.465   0.352   3.928  1.2825  0.1231  0.1536
18512TIP3   OH276950   2.944   6.530   3.412 -0.2195 -1.0233  0.3676
18512TIP3    H176951   2.903   6.492   3.334 -1.6446 -0.7667  0.9727
18512TIP3    H276952   2.975   6.455   3.462  1.7687 -1.1500 -0.9957
18513TIP3   OH276953   0.456   2.686  14.962  0.4211  0.1051  0.1576
18513TIP3    H176954   0.420   2.598  14.949  0.0545  0.1379  0.9378
18513TIP3    H276955   0.535   2.687  14.908 -0.6983  0.0164 -1.5216
18514TIP3   OH276956   6.109   5.273  14.624 -0.4109 -0.5195  0.2652
18514TIP3    H176957   6.054   5.346  14.594 -1.0718 -1.7169 -1.4631
18514TIP3    H276958   6.112   5.284  14.720 -0.1223  2.0260  0.0052
18515TIP3   OH276959   6.580   2.240   5.366 -0.7887 -0.1950 -0.3558
18515TIP3    H176960   6.553   2.211   5.279 -1.1966 -0.9942  0.0356
18515TIP3    H276961   6.668   2.204   5.377 -0.6156  0.1635 -0.5567
18516TIP3   OH276962   1.366   0.393   1.438 -0.0624 -0.0869 -0.0041
18516TIP3    H176963   1.315   0.456   1.489 -0.4406 -0.8688  0.6042
18516TIP3    H276964   1.386   0.439   1.356 -2.3258  0.0350 -0.5408
18517TIP3   OH276965   4.332   1.328  15.649  0.4364 -0.0975  0.6099
18517TIP3    H176966   4.305   1.398  15.590 -0.8413 -0.0950  1.2067
18517TIP3    H276967   4.386   1.271  15.594 -1.7708 -0.7740 -0.9231
18518TIP3   OH276968   0.393   1.399  12.422 -0.0739 -0.2058 -0.1296
18518TIP3    H176969   0.339   1.468  12.462  0.8817  0.7711 -0.4979
18518TIP3    H276970   0.361   1.393  12.332 -0.9686 -1.1090  0.2293
18519TIP3   OH276971   6.744   4.598  12.388 -0.4279 -0.1864  0.6573
18519TIP3    H176972   6.746   4.630  12.298  2.2990 -0.5460  0.5471
18519TIP3    H276973   6.824   4.631  12.427 -1.4201 -0.3344  2.8732
18520TIP3   OH276974   6.001   5.653   4.266 -0.2350  0.0045  0.3092
18520TIP3    H176975   5.939   5.660   4.193  0.2233 -0.5695 -0.1379
18520TIP3    H276976   5.972   5.576   4.314 -0.1080 -0.0316  0.3273
18521TIP3   OH276977   5.448   2.393   2.156 -0.6082 -0.9345 -0.4051
18521TIP3    H176978   5.400   2.465   2.197 -0.3350 -0.7978 -0.3186
18521TIP3    H276979   5.388   2.357   2.090 -0.9228 -0.9384 -0.1129
18522TIP3   OH276980   0.600   4.611  12.081 -0.4549 -0.9311 -0.7568
18522TIP3    H176981   0.675   4.648  12.128 -2.1296  1.6425 -0.0325
18522TIP3    H276982   0.621   4.622  11.988 -0.6400  1.3582 -0.5561
18523TIP3   OH276983   0.741   1.528  12.916 -0.1030 -0.0455  0.1729
18523TIP3    H176984   0.685   1.552  12.842 -1.6055  0.8016  1.5571
18523TIP3    H276985   0.792   1.607  12.933  0.2834 -0.2597  0.0161
18524TIP3   OH276986   2.919   5.474   4.018  0.0831  0.1725  0.7554
18524TIP3    H176987   2.943   5.452   3.928 -0.1508  1.1440  0.4454
18524TIP3    H276988   2.926   5.391   4.066  0.3562 -0.3206 -0.1216
18525TIP3   OH276989   6.131   6.528   2.363 -0.5594 -0.3274 -0.0737
18525TIP3    H176990   6.110   6.491   2.277 -0.0567 -1.1790  0.1727
18525TIP3    H276991   6.131   6.453   2.422 -0.4302  0.1957  0.5858
18526TIP3   OH276992   0.160   4.696  13.369  0.0440 -0.2856 -0.2443
18526TIP3    H176993   0.240   4.656  13.334  0.6518  1.2120 -0.5767
18526TIP3    H276994   0.096   4.688  13.297  0.3889  0.0323 -0.5896
18527TIP3   OH276995   5.539   1.928  16.120 -0.4176 -0.2077  0.0559
18527TIP3    H176996   5.449   1.943  16.090 -0.6967  0.3557  1.1454
18527TIP3    H276997   5.567   1.849  16.075 -1.7997 -0.9162  0.4433
18528TIP3   OH276998   2.841   6.695  16.140 -0.4728  0.5149 -0.1598
18528TIP3    H176999   2.871   6.700  16.049 -0.6369 -1.6043 -0.3554
18528TIP3    H277000   2.751   6.728  16.137 -0.7126 -0.1746 -0.9020
18529TIP3   OH277001   5.611   4.657  14.713 -0.4036 -0.3639 -0.3067
18529TIP3    H177002   5.591   4.666  14.619  0.5483 -2.4376 -0.7297
18529TIP3    H277003   5.706   4.665  14.718 -0.4364 -0.4651  0.4750
18530TIP3   OH277004   5.432   5.866  13.418 -0.7428 -0.0094 -0.1296
18530TIP3    H177005   5.371   5.907  13.479 -1.8667 -1.5894 -0.1445
18530TIP3    H277006   5.470   5.793  13.466  2.0598  1.6328  0.2584
18531TIP3   OH277007   2.329   1.789  15.240  0.8210  0.2728 -0.2845
18531TIP3    H177008   2.253   1.772  15.296  0.7131  0.7063 -0.2982
18531TIP3    H277009   2.405   1.777  15.297  0.6576  2.7820  0.5148
18532TIP3   OH277010   3.388   3.735  15.194  0.0411  0.1826 -0.3448
18532TIP3    H177011   3.390   3.736  15.290 -1.0174 -2.5862 -0.2518
18532TIP3    H277012   3.299   3.763  15.172  0.2690  0.7711 -0.5226
18533TIP3   OH277013   1.467   2.368  14.058 -0.1052  0.1789  0.5749
18533TIP3    H177014   1.431   2.351  14.144 -0.2253  0.2669  0.5418
18533TIP3    H277015   1.469   2.282  14.015 -1.7051  0.3998  0.0187
18534TIP3   OH277016   5.431   1.467   5.510  0.5055 -0.3205  0.2782
18534TIP3    H177017   5.464   1.549   5.475 -1.0202 -0.0608 -0.5950
18534TIP3    H277018   5.480   1.399   5.464 -0.6033  0.0497 -1.5087
18535TIP3   OH277019   2.449   5.654   1.007  0.0137  0.1229  0.1390
18535TIP3    H177020   2.396   5.615   0.938  1.0266  0.9901 -1.1841
18535TIP3    H277021   2.461   5.745   0.979 -0.3124  0.7342  1.9276
18536TIP3   OH277022   1.731   4.589   0.653 -0.3122 -0.3064 -0.0149
18536TIP3    H177023   1.678   4.527   0.603 -0.3378 -0.3349  0.0479
18536TIP3    H277024   1.742   4.663   0.594 -0.2539 -0.3842 -0.1028
18537TIP3   OH277025   4.781   5.896   0.288  0.0095 -0.2802 -0.0413
18537TIP3    H177026   4.751   5.984   0.265  0.5017 -0.3148 -0.8497
18537TIP3    H277027   4.712   5.861   0.344  1.5013  1.9511  3.3535
18538TIP3   OH277028   0.075   1.592   0.426 -0.7708 -0.9019 -0.4505
18538TIP3    H177029   0.049   1.626   0.511 -1.7802  0.7886 -1.4077
18538TIP3    H277030   0.071   1.496   0.436 -1.7601 -0.7094  1.1131
18539TIP3   OH277031   5.073   6.234   1.594  0.5414  0.3235  0.2082
18539TIP3    H177032   5.156   6.281   1.592 -0.5663  2.3707  0.6081
18539TIP3    H277033   5.052   6.226   1.687  0.5294 -0.6365  0.1252
18540TIP3   OH277034   5.901   6.189  11.692 -0.0200 -0.3467 -0.3935
18540TIP3    H177035   5.886   6.245  11.616 -0.0945 -0.9172 -0.7976
18540TIP3    H277036   5.965   6.237  11.745  0.9018 -0.4868 -1.3771
18541TIP3   OH277037   2.621   5.073  14.075  0.2574 -0.1861 -0.1228
18541TIP3    H177038   2.625   5.096  13.982 -1.3581  2.0955  0.3480
18541TIP3    H277039   2.528   5.058  14.092  0.4117  0.4758  1.3838
18542TIP3   OH277040   2.628   2.428  11.011 -0.5150 -0.5156 -0.0295
18542TIP3    H177041   2.611   2.506  10.958  1.3964 -0.4953 -0.6218
18542TIP3    H277042   2.602   2.355  10.956 -0.4500 -0.3991 -0.2131
18543TIP3   OH277043   6.772   3.579  11.716  0.6693 -0.3275 -0.0476
18543TIP3    H177044   6.774   3.663  11.670 -0.4258 -0.3337 -0.1245
18543TIP3    H277045   6.728   3.520  11.655  0.5223 -0.6988  0.4192
18544TIP3   OH277046   5.815   3.204   5.481 -0.6085  0.1550 -0.2915
18544TIP3    H177047   5.722   3.184   5.467 -0.7097 -0.4824  1.1728
18544TIP3    H277048   5.815   3.262   5.558  0.1655  0.5573 -0.5954
18545TIP3   OH277049   3.818   5.795   5.639 -0.5887 -0.6561 -0.3136
18545TIP3    H177050   3.858   5.710   5.655 -0.1352 -0.3357  0.2707
18545TIP3    H277051   3.797   5.829   5.726  0.0015  0.1959 -0.4910
18546TIP3   OH277052   5.029   2.433   3.475 -0.4558 -0.0842  0.3171
18546TIP3    H177053   5.021   2.470   3.562  0.3511 -1.2993  0.9363
18546TIP3    H277054   5.098   2.484   3.433 -2.1605  1.7552 -0.3194
18547TIP3   OH277055   4.860   4.531  10.347  0.3721  0.1883  1.0230
18547TIP3    H177056   4.889   4.622  10.338  0.2168  0.2648  1.3085
18547TIP3    H277057   4.781   4.526  10.293 -0.4544  0.6019  2.2023
18548TIP3   OH277058   0.027   1.694  12.928 -0.4011 -0.2994  0.1724
18548TIP3    H177059   0.106   1.736  12.893  0.1810 -1.0938  0.5044
18548TIP3    H277060  -0.009   1.757  12.990 -1.6278  1.2697 -2.0683
18549TIP3   OH277061   2.898   2.086   3.655 -0.1741  0.2935  0.5057
18549TIP3    H177062   2.866   2.174   3.635 -0.4124 -0.0257 -0.5510
18549TIP3    H277063   2.853   2.029   3.593 -0.9154 -0.7326  1.9588
18550TIP3   OH277064   1.051   3.170  15.337 -0.0901 -0.2245  0.2505
18550TIP3    H177065   1.055   3.108  15.410  0.0658 -0.1679  0.2918
18550TIP3    H277066   0.965   3.156  15.297  0.0405 -0.6321  0.1154
18551TIP3   OH277067   5.699   1.609  11.501  0.5095  0.1236  0.0874
18551TIP3    H177068   5.721   1.674  11.434  1.8709  0.7833  1.1310
18551TIP3    H277069   5.617   1.639  11.539  0.2320  0.2746 -0.6356
18552TIP3   OH277070   4.846   2.520  16.269 -0.0931  0.3811  0.3568
18552TIP3    H177071   4.769   2.538  16.215  0.1856 -0.2262 -0.2483
18552TIP3    H277072   4.908   2.590  16.246  0.9220 -1.1637 -1.8696
18553TIP3   OH277073   1.882   3.430   5.547 -0.2121 -0.2738 -0.6357
18553TIP3    H177074   1.973   3.449   5.567 -0.3620  0.6967 -0.8944
18553TIP3    H277075   1.859   3.489   5.476 -1.0788 -0.4275 -0.4943
18554TIP3   OH277076   5.363   4.081  13.078  0.0739 -0.5254  0.1046
18554TIP3    H177077   5.373   4.006  13.137 -1.9701 -0.8462  0.1002
18554TIP3    H277078   5.370   4.158  13.135  0.0142 -0.7789  0.4588
18555TIP3   OH277079   5.664   4.197   1.545  0.3285 -0.6467  0.1360
18555TIP3    H177080   5.717   4.119   1.558  0.0582 -0.8668 -0.0925
18555TIP3    H277081   5.591   4.169   1.490  0.9985  0.1019 -1.1587
18556TIP3   OH277082   6.363   5.516   3.413  0.8994  0.4980 -0.1680
18556TIP3    H177083   6.344   5.423   3.396 -2.1142  1.1196 -0.4047
18556TIP3    H277084   6.458   5.518   3.427  1.1408 -2.4973 -0.9351
18557TIP3   OH277085   4.024   5.102   5.633  0.0942 -0.2042  0.7711
18557TIP3    H177086   3.980   5.172   5.682  0.1093 -0.1292  0.6762
18557TIP3    H277087   3.986   5.021   5.668  0.5568 -0.1748  1.3599
18558TIP3   OH277088   6.343   0.844  12.169 -1.1013 -0.5956 -0.2124
18558TIP3    H177089   6.328   0.750  12.181 -0.7744 -1.1236 -3.5462
18558TIP3    H277090   6.437   0.856  12.185 -1.5356 -0.4206  2.3932
18559TIP3   OH277091   3.410   5.900  13.071 -0.3250 -0.5188 -0.0285
18559TIP3    H177092   3.498   5.883  13.105 -0.3081 -0.6439 -0.1375
18559TIP3    H277093   3.352   5.852  13.130 -0.2002 -1.9497 -1.0408
18560TIP3   OH277094   2.936   5.890   3.857 -0.1945 -0.2532 -0.0618
18560TIP3    H177095   2.986   5.968   3.882  1.5152 -1.4452  0.3482
18560TIP3    H277096   2.971   5.821   3.914 -1.4369 -1.3881 -0.6658
18561TIP3   OH277097   1.695   1.346  13.714 -0.3489  0.3521 -0.0891
18561TIP3    H177098   1.750   1.268  13.720  0.9223  1.2444  0.0234
18561TIP3    H277099   1.612   1.315  13.677  0.6015 -0.8123 -1.2399
18562TIP3   OH277100   2.930   2.367   2.516 -0.1852 -0.0417  0.4967
18562TIP3    H177101   2.870   2.297   2.541 -0.2830 -0.7180 -1.5536
18562TIP3    H277102   2.886   2.447   2.543 -2.3314 -0.4796 -1.4937
18563TIP3   OH277103   4.461   3.611   6.721 -0.8043 -0.4224 -0.2255
18563TIP3    H177104   4.460   3.706   6.729  0.0595 -0.5323  1.4845
18563TIP3    H277105   4.373   3.588   6.689 -0.7027  0.9962 -1.5876
18564TIP3   OH277106   5.010   0.546   4.604  0.6321 -0.3209  0.2474
18564TIP3    H177107   4.989   0.562   4.512 -0.3268  0.3039  0.5607
18564TIP3    H277108   4.925   0.529   4.645  1.4258 -5.2597  0.1770
18565TIP3   OH277109   4.887   3.598  11.021  1.1873  0.0531  1.2088
18565TIP3    H177110   4.833   3.522  11.001 -1.4141  1.8735  1.1158
18565TIP3    H277111   4.970   3.561  11.051  0.3090 -2.7983  0.2842
18566TIP3   OH277112   3.718   1.396  12.065 -0.2198  0.8446 -0.3986
18566TIP3    H177113   3.731   1.355  12.151 -0.6174  0.8824 -0.3153
18566TIP3    H277114   3.791   1.365  12.012 -0.5462 -0.0264 -0.3589
18567TIP3   OH277115   2.616   6.523   3.261  0.0487 -0.3930 -0.0336
18567TIP3    H177116   2.582   6.611   3.248  0.2038  0.0713  2.4356
18567TIP3    H277117   2.568   6.489   3.336 -0.0290 -2.4521 -0.9629
18568TIP3   OH277118   1.489   1.135   5.865 -0.2996 -0.1467  0.3750
18568TIP3    H177119   1.506   1.227   5.886  0.0566  0.0563 -0.8029
18568TIP3    H277120   1.489   1.091   5.950 -1.6661  1.1309  1.0736
18569TIP3   OH277121   3.165   3.835   1.210 -0.4838 -0.8804  0.6454
18569TIP3    H177122   3.132   3.776   1.142  0.1813 -0.8748  0.3055
18569TIP3    H277123   3.108   3.911   1.206  0.4032 -0.2640 -0.8836
18570TIP3   OH277124   2.814   2.313   3.562 -0.2948  0.5057  0.1166
18570TIP3    H177125   2.861   2.333   3.480  0.2667  0.4410  0.4227
18570TIP3    H277126   2.787   2.399   3.595 -2.1728  0.4247 -1.0964
18571TIP3   OH277127   1.710   5.192  16.918  0.2397  0.0054  0.1044
18571TIP3    H177128   1.628   5.242  16.913  0.1896  0.0424  1.0687
18571TIP3    H277129   1.685   5.101  16.905  0.3122  0.2080 -1.5355
18572TIP3   OH277130   3.241   2.954  14.110  0.2650  0.1556  0.1319
18572TIP3    H177131   3.153   2.984  14.087 -0.5107 -2.3449 -0.2752
18572TIP3    H277132   3.239   2.859  14.096  2.5907 -0.1431  1.5165
18573TIP3   OH277133   4.823   3.181  15.425 -0.9695  0.0895  0.3634
18573TIP3    H177134   4.839   3.089  15.404 -0.3410 -0.1462  1.7798
18573TIP3    H277135   4.733   3.197  15.395 -0.8847 -0.8216 -0.4079
18574TIP3   OH277136   4.086   4.949  12.803  0.4151  0.4481  0.0266
18574TIP3    H177137   4.104   5.024  12.747  0.8206  0.2205 -0.1540
18574TIP3    H277138   4.034   4.984  12.875 -0.3308  0.6987 -0.6253
18575TIP3   OH277139   1.482   3.594  10.785 -0.0407  1.0419  0.2819
18575TIP3    H177140   1.447   3.678  10.815 -0.3218  1.5956 -1.5397
18575TIP3    H277141   1.567   3.616  10.747  0.4996  0.2892  1.0365
18576TIP3   OH277142   2.970   3.424   0.447  0.7158 -0.1163 -0.0810
18576TIP3    H177143   2.988   3.481   0.372  0.0240  1.1623  0.7214
18576TIP3    H277144   2.877   3.436   0.465 -0.0738 -3.4900 -1.5224
18577TIP3   OH277145   3.414   6.349   3.900  0.2712 -0.2334  0.7011
18577TIP3    H177146   3.493   6.299   3.921 -0.1903 -0.3907  2.1060
18577TIP3    H277147   3.430   6.382   3.811  1.3464 -1.3621  0.4475
18578TIP3   OH277148   1.169   1.343  12.701 -0.1478 -0.2542  0.1077
18578TIP3    H177149   1.213   1.314  12.781 -0.1884 -0.6996 -0.0276
18578TIP3    H277150   1.125   1.424  12.725 -0.0272 -0.3035  0.4942
18579TIP3   OH277151   6.246   0.788  16.813  0.0094  0.2183 -0.2278
18579TIP3    H177152   6.318   0.754  16.760  0.7283 -1.0663  1.5122
18579TIP3    H277153   6.167   0.762  16.766  0.6184 -1.5413 -0.3194
18580TIP3   OH277154   1.676   4.695  16.455  0.1270 -0.1787  0.1194
18580TIP3    H177155   1.677   4.711  16.360 -1.7661  1.5280  0.3552
18580TIP3    H277156   1.730   4.765  16.492 -0.5582  0.1772  0.4457
18581TIP3   OH277157   5.195   2.394   2.865  0.0206 -0.6699 -0.2546
18581TIP3    H177158   5.276   2.442   2.850 -1.4370  1.6535 -1.0601
18581TIP3    H277159   5.185   2.393   2.960 -0.0337  0.8546 -0.2331
18582TIP3   OH277160   2.653   3.349  16.777  0.1682 -0.4105 -0.1054
18582TIP3    H177161   2.593   3.379  16.709  0.6312  0.1334 -0.2771
18582TIP3    H277162   2.735   3.395  16.759  0.5595 -0.9519  0.2808
18583TIP3   OH277163   6.454   3.762   3.714  0.6510  0.1607 -0.0870
18583TIP3    H177164   6.388   3.760   3.645  0.1703  1.6110  0.3215
18583TIP3    H277165   6.404   3.770   3.795  1.2091 -1.7329  0.4671
18584TIP3   OH277166   0.550   0.345   2.279 -0.0715  0.6086 -0.0383
18584TIP3    H177167   0.552   0.417   2.342 -1.6458  0.0807  0.6391
18584TIP3    H277168   0.489   0.373   2.212  0.5560  0.5812 -0.6255
18585TIP3   OH277169   2.246   3.075   4.975  0.5378  0.2258 -0.3283
18585TIP3    H177170   2.220   3.120   4.894 -2.0012  1.2147  0.9737
18585TIP3    H277171   2.327   3.118   5.001 -0.4452  2.2637 -0.5421
18586TIP3   OH277172   4.425   5.075  13.494  0.0291  0.0948  0.2064
18586TIP3    H177173   4.443   5.168  13.501  1.6007  0.1640 -3.2594
18586TIP3    H277174   4.330   5.069  13.483 -0.1491  1.2380  1.0910
18587TIP3   OH277175   3.714   1.260  12.679  0.2301 -0.6422  0.0622
18587TIP3    H177176   3.664   1.200  12.624 -0.9059 -0.8978  1.3529
18587TIP3    H277177   3.672   1.255  12.765  1.8493 -0.0945  0.9058
18588TIP3   OH277178   6.206   5.657   2.890 -0.1381 -0.2078  0.0653
18588TIP3    H177179   6.181   5.572   2.924 -1.5808 -0.1229 -0.7445
18588TIP3    H277180   6.181   5.655   2.798  0.2118  0.9349 -0.0701
18589TIP3   OH277181   0.795   0.615  14.689 -0.2838 -0.2455  0.3561
18589TIP3    H177182   0.862   0.546  14.691  3.3469  2.9752 -2.0389
18589TIP3    H277183   0.802   0.657  14.775  0.6277 -0.0898  0.2112
18590TIP3   OH277184   4.831   3.939  15.927  0.1304  0.1704  0.1626
18590TIP3    H177185   4.738   3.959  15.936  0.1072  0.9257 -1.4784
18590TIP3    H277186   4.876   4.008  15.977 -0.1885 -0.3390  1.1621
18591TIP3   OH277187   0.390   2.809   2.662 -0.2787 -0.7278 -0.3660
18591TIP3    H177188   0.411   2.836   2.751  0.5256 -0.5502 -0.5971
18591TIP3    H277189   0.401   2.889   2.610  2.6983 -1.5848 -1.1521
18592TIP3   OH277190   2.004   4.521   3.232 -0.3148  0.6622  0.3630
18592TIP3    H177191   1.969   4.584   3.294  0.2649  1.0738  0.2721
18592TIP3    H277192   2.073   4.475   3.281 -2.1510 -1.3885  1.1318
18593TIP3   OH277193   4.552   0.475  15.264  0.1011 -0.4739 -0.1221
18593TIP3    H177194   4.622   0.540  15.272  0.1682 -0.1813 -2.6456
18593TIP3    H277195   4.594   0.392  15.287  0.2099  0.2172  2.3413
18594TIP3   OH277196   6.696   3.438  16.826 -0.4862  0.0990 -0.3335
18594TIP3    H177197   6.656   3.367  16.776 -0.4701 -0.0866 -0.0846
18594TIP3    H277198   6.680   3.517  16.774  0.3914 -0.2299 -1.1155
18595TIP3   OH277199   1.723   1.951   1.024 -0.2974 -0.0836  0.3330
18595TIP3    H177200   1.680   1.990   0.948 -0.7811  0.4915  0.8943
18595TIP3    H277201   1.690   2.001   1.098  1.2558  0.2794  0.7984
18596TIP3   OH277202   2.634   2.275  11.278  0.2098  0.0153  0.5439
18596TIP3    H177203   2.597   2.307  11.195 -0.4395 -1.7898  0.1146
18596TIP3    H277204   2.601   2.186  11.286 -1.9378  1.0329  4.1118
18597TIP3   OH277205   5.401   2.913   1.080 -0.6218 -0.4888  0.3178
18597TIP3    H177206   5.444   2.827   1.081 -0.5369 -0.4658 -1.0443
18597TIP3    H277207   5.434   2.957   1.158 -0.7271 -1.7303  1.0703
18598TIP3   OH277208   3.680   6.668  13.012 -0.5766  0.1115 -0.0772
18598TIP3    H177209   3.771   6.693  12.999 -0.0248 -1.2113  1.1256
18598TIP3    H277210   3.646   6.655  12.924  0.7492 -0.6020 -0.5013
18599TIP3   OH277211   6.004   6.770  16.330 -0.0154 -0.0239 -0.2524
18599TIP3    H177212   6.064   6.699  16.353  0.1009 -0.0972 -0.7907
18599TIP3    H277213   6.060   6.847  16.325  0.2004 -0.2703 -1.7369
18600TIP3   OH277214   4.061   6.007  15.222  0.5456 -0.6914  0.5892
18600TIP3    H177215   4.072   5.937  15.158 -1.5683 -1.2236  0.7565
18600TIP3    H277216   4.015   5.965  15.295 -1.4844  1.0537  0.3518
18601TIP3   OH277217   4.815   3.335   1.403  0.3521 -0.4776 -0.1764
18601TIP3    H177218   4.865   3.355   1.324 -0.4797  1.9399 -0.1319
18601TIP3    H277219   4.879   3.339   1.474  0.4643  0.8045 -0.3364
18602TIP3   OH277220   5.819   6.059   4.268  0.0568 -0.5275 -0.2310
18602TIP3    H177221   5.853   6.128   4.211 -0.5041  2.1885  2.5399
18602TIP3    H277222   5.726   6.054   4.248 -0.0260  0.0084  0.0139
18603TIP3   OH277223   0.535   2.140  16.298 -0.3684 -0.3112 -0.3320
18603TIP3    H177224   0.607   2.091  16.259 -0.7365 -2.1967  1.2540
18603TIP3    H277225   0.571   2.175  16.380  0.0499  2.5930 -1.6987
18604TIP3   OH277226   0.204   4.190  17.120  0.7090  0.2329  0.2507
18604TIP3    H177227   0.160   4.237  17.191 -0.5519 -2.0940  1.0920
18604TIP3    H277228   0.197   4.249  17.045  0.8327  2.1542  1.7035
18605TIP3   OH277229   5.614   1.147  11.387 -0.0780  0.4713 -0.4745
18605TIP3    H177230   5.546   1.109  11.332 -1.3423  2.1227 -0.0772
18605TIP3    H277231   5.696   1.119  11.346 -0.9663 -1.7308 -0.8187
18606TIP3   OH277232   5.898   0.369   2.667 -0.0310 -0.0734 -0.0603
18606TIP3    H177233   5.922   0.278   2.648  0.3581 -0.3652  1.7448
18606TIP3    H277234   5.978   0.419   2.649 -0.4853  0.0653 -1.8807
18607TIP3   OH277235   6.576   4.212  12.030 -0.7485  0.0293  0.4459
18607TIP3    H177236   6.584   4.296  12.075 -0.6756 -1.5719  3.5553
18607TIP3    H277237   6.487   4.212  11.995 -0.6914  1.4726  0.2704
18608TIP3   OH277238   3.259   3.067   2.681  0.6003  0.0993 -0.4386
18608TIP3    H177239   3.352   3.091   2.676  0.5272  0.3886 -0.4531
18608TIP3    H277240   3.229   3.071   2.590  0.6730 -0.3999 -0.4834
18609TIP3   OH277241   5.764   1.689  13.958 -0.4717  0.4700 -0.2824
18609TIP3    H177242   5.814   1.643  13.891  0.5545  1.2401 -0.0586
18609TIP3    H277243   5.705   1.746  13.908  0.2373  0.9853 -0.5459
18610TIP3   OH277244   5.901   1.618  17.065  0.6306 -0.2739  0.2270
18610TIP3    H177245   5.843   1.694  17.070  0.7184 -0.1131 -1.1616
18610TIP3    H277246   5.891   1.575  17.150  0.7195  1.3815  1.1096
18611TIP3   OH277247   0.191   2.765  13.909  0.1896  0.4512 -0.0506
18611TIP3    H177248   0.165   2.687  13.959 -0.1002 -0.5921 -1.7875
18611TIP3    H277249   0.264   2.736  13.854  0.2691  1.4828 -0.5060
18612TIP3   OH277250   4.632   1.030   0.049 -0.0713  0.5525 -0.3124
18612TIP3    H177251   4.545   1.069   0.041 -0.3034  0.2011  0.4334
18612TIP3    H277252   4.624   0.967   0.121  0.2647 -0.9223 -1.5331
18613TIP3   OH277253   3.005   6.514   2.466 -0.4472  0.0205 -0.4664
18613TIP3    H177254   3.075   6.506   2.531  1.1147  1.6696 -1.9062
18613TIP3    H277255   2.945   6.442   2.486  1.9068 -1.7263  0.4968
18614TIP3   OH277256   4.474   4.675  10.049  0.1126 -0.0389 -0.0647
18614TIP3    H177257   4.512   4.753  10.089  0.5427  1.0350 -2.4699
18614TIP3    H277258   4.543   4.609  10.053 -1.0102 -1.0659  4.0138
18615TIP3   OH277259   3.630   5.449   5.487 -0.3368 -0.3914  0.2057
18615TIP3    H177260   3.651   5.359   5.462 -1.8424 -0.5805 -0.4386
18615TIP3    H277261   3.702   5.476   5.544  0.4924 -1.7540 -0.1815
18616TIP3   OH277262   0.697   5.599  10.981 -0.3177 -0.0768 -0.7216
18616TIP3    H177263   0.701   5.507  11.007 -2.9662 -0.1873 -0.5979
18616TIP3    H277264   0.650   5.598  10.897  0.4903  1.0852 -1.2046
18617TIP3   OH277265   4.206   5.065  11.235 -0.1573  0.2351  0.0336
18617TIP3    H177266   4.264   4.992  11.210 -0.5330 -0.4825  1.2351
18617TIP3    H277267   4.150   5.077  11.158 -0.9244 -1.5847  0.2777
18618TIP3   OH277268   4.653   1.617   0.942 -0.6718 -0.5391  0.1420
18618TIP3    H177269   4.614   1.535   0.972  0.0162 -1.1066 -0.4966
18618TIP3    H277270   4.678   1.662   1.023 -2.4948 -0.2176  0.5641
18619TIP3   OH277271   6.132   6.553   3.331 -0.2525 -0.3177 -0.7572
18619TIP3    H177272   6.173   6.633   3.299  0.7117 -0.9727 -1.1848
18619TIP3    H277273   6.199   6.511   3.386 -0.6552 -0.9494 -0.7348
18620TIP3   OH277274   4.452   4.993   5.632 -0.1533 -0.3236 -0.7658
18620TIP3    H177275   4.492   4.930   5.693  0.1662 -0.1541 -0.7976
18620TIP3    H277276   4.509   4.991   5.555  0.1369  0.3631 -0.5731
18621TIP3   OH277277   6.444   0.427   5.540 -0.2574  0.0629  0.2089
18621TIP3    H177278   6.445   0.431   5.636 -0.3419 -0.1419  0.2198
18621TIP3    H277279   6.352   0.437   5.517 -0.1859  0.5300  0.1282
18622TIP3   OH277280   5.408   1.184  15.195  0.7693 -0.7218  0.2971
18622TIP3    H177281   5.467   1.137  15.254  2.1112  0.6851  0.1236
18622TIP3    H277282   5.333   1.207  15.249  1.1952 -0.9630  1.0014
18623TIP3   OH277283   5.282   5.186  13.966  0.0277 -0.2060  0.6237
18623TIP3    H177284   5.220   5.240  13.918  1.2802  1.1636  0.5252
18623TIP3    H277285   5.228   5.117  14.006 -1.5479  1.0261  0.6535
18624TIP3   OH277286   2.589   5.382  11.854  0.3262 -0.0166  0.1783
18624TIP3    H177287   2.639   5.388  11.936 -0.4658  0.3886  0.6332
18624TIP3    H277288   2.631   5.445  11.795  0.2869  0.3995  0.5925
18625TIP3   OH277289   3.601   4.533   3.129 -0.1591 -0.2184 -0.3370
18625TIP3    H177290   3.533   4.597   3.150  0.7691 -0.2372  2.8594
18625TIP3    H277291   3.605   4.475   3.204  1.5804 -1.8366 -1.6181
18626TIP3   OH277292   1.396   6.765   5.098 -0.2448 -0.1168  0.4678
18626TIP3    H177293   1.474   6.710   5.096 -0.4555 -0.4944  1.8022
18626TIP3    H277294   1.369   6.772   5.006  1.2584 -0.1020  0.0110
18627TIP3   OH277295   3.643   3.359  13.292 -0.0170 -0.0958 -0.1926
18627TIP3    H177296   3.689   3.351  13.376  2.6674 -2.8416 -1.8147
18627TIP3    H277297   3.637   3.453  13.276  0.4703  0.4211  2.5142
18628TIP3   OH277298   0.952   0.381   6.122 -0.0970  0.1610 -0.2235
18628TIP3    H177299   0.864   0.394   6.085 -0.4574  0.8948  0.8527
18628TIP3    H277300   0.951   0.290   6.152 -0.4101  0.0965 -0.4193
18629TIP3   OH277301   4.998   0.851  12.688  0.5565  0.7262 -0.1501
18629TIP3    H177302   5.084   0.847  12.645  0.6381  0.5302  0.0302
18629TIP3    H277303   4.974   0.759  12.703  0.5405  0.7957  0.2478
18630TIP3   OH277304   1.609   6.351  13.734  0.0158  0.0076 -0.4114
18630TIP3    H177305   1.641   6.286  13.671  0.1121 -0.4306  0.0828
18630TIP3    H277306   1.540   6.398  13.687  0.9057  0.4848 -1.2416
18631TIP3   OH277307   2.656   0.446   3.254 -0.0806 -0.0609  0.3299
18631TIP3    H177308   2.664   0.501   3.332  1.6195  0.3426 -0.0943
18631TIP3    H277309   2.706   0.367   3.275 -1.1716 -0.7515  0.3371
18632TIP3   OH277310   2.575   5.723   0.678  0.2481  0.2319  0.2418
18632TIP3    H177311   2.638   5.661   0.715  0.7307  0.1909 -0.6217
18632TIP3    H277312   2.563   5.789   0.746  0.2651 -0.4380  0.8968
18633TIP3   OH277313   0.432   1.907  15.038  0.3550 -0.1851  0.0034
18633TIP3    H177314   0.442   1.979  15.100 -1.0752  1.8699 -2.1000
18633TIP3    H277315   0.521   1.877  15.022  0.9945  1.2921  0.6980
18634TIP3   OH277316   5.000   2.365   0.740 -0.1526  0.2512  0.1000
18634TIP3    H177317   5.072   2.308   0.765  1.2573  2.3451  0.9435
18634TIP3    H277318   4.993   2.356   0.645  1.3011  0.1230  0.0056
18635TIP3   OH277319   4.471   3.856   0.086  0.1500  0.2351 -0.2676
18635TIP3    H177320   4.382   3.875   0.113  0.0469  0.6648 -0.8977
18635TIP3    H277321   4.508   3.941   0.061  0.5231 -0.0295 -0.6273
18636TIP3   OH277322   0.340   1.058  12.885 -0.6568 -0.1533  0.2131
18636TIP3    H177323   0.245   1.058  12.869 -0.2990 -0.9614 -2.0940
18636TIP3    H277324   0.373   1.132  12.833 -0.0200  0.0640  0.9263
18637TIP3   OH277325   2.044   3.990  15.720  0.0626  0.4867  0.5984
18637TIP3    H177326   2.127   3.993  15.673 -0.2287  0.6263  0.0937
18637TIP3    H277327   2.065   4.024  15.807  0.8695 -0.9479  0.9772
18638TIP3   OH277328   2.801   4.968  11.302  0.0701 -0.6995  0.8391
18638TIP3    H177329   2.810   5.032  11.373  1.8869 -0.5535  0.4998
18638TIP3    H277330   2.816   5.019  11.223 -0.2112 -1.2107  0.4570
18639TIP3   OH277331   1.293   6.251   3.440  0.9651 -0.0594 -0.5048
18639TIP3    H177332   1.258   6.293   3.362  2.2305  1.3730 -0.3319
18639TIP3    H277333   1.288   6.157   3.422  0.6784  0.2455 -2.0474
18640TIP3   OH277334   0.118   5.466  11.933 -0.0373  0.8782 -0.7308
18640TIP3    H177335   0.094   5.538  11.874  0.8245  0.1373 -2.0239
18640TIP3    H277336   0.093   5.387  11.885  1.4834  0.2340 -0.4997
18641TIP3   OH277337   1.360   3.077  13.241 -0.3022  0.1375 -0.1593
18641TIP3    H177338   1.416   3.147  13.207  0.3582 -1.5863 -2.8017
18641TIP3    H277339   1.376   3.077  13.335  1.2545  2.1801 -0.3874
18642TIP3   OH277340   4.703   0.603  14.031  0.3352 -0.1608 -0.8004
18642TIP3    H177341   4.684   0.673  13.968  0.8922 -0.2308 -1.0489
18642TIP3    H277342   4.617   0.566  14.051 -0.1924  1.8243  0.7856
18643TIP3   OH277343   5.597   3.695   0.869 -0.3014 -0.0147  0.4162
18643TIP3    H177344   5.617   3.786   0.847  1.1235 -0.0713  1.4140
18643TIP3    H277345   5.520   3.700   0.926 -1.7351  0.3780 -1.5090
18644TIP3   OH277346   2.802   6.328   4.034  0.0050  0.0917 -0.3317
18644TIP3    H177347   2.714   6.293   4.022  0.0083  0.3188 -1.0341
18644TIP3    H277348   2.845   6.315   3.949  0.8246 -0.5205  0.1724
18645TIP3   OH277349   4.194   6.130  17.001  0.6764 -0.2595 -0.7365
18645TIP3    H177350   4.204   6.177  16.919  0.4230 -1.0492 -1.2248
18645TIP3    H277351   4.200   6.038  16.977  2.0582 -0.4602  0.3383
18646TIP3   OH277352   6.426   1.552   5.270  0.0351  0.4458 -0.0756
18646TIP3    H177353   6.345   1.529   5.316  0.1846  1.2237  0.5886
18646TIP3    H277354   6.408   1.639   5.232  0.4157  0.4453 -0.2561
18647TIP3   OH277355   6.199   6.301   4.120 -0.4488  0.4827 -0.2473
18647TIP3    H177356   6.238   6.266   4.200 -0.4004  2.3991  0.6195
18647TIP3    H277357   6.268   6.292   4.054 -0.5926 -1.3786 -0.1703
18648TIP3   OH277358   1.967   3.955   1.270  0.1896 -0.7176 -0.9247
18648TIP3    H177359   1.880   3.922   1.246  0.3582 -2.6852  1.0058
18648TIP3    H277360   2.015   3.959   1.187 -0.8159 -2.4568 -1.6128
18649TIP3   OH277361   2.610   5.864  13.540  0.5819  0.3067  0.0646
18649TIP3    H177362   2.675   5.892  13.604  1.8200 -0.7366 -0.7106
18649TIP3    H277363   2.555   5.802  13.588  2.8539 -2.1782 -0.4367
18650TIP3   OH277364   5.863   5.416  16.884  0.0732 -0.1897  0.0173
18650TIP3    H177365   5.837   5.496  16.839  0.4752 -0.3150 -0.4546
18650TIP3    H277366   5.795   5.400  16.948  0.5221  1.0937  0.8170
18651TIP3   OH277367   3.441   3.304  16.077 -0.1901 -0.3443  0.0798
18651TIP3    H177368   3.491   3.320  15.997  0.7016  1.1645  0.9030
18651TIP3    H277369   3.393   3.386  16.091 -0.9793 -0.8973  0.6442
18652TIP3   OH277370   2.286   5.122  17.211  0.2469  0.6786 -0.3311
18652TIP3    H177371   2.377   5.130  17.181  0.1395  3.1531 -0.0761
18652TIP3    H277372   2.236   5.174  17.148 -1.2669 -2.1584 -1.5494
18653TIP3   OH277373   0.121   2.140  11.889 -0.1846 -0.4304 -0.4967
18653TIP3    H177374   0.161   2.211  11.839  0.3183  1.0058  1.8294
18653TIP3    H277375   0.029   2.165  11.897  0.5315  1.5572  2.7607
18654TIP3   OH277376   2.123   5.409   2.566 -1.0282  0.1828  0.2734
18654TIP3    H177377   2.192   5.459   2.522 -0.1817  0.5452  1.9600
18654TIP3    H277378   2.049   5.470   2.572 -1.3629 -0.0638 -1.1406
18655TIP3   OH277379   2.002   5.339   2.903 -0.0992  0.9708 -0.3885
18655TIP3    H177380   2.005   5.285   2.824  3.3516  1.3554 -0.5857
18655TIP3    H277381   2.028   5.426   2.873  1.8843  0.9765  1.2406
18656TIP3   OH277382   6.737   3.858  15.736 -0.7769  0.5261 -0.6128
18656TIP3    H177383   6.824   3.882  15.769 -0.3312 -1.3047 -0.4096
18656TIP3    H277384   6.749   3.772  15.697 -2.8078 -0.3982  0.7130
18657TIP3   OH277385   3.497   2.596   5.344  0.4544  0.7754 -0.6303
18657TIP3    H177386   3.493   2.619   5.251  2.6575  0.1675 -0.8844
18657TIP3    H277387   3.536   2.673   5.385  1.6871  0.1236 -0.5562
18658TIP3   OH277388   0.473   5.149   5.668 -0.8786  0.2471  0.4385
18658TIP3    H177389   0.486   5.097   5.589 -0.5830 -1.2881  1.4663
18658TIP3    H277390   0.381   5.175   5.666 -1.7062 -2.4665  1.1461
18659TIP3   OH277391   0.312   5.481   0.228 -0.3754 -0.0377  0.4235
18659TIP3    H177392   0.269   5.399   0.252  0.1886 -0.3155  0.4784
18659TIP3    H277393   0.286   5.495   0.136 -1.0421  0.0897  0.6248
18660TIP3   OH277394   6.771   5.133  10.605 -0.5057 -0.4796 -0.8555
18660TIP3    H177395   6.848   5.125  10.661  0.5529 -1.7856 -2.4422
18660TIP3    H277396   6.746   5.226  10.611  0.7071 -0.2157  0.2760
18661TIP3   OH277397   4.568   5.169   3.696 -0.4100  0.1020  0.2848
18661TIP3    H177398   4.508   5.229   3.740  0.4038 -0.0609  1.6382
18661TIP3    H277399   4.550   5.083   3.734  0.4861  0.0057  0.5107
18662TIP3   OH277400   5.895   0.289  15.039  0.6889 -0.2420  0.0758
18662TIP3    H177401   5.982   0.304  15.078  0.3232 -0.2497  0.9006
18662TIP3    H277402   5.872   0.201  15.066 -1.8676  1.5952  4.3223
18663TIP3   OH277403   5.678   0.338   5.780 -0.1900 -0.2127 -0.1546
18663TIP3    H177404   5.691   0.245   5.764 -1.7878 -0.6512  1.0353
18663TIP3    H277405   5.765   0.371   5.801  0.0560 -1.8367  1.4647
18664TIP3   OH277406   0.702   0.832   3.448 -0.0444  0.5210  0.0661
18664TIP3    H177407   0.739   0.793   3.369  0.5486  1.3718 -0.0867
18664TIP3    H277408   0.671   0.758   3.499  1.4337 -0.1824 -0.0238
18665TIP3   OH277409   1.785   1.055  12.866 -0.2840 -0.5303 -0.6764
18665TIP3    H177410   1.697   1.077  12.898  0.3011 -0.8804  1.2198
18665TIP3    H277411   1.804   1.124  12.802 -1.5724  0.0726 -0.4494
18666TIP3   OH277412   4.758   1.845  11.513  0.4417  0.0626  0.2099
18666TIP3    H177413   4.706   1.781  11.465 -1.6903  2.0040 -0.1415
18666TIP3    H277414   4.836   1.857  11.460  1.1901 -2.6875  0.6063
18667TIP3   OH277415   2.451   1.458  15.282  0.2468  0.1329 -0.3185
18667TIP3    H177416   2.472   1.542  15.324 -1.8733  0.7939 -0.5027
18667TIP3    H277417   2.432   1.399  15.355  0.5520  0.1646 -0.2153
18668TIP3   OH277418   3.686   2.315  13.622 -0.3587 -0.1579  0.3045
18668TIP3    H177419   3.758   2.376  13.606  0.0599 -0.1744  2.0322
18668TIP3    H277420   3.646   2.346  13.703 -2.1042 -0.3480 -0.4500
18669TIP3   OH277421   1.721   0.057  14.563  0.6215 -0.3317  0.2101
18669TIP3    H177422   1.706   0.017  14.477 -1.4965  1.3091 -0.2321
18669TIP3    H277423   1.654   0.019  14.620  0.6786  0.1589  0.6054
18670TIP3   OH277424   0.094   3.501  11.954  0.1125 -0.3409  0.3610
18670TIP3    H177425   0.072   3.497  11.861 -0.2215 -1.2563  0.4806
18670TIP3    H277426   0.099   3.595  11.972  3.3281 -0.1104 -1.3183
18671TIP3   OH277427   4.850   0.105   3.442 -0.1616  0.0599 -0.2490
18671TIP3    H177428   4.861   0.140   3.530 -1.9494  0.6021 -0.2081
18671TIP3    H277429   4.793   0.029   3.453 -0.4607  0.1815 -0.9404
18672TIP3   OH277430   0.814   6.711   0.631  0.4807 -0.0274  0.0203
18672TIP3    H177431   0.815   6.776   0.701 -1.1291 -1.8067  1.7459
18672TIP3    H277432   0.723   6.710   0.600  0.6474 -0.9998 -0.4482
18673TIP3   OH277433   0.289   1.971  16.027 -0.1098 -0.2582 -0.0809
18673TIP3    H177434   0.300   2.066  16.014  1.4978 -0.4827 -0.4776
18673TIP3    H277435   0.262   1.939  15.941 -1.0550 -0.1118  0.1573
18674TIP3   OH277436   0.012   2.968  12.130 -0.2007  0.1401 -0.1531
18674TIP3    H177437  -0.019   3.022  12.203  0.1194  1.1053 -0.7198
18674TIP3    H277438  -0.063   2.964  12.070  0.0992  0.8039 -0.5813
18675TIP3   OH277439   6.198   1.220  14.676 -0.1820 -0.4875  0.3461
18675TIP3    H177440   6.228   1.186  14.760  0.9366 -2.5345 -0.8349
18675TIP3    H277441   6.152   1.146  14.636  1.5373 -0.3882 -1.9221
18676TIP3   OH277442   4.043   5.006  14.891  0.0424  0.4138  0.0031
18676TIP3    H177443   4.020   4.999  14.984 -1.4752 -2.5705 -0.5297
18676TIP3    H277444   4.112   4.941  14.879 -1.1933 -0.6902 -1.3417
18677TIP3   OH277445   1.957   3.022  13.236 -0.1682 -0.0545 -0.1595
18677TIP3    H177446   1.968   3.024  13.331 -0.0286 -0.3993 -0.1680
18677TIP3    H277447   1.887   2.957  13.222 -0.9835  0.8257 -0.2213
18678TIP3   OH277448   4.069   6.051  11.734  0.5037 -0.1424  0.3738
18678TIP3    H177449   4.157   6.026  11.707  0.2674 -1.1369  0.5049
18678TIP3    H277450   4.011   5.990  11.688 -0.3622  2.7448 -2.5425
18679TIP3   OH277451   5.503   1.078   0.162  0.0987  0.1621 -0.1114
18679TIP3    H177452   5.591   1.042   0.173 -0.3151 -0.1228  2.7013
18679TIP3    H277453   5.468   1.033   0.085  1.3644 -1.8454  0.4457
18680TIP3   OH277454   4.616   2.376  16.106 -0.0849  0.2596 -0.5091
18680TIP3    H177455   4.598   2.376  16.013  0.5462 -0.4014 -0.6362
18680TIP3    H277456   4.552   2.316  16.144 -1.9379  2.3861 -0.1862
18681TIP3   OH277457   1.372   2.882   2.477 -0.5958  0.9027  0.1014
18681TIP3    H177458   1.343   2.903   2.566 -0.0880  1.2173  0.1965
18681TIP3    H277459   1.418   2.961   2.448  0.5852  0.2478  0.1426
18682TIP3   OH277460   6.291   6.187   5.521  0.3884  0.6341  0.0432
18682TIP3    H177461   6.287   6.175   5.616 -0.7381 -1.0300 -0.1864
18682TIP3    H277462   6.365   6.246   5.507  0.3881  1.1290  1.9710
18683TIP3   OH277463   4.913   2.529   6.024 -0.2903 -0.3695 -0.3825
18683TIP3    H177464   4.994   2.548   6.072 -0.4365 -1.0391  0.1293
18683TIP3    H277465   4.942   2.507   5.936 -0.0135  0.8093 -0.5927
18684TIP3   OH277466   4.909   2.881   2.005 -0.0637  0.0351 -0.2991
18684TIP3    H177467   4.963   2.808   1.972 -1.4303 -0.0866 -2.3777
18684TIP3    H277468   4.946   2.958   1.962  0.9361  0.4966  1.3572
18685TIP3   OH277469   0.451   3.785  14.470  0.3372 -0.1728 -0.0094
18685TIP3    H177470   0.414   3.873  14.462 -0.4540 -0.4493  0.5191
18685TIP3    H277471   0.391   3.740  14.529  0.6635 -1.1132 -0.3952
18686TIP3   OH277472   5.767   6.419  13.162  0.3694  0.0531 -0.1743
18686TIP3    H177473   5.856   6.406  13.195  0.2544 -1.4410 -0.4047
18686TIP3    H277474   5.772   6.395  13.069  0.1514  1.8847 -0.6855
18687TIP3   OH277475   5.829   2.733  11.827  0.5458  0.8353 -0.2624
18687TIP3    H177476   5.908   2.698  11.786 -0.2704 -1.3604 -0.0300
18687TIP3    H277477   5.757   2.703  11.771 -0.5199 -1.5822  2.3109
18688TIP3   OH277478   4.963   6.211   2.354 -0.6794 -0.2806 -0.3711
18688TIP3    H177479   4.877   6.234   2.318 -0.5867 -1.1775 -1.1531
18688TIP3    H277480   4.998   6.295   2.385 -1.5068  0.2116 -0.7387
18689TIP3   OH277481   0.135   6.024   2.655  0.1537  0.2027  0.0741
18689TIP3    H177482   0.107   6.114   2.670 -0.5406  0.3033 -1.7587
18689TIP3    H277483   0.219   6.032   2.610  0.1000 -0.0645 -0.0748
18690TIP3   OH277484   0.431   4.521  13.663  0.0354  0.1832 -0.5960
18690TIP3    H177485   0.481   4.586  13.614 -0.0356  0.3961 -0.3856
18690TIP3    H277486   0.491   4.447  13.674  0.1670  0.2763 -0.6996
18691TIP3   OH277487   3.127   2.146   3.185 -0.0746 -0.4465  0.1274
18691TIP3    H177488   3.058   2.083   3.205 -2.1113  1.9599  1.0610
18691TIP3    H277489   3.159   2.121   3.099 -0.2148 -3.2448  0.8518
18692TIP3   OH277490   6.581   5.192   6.359 -0.1270  0.0951 -0.3855
18692TIP3    H177491   6.646   5.131   6.395 -1.7743 -1.4105  0.1509
18692TIP3    H277492   6.497   5.153   6.383 -1.2692  0.4045 -3.6956
18693TIP3   OH277493   3.637   0.597  10.448  0.3485  0.5904  0.1417
18693TIP3    H177494   3.616   0.634  10.534  1.5282  1.1752  0.1851
18693TIP3    H277495   3.730   0.616  10.435  0.6932 -1.3342 -0.3634
18694TIP3   OH277496   1.781   2.675   3.258 -0.7904 -0.1588  0.3768
18694TIP3    H177497   1.699   2.638   3.290 -2.5187  1.8562 -1.5777
18694TIP3    H277498   1.849   2.624   3.302 -3.0303 -0.0479  4.1877
18695TIP3   OH277499   3.837   0.377   6.175  0.2170  0.3199 -0.0104
18695TIP3    H177500   3.867   0.299   6.130 -0.1122  0.4026 -0.3730
18695TIP3    H277501   3.743   0.364   6.187  0.0421  0.9515 -0.6675
18696TIP3   OH277502   3.397   5.107   5.076  0.0943 -0.9044 -0.6312
18696TIP3    H177503   3.315   5.093   5.028  0.5675  3.6769 -3.0339
18696TIP3    H277504   3.458   5.045   5.036 -0.2081  1.0523 -4.3941
18697TIP3   OH277505   2.691   2.442  16.200  0.5292 -0.4610  0.2444
18697TIP3    H177506   2.643   2.424  16.119  2.0255 -0.9902 -0.5482
18697TIP3    H277507   2.640   2.510  16.244 -0.4635 -0.3872 -0.9961
18698TIP3   OH277508   1.490   1.026  14.571  0.0052  0.4151 -0.3284
18698TIP3    H177509   1.513   1.014  14.663 -1.9429 -1.5724 -0.0680
18698TIP3    H277510   1.526   1.112  14.548  3.3069 -0.4784  1.3616
18699TIP3   OH277511   6.785   0.912   0.672  0.2156 -0.2134  0.4169
18699TIP3    H177512   6.800   0.986   0.731  0.1621 -0.5227  0.8170
18699TIP3    H277513   6.835   0.840   0.710 -1.0006 -0.8174  0.9109
18700TIP3   OH277514   5.354   3.629   1.503  0.2627  0.4894 -0.6273
18700TIP3    H177515   5.340   3.547   1.551 -0.5490  0.2430 -1.2709
18700TIP3    H277516   5.427   3.611   1.445  1.7078  1.0015  0.9913
18701TIP3   OH277517   5.498   1.264   6.574 -0.3869 -0.3011  0.3926
18701TIP3    H177518   5.553   1.200   6.618  1.2886  1.4479  0.9177
18701TIP3    H277519   5.497   1.235   6.482  1.3230 -0.4257  0.3972
18702TIP3   OH277520   2.148   5.197  11.255  0.0814 -0.0057 -0.2204
18702TIP3    H177521   2.095   5.242  11.189 -2.8683 -0.7526  1.5465
18702TIP3    H277522   2.185   5.267  11.308 -1.9683  0.4774  0.6129
18703TIP3   OH277523   3.869   1.731  17.214  0.2272 -1.0665 -0.1017
18703TIP3    H177524   3.900   1.759  17.300 -0.0881 -0.0148 -0.3240
18703TIP3    H277525   3.945   1.739  17.157 -0.0540  0.0911 -0.3276
18704TIP3   OH277526   2.249   3.079   0.684 -0.2139  0.0967  0.0673
18704TIP3    H177527   2.180   3.130   0.727  0.4438  1.7374 -0.7750
18704TIP3    H277528   2.246   3.108   0.593  0.8612 -0.6374 -0.2070
18705TIP3   OH277529   1.236   2.053  11.172 -0.2214  0.6235 -0.0453
18705TIP3    H177530   1.257   2.135  11.128  2.8987 -0.7909 -1.3408
18705TIP3    H277531   1.143   2.040  11.156 -0.3476  3.0006 -1.3748
18706TIP3   OH277532   0.320   2.475  12.423  0.2546  0.1321  0.9905
18706TIP3    H177533   0.337   2.423  12.345 -1.3565  0.0868  0.6400
18706TIP3    H277534   0.344   2.419  12.496 -3.4639 -2.0138  0.7073
18707TIP3   OH277535   4.484   5.394  11.591  0.4025  0.0225  0.7030
18707TIP3    H177536   4.469   5.457  11.521 -0.1656  0.5294  1.2765
18707TIP3    H277537   4.534   5.324  11.550  0.0085  0.2829 -0.2321
18708TIP3   OH277538   1.398   6.715  11.691 -0.6077  0.0162  0.5443
18708TIP3    H177539   1.318   6.698  11.641 -0.6173 -0.9648  0.8922
18708TIP3    H277540   1.392   6.657  11.767  0.0046  0.5933  1.0472
18709TIP3   OH277541   0.906   0.221  16.498 -0.6450 -0.1402  0.1766
18709TIP3    H177542   0.976   0.221  16.433 -1.3607 -1.1326 -0.6161
18709TIP3    H277543   0.904   0.131  16.531 -1.4861 -0.0970  0.2478
18710TIP3   OH277544   6.672   6.367   6.458  0.5006 -0.2031 -0.2528
18710TIP3    H177545   6.622   6.285   6.454  0.7128 -0.3332 -0.2143
18710TIP3    H277546   6.738   6.352   6.525 -1.3471  1.0301  1.9163
18711TIP3   OH277547   3.965   5.243  16.090 -0.7338 -0.5541  0.1540
18711TIP3    H177548   4.006   5.157  16.101  1.1979  0.4008  0.5953
18711TIP3    H277549   3.975   5.263  15.997 -1.8617 -1.1248 -0.0993
18712TIP3   OH277550   3.552   1.251   0.598 -0.1582  0.5620 -0.1357
18712TIP3    H177551   3.590   1.280   0.681 -1.1995  0.9545  0.2059
18712TIP3    H277552   3.565   1.325   0.538  1.0409  0.0929 -0.4773
18713TIP3   OH277553   2.858   3.656   6.432  0.7796  0.3958  0.0328
18713TIP3    H177554   2.788   3.609   6.477  0.2629 -0.8188 -1.9800
18713TIP3    H277555   2.834   3.652   6.340  2.0707  2.4058 -0.4256
18714TIP3   OH277556   5.407   5.309   2.595 -0.2946 -0.6146 -0.3096
18714TIP3    H177557   5.335   5.325   2.655 -0.1800  0.8527 -0.5223
18714TIP3    H277558   5.366   5.300   2.509 -0.1859  1.1221 -0.5690
18715TIP3   OH277559   2.128   1.684   0.643 -0.5561 -0.3975  0.3785
18715TIP3    H177560   2.085   1.768   0.625  0.9053  0.8223  2.2966
18715TIP3    H277561   2.196   1.676   0.576 -0.6248  0.0176  0.2594
18716TIP3   OH277562   0.924   1.992  16.937 -0.7205 -0.6318 -0.2830
18716TIP3    H177563   0.980   1.917  16.916 -2.1106 -1.3357 -1.5217
18716TIP3    H277564   0.904   2.031  16.852 -0.2121  1.0141  0.3369
18717TIP3   OH277565   3.849   6.536  16.812  0.0985  0.5061  0.4347
18717TIP3    H177566   3.783   6.534  16.881  0.7246  0.9382  1.0585
18717TIP3    H277567   3.911   6.602  16.841  0.0578  1.1108 -0.8431
18718TIP3   OH277568   0.128   6.693  16.349  0.0074 -0.5890  0.0520
18718TIP3    H177569   0.148   6.724  16.261 -2.1760 -0.2699 -0.3646
18718TIP3    H277570   0.078   6.613  16.336 -0.9796 -0.1397  0.9617
18719TIP3   OH277571   0.700   6.651  11.329 -0.0968  0.0146  0.8847
18719TIP3    H177572   0.657   6.626  11.247 -0.1029  0.0405  0.8805
18719TIP3    H277573   0.752   6.728  11.306 -1.2453  0.9218  1.2183
18720TIP3   OH277574   2.480   3.865   2.157  0.3786 -0.3960 -0.1631
18720TIP3    H177575   2.520   3.860   2.244  1.0561  0.7226 -0.4138
18720TIP3    H277576   2.400   3.812   2.165  0.7243 -0.7631  0.9752
18721TIP3   OH277577   1.968   5.928   3.288  0.2158 -0.1287  0.0783
18721TIP3    H177578   1.993   6.019   3.273  0.0279  0.2302  1.7735
18721TIP3    H277579   1.894   5.934   3.349  0.7969 -1.4450  0.9314
18722TIP3   OH277580   3.902   6.183   1.672 -0.2137 -0.5010  0.2739
18722TIP3    H177581   3.975   6.139   1.715 -0.0681  2.0280  2.7549
18722TIP3    H277582   3.935   6.271   1.653 -2.5710  0.6991  1.4553
18723TIP3   OH277583   4.582   1.036  11.703 -0.1142  0.3674  0.6971
18723TIP3    H177584   4.620   0.978  11.636 -0.0796  0.2212  0.8454
18723TIP3    H277585   4.508   0.988  11.738 -1.7402  1.4876 -1.0614
18724TIP3   OH277586   4.771   0.208  15.844 -0.4619 -0.3723  0.3392
18724TIP3    H177587   4.768   0.113  15.835 -0.8627 -0.1620 -2.0024
18724TIP3    H277588   4.689   0.230  15.889 -1.4141 -0.9715 -1.0389
18725TIP3   OH277589   0.030   4.612   3.979  0.3825  0.8059  0.3901
18725TIP3    H177590  -0.010   4.525   3.975 -0.9479  1.4461 -0.9643
18725TIP3    H277591   0.044   4.635   3.887 -0.4246  2.5339  0.6915
18726TIP3   OH277592   5.104   0.595  14.931  0.4217 -0.0182 -0.0824
18726TIP3    H177593   5.109   0.522  14.870 -1.4308  1.0280 -1.5080
18726TIP3    H277594   5.175   0.654  14.904  1.0958 -0.6615  0.2682
18727TIP3   OH277595   6.368   4.783  10.766 -0.2616  0.2077  0.2589
18727TIP3    H177596   6.442   4.829  10.806 -0.1350  0.7857 -0.6334
18727TIP3    H277597   6.302   4.850  10.754  0.0471  0.2332 -1.3669
18728TIP3   OH277598   1.506   5.651  12.779 -0.0940 -0.6330  0.1159
18728TIP3    H177599   1.505   5.559  12.808  0.4052  0.0887  2.5445
18728TIP3    H277600   1.599   5.670  12.764 -0.3021 -0.8347 -1.4266
18729TIP3   OH277601   5.329   1.573  14.954 -0.3599  0.0969  0.1372
18729TIP3    H177602   5.282   1.498  14.992  0.7403 -0.3873  0.5684
18729TIP3    H277603   5.363   1.540  14.871 -0.5523  0.3611 -0.0450
18730TIP3   OH277604   3.251   1.806   2.726  0.0604  0.0398 -0.1546
18730TIP3    H177605   3.218   1.736   2.669 -1.0902 -0.1690  0.7507
18730TIP3    H277606   3.182   1.818   2.791  1.2464  0.4599  1.0486
18731TIP3   OH277607   3.756   6.470  11.609 -0.4811  0.1563  0.1416
18731TIP3    H177608   3.662   6.481  11.621 -0.6187 -0.7529 -0.0723
18731TIP3    H277609   3.786   6.554  11.574 -1.4636 -0.0284 -1.1991
18732TIP3   OH277610   1.279   0.511   2.845  0.1566 -0.1494  0.2533
18732TIP3    H177611   1.281   0.534   2.752  0.3146 -1.7481 -0.1639
18732TIP3    H277612   1.369   0.523   2.875  0.4235 -1.0075 -0.1738
18733TIP3   OH277613   6.105   1.621  12.304 -0.5015 -0.5399 -0.1243
18733TIP3    H177614   6.129   1.689  12.240 -1.8649  0.1495  0.0899
18733TIP3    H277615   6.093   1.542  12.251  1.1383 -0.6429 -0.3737
18734TIP3   OH277616   5.221   6.475  13.762  0.3918 -0.3691  0.1341
18734TIP3    H177617   5.165   6.537  13.716 -3.3256 -1.5409  2.8802
18734TIP3    H277618   5.216   6.395  13.709 -0.9193 -0.5960  0.5810
18735TIP3   OH277619   6.152   5.984  16.404 -0.4572  0.0356 -0.0911
18735TIP3    H177620   6.087   5.919  16.431 -1.2592  0.0353 -1.9009
18735TIP3    H277621   6.103   6.066  16.399  0.0637  0.3630  0.1299
18736TIP3   OH277622   3.599   5.091  16.390 -0.4450  0.6007  0.3999
18736TIP3    H177623   3.528   5.070  16.328 -0.0822 -0.5772  0.3684
18736TIP3    H277624   3.574   5.175  16.427 -1.8022  0.2714  0.2785
18737TIP3   OH277625   4.927   6.300  10.963 -0.3170 -0.6914 -0.0730
18737TIP3    H177626   4.966   6.261  10.885 -0.4661  2.1974 -1.6470
18737TIP3    H277627   4.984   6.272  11.035  1.3299 -1.2463 -1.5639
18738TIP3   OH277628   0.991   2.796   0.111  0.4090  0.8104 -0.3164
18738TIP3    H177629   1.020   2.734   0.044  1.7911 -0.2297  1.2144
18738TIP3    H277630   0.912   2.757   0.147  0.7343  0.4262 -0.0216
18739TIP3   OH277631   5.707   0.923  14.452  0.9156 -0.1349 -0.1819
18739TIP3    H177632   5.684   0.970  14.372 -0.1625 -1.1008 -0.4683
18739TIP3    H277633   5.643   0.851  14.456  1.4759 -0.5755  1.1116
18740TIP3   OH277634   0.575   4.059  11.565  0.0517 -0.3465  0.9237
18740TIP3    H177635   0.552   4.080  11.475  0.1380 -0.5031  0.8654
18740TIP3    H277636   0.492   4.034  11.606 -0.5099  2.6549  1.7114
18741TIP3   OH277637   5.425   2.435  15.485 -0.0743 -0.3100  1.0019
18741TIP3    H177638   5.499   2.383  15.516  0.6305  0.0673  0.0003
18741TIP3    H277639   5.361   2.371  15.455  2.1476 -0.6659 -3.4027
18742TIP3   OH277640   2.883   3.673  12.729 -0.6625  0.0403  0.1610
18742TIP3    H177641   2.945   3.657  12.658 -1.6371  0.3945 -0.7844
18742TIP3    H277642   2.821   3.600  12.724 -0.7345  0.0620  0.6597
18743TIP3   OH277643   1.410   4.932   2.099  0.6882 -0.4415 -0.3150
18743TIP3    H177644   1.357   4.933   2.019  0.0432 -0.8285  0.1028
18743TIP3    H277645   1.480   4.869   2.080 -0.2907 -1.6349 -0.0595
18744TIP3   OH277646   2.079   5.181   2.706  0.0430  0.0715  0.7453
18744TIP3    H177647   2.157   5.126   2.716  0.0457 -0.1973 -0.7631
18744TIP3    H277648   2.109   5.258   2.657 -0.7091 -0.2027 -0.1671
18745TIP3   OH277649   2.503   6.564  12.524  0.2755  0.6241  0.5181
18745TIP3    H177650   2.457   6.640  12.560 -2.3083 -0.7305  0.1676
18745TIP3    H277651   2.525   6.511  12.601 -1.6106 -0.2574  0.4884
18746TIP3   OH277652   6.342   0.262  15.985  0.7695 -0.2905  0.0246
18746TIP3    H177653   6.319   0.303  15.901 -0.0894  2.2534  1.4670
18746TIP3    H277654   6.260   0.225  16.017  0.7566  0.1713  0.5248
18747TIP3   OH277655   5.252   1.198  12.353  0.2664 -0.9162 -0.0819
18747TIP3    H177656   5.259   1.291  12.377  1.9444 -0.9894 -0.2498
18747TIP3    H277657   5.180   1.165  12.407  1.6663 -0.2492  2.2709
18748TIP3   OH277658   6.632   6.021  11.965 -0.0057 -0.2854  0.1688
18748TIP3    H177659   6.689   6.095  11.941 -0.2117 -0.2634 -0.2550
18748TIP3    H277660   6.551   6.037  11.917 -0.9358  0.4837  1.9508
18749TIP3   OH277661   1.322   2.201   2.257 -0.5498  0.4665 -1.1028
18749TIP3    H177662   1.250   2.201   2.321 -0.6033 -2.3250 -1.1294
18749TIP3    H277663   1.285   2.160   2.179  0.7840 -0.0890 -1.4569
18750TIP3   OH277664   4.120   1.333  13.444  0.0751  0.7627 -0.2086
18750TIP3    H177665   4.152   1.382  13.518 -0.4294 -0.5067  0.8765
18750TIP3    H277666   4.059   1.269  13.482  0.3931 -0.4072 -1.6100
18751TIP3   OH277667   5.195   6.557   0.786  0.4628 -0.3386  0.4069
18751TIP3    H177668   5.170   6.638   0.741 -0.3612 -0.0586  1.3407
18751TIP3    H277669   5.283   6.538   0.754  0.7553  1.0481  0.3386
18752TIP3   OH277670   5.622   1.189   3.631 -0.0948  0.1323 -0.2293
18752TIP3    H177671   5.683   1.115   3.629 -0.9736 -0.6908  1.7800
18752TIP3    H277672   5.676   1.264   3.654  0.5200 -0.1822 -0.6258
18753TIP3   OH277673   2.358   6.161   2.371 -0.2519 -0.7192  0.1051
18753TIP3    H177674   2.296   6.137   2.440 -0.1158  0.1955  0.5449
18753TIP3    H277675   2.423   6.091   2.372  1.7526  1.0394  3.3271
18754TIP3   OH277676   1.836   0.163  14.258 -0.0745 -0.1045  0.7627
18754TIP3    H177677   1.872   0.249  14.235  0.1566 -0.4764 -0.2766
18754TIP3    H277678   1.911   0.105  14.262 -0.5509 -0.9763 -1.8280
18755TIP3   OH277679   4.619   3.193  10.998  0.3772  0.1839 -0.2533
18755TIP3    H177680   4.526   3.214  10.993  0.6327  1.4647  0.2596
18755TIP3    H277681   4.624   3.101  10.972 -1.0381  0.0783 -0.1845
18756TIP3   OH277682   0.140   4.201   4.856 -0.3461 -0.0365  0.2665
18756TIP3    H177683   0.223   4.153   4.846 -0.4535  0.3035 -2.5463
18756TIP3    H277684   0.077   4.134   4.883  1.0064 -0.1181  3.4239
18757TIP3   OH277685   5.996   3.658   3.682 -0.2552  0.0374 -0.1049
18757TIP3    H177686   5.992   3.753   3.695 -3.7791 -0.1981  1.1147
18757TIP3    H277687   5.991   3.646   3.587  1.3984  1.0500 -0.3532
18758TIP3   OH277688   5.671   4.808   2.568  0.1466  0.2147 -0.3231
18758TIP3    H177689   5.657   4.715   2.583 -1.7462  0.2960 -1.4491
18758TIP3    H277690   5.755   4.827   2.610  0.6579 -2.0368 -0.2912
18759TIP3   OH277691   3.629   0.997  14.277 -0.3923  0.3197  0.7502
18759TIP3    H177692   3.696   1.012  14.343  0.3342  3.4407 -0.5983
18759TIP3    H277693   3.672   0.941  14.212 -0.0361 -0.0341  1.2868
18760TIP3   OH277694   2.386   5.644   5.018 -0.1224 -0.4365  0.0547
18760TIP3    H177695   2.323   5.689   4.962  0.9029 -0.3119 -1.0067
18760TIP3    H277696   2.341   5.565   5.047 -0.6599 -0.4920 -0.9293
18761TIP3   OH277697   4.401   1.020   5.571  0.5000 -0.4163 -0.2555
18761TIP3    H177698   4.396   1.063   5.486  1.1043  0.0613 -0.0534
18761TIP3    H277699   4.377   0.929   5.554 -1.2283  0.0862 -0.6129
18762TIP3   OH277700   1.971   1.842  13.643  0.1200  0.0557  0.1301
18762TIP3    H177701   1.947   1.760  13.686 -1.1336 -0.7488 -2.0330
18762TIP3    H277702   2.057   1.864  13.678  1.3204 -3.1939 -0.6596
18763TIP3   OH277703   2.445   5.134   1.468 -0.5490  0.3709  0.2568
18763TIP3    H177704   2.376   5.151   1.404 -0.2007 -0.5359 -0.3670
18763TIP3    H277705   2.495   5.061   1.431 -0.3849 -0.2112  1.5993
18764TIP3   OH277706   1.855   4.348   2.843 -0.1528  0.0401  0.4111
18764TIP3    H177707   1.892   4.369   2.758 -0.2332  1.1458  0.6397
18764TIP3    H277708   1.763   4.374   2.836 -0.0930  0.4039  0.9168
18765TIP3   OH277709   2.033   1.880   1.754 -0.1758  0.0123  0.4364
18765TIP3    H177710   2.046   1.945   1.685  0.1398 -0.0770  0.4108
18765TIP3    H277711   2.035   1.796   1.709 -1.1599  0.0041  0.3869
18766TIP3   OH277712   3.881   2.970  13.572  0.5156 -0.1499 -0.1115
18766TIP3    H177713   3.925   3.040  13.524 -2.1034  1.9093  0.3813
18766TIP3    H277714   3.823   2.929  13.507  1.4690 -1.3638 -0.2069
18767TIP3   OH277715   3.746   5.784  16.005 -0.5760  0.3841 -0.4908
18767TIP3    H177716   3.773   5.709  15.953 -0.5400 -1.1010  1.6113
18767TIP3    H277717   3.826   5.835  16.016  0.1822 -1.0564  0.9171
18768TIP3   OH277718   0.355   5.152   0.300 -0.4450  0.0706 -0.2878
18768TIP3    H177719   0.424   5.212   0.327 -1.2958  0.5506  0.8405
18768TIP3    H277720   0.383   5.121   0.214  1.5901 -0.3705  0.5013
18769TIP3   OH277721   2.079   4.814   6.252 -0.3045 -0.2419  0.2157
18769TIP3    H177722   2.139   4.875   6.210  0.5956 -0.4644  1.1320
18769TIP3    H277723   2.015   4.869   6.296  0.5031  0.0783  1.0348
18770TIP3   OH277724   1.273   5.639  14.570 -0.2825  0.6886  0.1706
18770TIP3    H177725   1.261   5.547  14.594 -0.8020  0.5813 -0.5003
18770TIP3    H277726   1.225   5.688  14.636  1.2284  0.5585  1.4146
18771TIP3   OH277727   0.797   2.821  14.543 -0.3886  0.6675 -0.3731
18771TIP3    H177728   0.845   2.784  14.468  0.3415  1.0435 -0.0991
18771TIP3    H277729   0.743   2.749  14.574 -0.1991  0.3078 -0.8543
18772TIP3   OH277730   2.876   5.872  15.992  0.4267  0.8141  0.6778
18772TIP3    H177731   2.833   5.957  15.977 -0.0563  0.3605 -0.6490
18772TIP3    H277732   2.968   5.887  15.970  0.0364  0.5967 -1.2669
18773TIP3   OH277733   2.839   1.783   5.019 -0.5537  0.0362 -0.0208
18773TIP3    H177734   2.782   1.713   4.986  0.6066 -1.5673  1.3078
18773TIP3    H277735   2.792   1.818   5.094 -0.0208 -1.0069  0.8195
18774TIP3   OH277736   2.352   0.909   4.057  0.2595  0.3039  0.1180
18774TIP3    H177737   2.388   0.936   3.972  0.1544 -0.1852 -0.0835
18774TIP3    H277738   2.395   0.826   4.075  0.3551  0.4549  0.5941
18775TIP3   OH277739   0.269   1.439  14.646 -0.3647  0.1120  0.1740
18775TIP3    H177740   0.314   1.355  14.650 -0.1782  0.0271 -2.7538
18775TIP3    H277741   0.177   1.417  14.640 -0.5559  0.2161  2.2437
18776TIP3   OH277742   4.073   1.732  12.854  0.6875  0.0583 -0.0757
18776TIP3    H177743   4.084   1.700  12.943  0.2364 -1.0505 -0.4059
18776TIP3    H277744   4.160   1.723  12.814  0.6256 -0.5514 -0.0884
18777TIP3   OH277745   4.791   0.367   5.959 -0.0138  0.2606 -0.0630
18777TIP3    H177746   4.826   0.339   6.044  2.0069  0.7369 -0.7194
18777TIP3    H277747   4.778   0.285   5.911  3.1311  0.1866 -0.9164
18778TIP3   OH277748   4.231   5.279   4.367  0.3974 -0.1187 -0.3767
18778TIP3    H177749   4.236   5.349   4.433 -0.2136 -1.8945  1.6037
18778TIP3    H277750   4.316   5.236   4.372  0.6612  0.2880 -1.3755
18779TIP3   OH277751   4.333   0.870   4.927 -0.1470 -0.5850  0.0284
18779TIP3    H177752   4.405   0.919   4.968 -0.5308  0.3081 -0.3389
18779TIP3    H277753   4.376   0.794   4.888  1.0310  1.1685 -2.2984
18780TIP3   OH277754   0.278   4.499  12.343 -1.0553  0.2747 -0.5242
18780TIP3    H177755   0.238   4.579  12.309 -0.7520  0.4555 -0.4559
18780TIP3    H277756   0.292   4.517  12.436  1.2973  1.0713 -1.0100
18781TIP3   OH277757   5.468   2.452  12.361  0.6792  0.8614 -0.0763
18781TIP3    H177758   5.462   2.517  12.291 -1.7081  0.4151 -0.3041
18781TIP3    H277759   5.382   2.452  12.402  1.1535 -0.9935  0.9922
18782TIP3   OH277760   5.800   1.053  15.182  0.5473 -0.0706 -0.2151
18782TIP3    H177761   5.882   1.073  15.136  1.6107 -0.6693  1.3761
18782TIP3    H277762   5.739   1.028  15.112  1.7411  0.2933 -1.4184
18783TIP3   OH277763   1.494   1.360   1.862  0.3257 -0.6953 -0.3784
18783TIP3    H177764   1.542   1.278   1.868 -0.0132 -0.9161 -0.7225
18783TIP3    H277765   1.453   1.370   1.948  2.8505  0.6378  0.7288
18784TIP3   OH277766   6.301   0.367  13.522 -0.3961 -0.3268 -0.3754
18784TIP3    H177767   6.338   0.441  13.570  1.8076 -1.7405  0.1637
18784TIP3    H277768   6.296   0.398  13.432  1.0138  0.3193 -0.2501
18785TIP3   OH277769   4.343   0.155   5.410  0.2943  0.4975  0.6586
18785TIP3    H177770   4.261   0.201   5.394  0.6372  0.8102 -0.3081
18785TIP3    H277771   4.347   0.089   5.341  0.8125  0.4456  0.7380
18786TIP3   OH277772   0.075   5.459   4.701 -0.2756  0.2781 -0.2356
18786TIP3    H177773   0.144   5.500   4.649  1.7876 -2.1405  0.5385
18786TIP3    H277774   0.044   5.386   4.647 -2.7210  1.6979 -0.8531
18787TIP3   OH277775   0.056   3.469   1.437 -0.0894 -0.1224  0.5342
18787TIP3    H177776   0.029   3.510   1.520  1.2541  1.9221  0.0038
18787TIP3    H277777   0.012   3.520   1.370 -2.7745 -3.0202 -0.0159
18788TIP3   OH277778   5.198   0.897   0.619  0.3033 -0.5114 -0.1698
18788TIP3    H177779   5.290   0.911   0.641  0.1491  0.4088 -0.0763
18788TIP3    H277780   5.184   0.803   0.629  1.5353 -0.8301 -1.3672
18789TIP3   OH277781   6.677   0.557  13.932  0.3334 -0.2143  0.6917
18789TIP3    H177782   6.626   0.561  13.851  0.7474  0.9125  0.4762
18789TIP3    H277783   6.615   0.528  13.999  0.0216 -1.2829 -0.0430
18790TIP3   OH277784   1.628   5.295   2.286  0.2838 -0.1845  0.3894
18790TIP3    H177785   1.538   5.304   2.317  0.4433 -0.7042  1.0061
18790TIP3    H277786   1.640   5.370   2.227 -0.6751 -0.3298 -0.0052
18791TIP3   OH277787   5.876   2.132  12.361 -0.1306  0.5076 -0.0113
18791TIP3    H177788   5.814   2.193  12.320  1.4265  2.0253 -0.1505
18791TIP3    H277789   5.930   2.101  12.289 -0.8924 -1.0433  0.0664
18792TIP3   OH277790   3.056   4.570   1.383  0.5391  0.2494 -0.3696
18792TIP3    H177791   2.967   4.544   1.406  0.4735 -0.0868 -1.0253
18792TIP3    H277792   3.112   4.517   1.440  0.2912  1.2041  0.7829
18793TIP3   OH277793   3.182   6.413  16.943 -0.2441 -0.4618  0.6609
18793TIP3    H177794   3.160   6.485  17.002 -1.0567  1.3783 -1.7989
18793TIP3    H277795   3.117   6.346  16.962 -0.7128  0.2405  1.5956
18794TIP3   OH277796   2.634   1.142   5.695 -0.4410  0.1340 -0.1034
18794TIP3    H177797   2.656   1.235   5.694  0.6569 -0.1231 -1.5640
18794TIP3    H277798   2.542   1.139   5.723 -0.1942  1.5884  0.8683
18795TIP3   OH277799   6.761   1.153  14.785  0.3852  0.3653 -0.4586
18795TIP3    H177800   6.853   1.135  14.802  0.3334  1.0510  0.6390
18795TIP3    H277801   6.760   1.243  14.751 -0.0955  1.4078  2.1548
18796TIP3   OH277802   2.400   4.991  13.223 -0.2620  0.4856  0.2527
18796TIP3    H177803   2.427   5.062  13.165  0.4019 -0.1068 -0.1868
18796TIP3    H277804   2.384   4.917  13.165 -0.9792  0.2818  0.7020
18797TIP3   OH277805   5.577   3.775  12.165  0.7298  0.0349 -0.3647
18797TIP3    H177806   5.536   3.811  12.086  0.8130  1.4853  0.2253
18797TIP3    H277807   5.656   3.829  12.178  1.3450 -0.9442  0.0505
18798TIP3   OH277808   2.796   2.338  12.498  0.3622 -0.9211 -0.5699
18798TIP3    H177809   2.846   2.386  12.431 -1.0371 -0.3919 -1.2549
18798TIP3    H277810   2.807   2.391  12.577  1.7213 -1.3569 -0.4381
18799TIP3   OH277811   4.103   3.519  17.190 -0.0570  0.1093 -0.2814
18799TIP3    H177812   4.087   3.426  17.206 -0.5814  0.1574 -0.5406
18799TIP3    H277813   4.196   3.531  17.212 -0.1825 -0.3098  0.4975
18800TIP3   OH277814   1.416   5.327   6.485  0.3872  0.3337  0.1946
18800TIP3    H177815   1.361   5.328   6.563  0.1005  0.9649 -0.0146
18800TIP3    H277816   1.461   5.242   6.488  0.8134  0.5910  1.3489
18801TIP3   OH277817   3.757   0.249   0.720  0.4722  0.0155 -0.0142
18801TIP3    H177818   3.774   0.288   0.806  0.6672 -0.7745  0.3071
18801TIP3    H277819   3.761   0.323   0.659  0.4100  0.5678  0.6443
18802TIP3   OH277820   2.036   3.534  12.203 -0.0298  0.0069  0.0716
18802TIP3    H177821   2.096   3.589  12.254  0.9935  0.1817 -1.2847
18802TIP3    H277822   2.087   3.456  12.181  0.2236  0.7907 -2.3051
18803TIP3   OH277823   3.905   5.331  14.947  0.2199 -0.4005 -0.6201
18803TIP3    H177824   3.952   5.248  14.947  0.6708 -0.1571  0.8263
18803TIP3    H277825   3.972   5.396  14.969 -0.4387  0.1632 -0.2805
18804TIP3   OH277826   2.174   1.832   4.893  0.3265 -0.4576  0.0139
18804TIP3    H177827   2.130   1.747   4.892  0.4685 -0.5371  0.7672
18804TIP3    H277828   2.103   1.895   4.879  0.3149 -0.7325 -1.2515
18805TIP3   OH277829   2.839   5.382  14.721  0.4698 -0.3655  0.3560
18805TIP3    H177830   2.826   5.298  14.677  1.0166 -0.5275  0.5086
18805TIP3    H277831   2.775   5.440  14.680  0.0822 -0.8568  0.2571
18806TIP3   OH277832   2.140   6.381  16.615  0.3393  0.2134  0.1342
18806TIP3    H177833   2.211   6.321  16.639  0.6711  0.1875 -0.8633
18806TIP3    H277834   2.064   6.349  16.662  0.8556 -0.1246  0.7433
18807TIP3   OH277835   0.202   2.384   2.699 -0.5155 -0.0913 -0.1898
18807TIP3    H177836   0.214   2.350   2.788 -0.1785 -1.1202 -0.6248
18807TIP3    H277837   0.120   2.346   2.669  0.0135 -0.7756 -0.7905
18808TIP3   OH277838   4.795   3.010  13.623 -0.1623  0.0241 -0.8322
18808TIP3    H177839   4.792   3.000  13.527 -1.7436 -0.4870 -0.7524
18808TIP3    H277840   4.721   2.957  13.654 -1.1170  2.1011  0.5006
18809TIP3   OH277841   0.274   0.611  13.113  0.2094 -0.3294  0.3433
18809TIP3    H177842   0.352   0.623  13.166  1.4783  0.9972 -1.7357
18809TIP3    H277843   0.201   0.635  13.170  1.4948  0.5510  1.6218
18810TIP3   OH277844   0.238   4.167  15.247  0.4968  0.8324 -0.2939
18810TIP3    H177845   0.237   4.253  15.290 -0.8316  1.2011 -1.0373
18810TIP3    H277846   0.208   4.106  15.314 -1.0182  1.3245 -0.5019
18811TIP3   OH277847   4.782   0.224  12.239  0.3396 -0.2208 -0.5492
18811TIP3    H177848   4.811   0.135  12.260  0.6808  0.2321  0.9917
18811TIP3    H277849   4.697   0.213  12.199  0.4398 -1.2620 -0.4857
18812TIP3   OH277850   6.023   5.227   1.603  0.2533 -0.1259 -0.2074
18812TIP3    H177851   5.956   5.294   1.617  0.3584 -0.1361  0.3490
18812TIP3    H277852   6.081   5.235   1.678 -0.9102 -2.2322  0.9506
18813TIP3   OH277853   1.034   1.411  12.022  0.6414  0.2674  0.1004
18813TIP3    H177854   1.029   1.324  11.981  1.4266 -0.0891  0.7537
18813TIP3    H277855   0.971   1.406  12.094  0.0769  0.5222 -0.3729
18814TIP3   OH277856   1.798   3.677  12.752  0.2577 -0.1061  0.6437
18814TIP3    H177857   1.860   3.727  12.805  0.1780  0.7784 -0.0829
18814TIP3    H277858   1.852   3.624  12.694  0.3320  0.4820  0.1784
18815TIP3   OH277859   2.361   0.020  16.788 -0.5270  0.3568  0.1294
18815TIP3    H177860   2.359   0.090  16.724  0.0920 -0.3709 -0.7051
18815TIP3    H277861   2.365  -0.060  16.736  2.4109 -0.1577  1.0511
18816TIP3   OH277862   2.635   1.284  14.414 -0.0032  0.2933  0.3847
18816TIP3    H177863   2.581   1.255  14.488  1.7406 -0.5759  1.3531
18816TIP3    H277864   2.595   1.367  14.387 -0.7181  0.5884  2.2484
18817TIP3   OH277865   4.769   1.770  12.791 -0.0319 -0.3229  0.1698
18817TIP3    H177866   4.788   1.797  12.701  0.9364 -0.9504  0.1731
18817TIP3    H277867   4.705   1.834  12.823 -0.5767 -0.2552 -1.0458
18818TIP3   OH277868   0.177   6.642   3.226  0.0559 -0.0365 -0.0010
18818TIP3    H177869   0.217   6.723   3.259  0.6387  1.1873 -3.5176
18818TIP3    H277870   0.084   6.662   3.219  0.2178  0.3918 -0.9917
18819TIP3   OH277871   5.843   5.635  11.985  0.0681  0.0099  0.6100
18819TIP3    H177872   5.929   5.678  11.984 -0.1000  0.3416  0.3922
18819TIP3    H277873   5.856   5.557  12.039  0.3463  0.3899  1.0900
18820TIP3   OH277874   6.625   5.792  14.813 -0.2333  0.1755 -0.1087
18820TIP3    H177875   6.578   5.789  14.896  1.0661  1.4245  0.6950
18820TIP3    H277876   6.565   5.753  14.749 -0.8922 -1.6197  1.5770
18821TIP3   OH277877   5.143   6.712  11.302  0.2506  0.5074 -1.1153
18821TIP3    H177878   5.118   6.754  11.384 -0.1863 -0.5256 -0.7062
18821TIP3    H277879   5.235   6.689  11.313 -0.0560 -0.5050 -0.5129
18822TIP3   OH277880   1.907   2.268   5.354  0.2807 -0.3036 -0.3504
18822TIP3    H177881   1.993   2.245   5.317  0.5449 -0.1888  0.1781
18822TIP3    H277882   1.926   2.340   5.414  0.1080 -1.4582  1.1220
18823TIP3   OH277883   4.339   4.171   4.234  0.4159  0.0517 -0.0170
18823TIP3    H177884   4.429   4.150   4.211  0.9579  1.0916  1.1333
18823TIP3    H277885   4.332   4.266   4.219 -0.3546  0.0523  0.3388
18824TIP3   OH277886   1.859   5.169  15.186 -0.0776  0.0411  0.1533
18824TIP3    H177887   1.881   5.087  15.140 -0.8932 -0.3807  0.5074
18824TIP3    H277888   1.768   5.158  15.212 -0.1013  0.9507  0.4647
18825TIP3   OH277889   6.705   2.748  16.271 -0.5150  0.3162  0.2760
18825TIP3    H177890   6.769   2.716  16.334  0.7617  1.0914 -0.6194
18825TIP3    H277891   6.740   2.833  16.242 -1.3484  0.2012 -1.0958
18826TIP3   OH277892   2.900   1.597   3.557  0.0348  0.0283  0.2255
18826TIP3    H177893   2.978   1.592   3.502 -1.3990  0.2620 -1.9059
18826TIP3    H277894   2.899   1.514   3.605  0.6613 -0.7377 -1.0448
18827TIP3   OH277895   1.041   5.048   3.918 -0.7394  0.5966  1.0217
18827TIP3    H177896   1.101   5.106   3.871  0.7985 -1.6275  0.1262
18827TIP3    H277897   1.049   5.074   4.010  0.6984  1.1405  0.7611
18828TIP3   OH277898   1.315   4.852   3.665  0.2882  0.6344 -0.5962
18828TIP3    H177899   1.297   4.758   3.668 -3.4583  1.2819  0.3811
18828TIP3    H277900   1.336   4.875   3.755 -0.1275  0.9701 -0.5858
18829TIP3   OH277901   1.459   4.767  11.366 -0.4923  0.3813 -0.5638
18829TIP3    H177902   1.402   4.840  11.340 -0.9898 -0.1737 -1.0412
18829TIP3    H277903   1.410   4.721  11.434 -0.0363  0.6742 -0.0302
18830TIP3   OH277904   3.326   3.926   6.387 -0.1120 -0.1226 -0.2657
18830TIP3    H177905   3.394   3.892   6.328  0.1718 -0.0934  0.0388
18830TIP3    H277906   3.369   3.998   6.433 -0.2202 -0.3749  0.2337
18831TIP3   OH277907   1.133   0.260  11.670 -0.2366  0.0174  0.0954
18831TIP3    H177908   1.140   0.198  11.743 -1.1389 -0.1794  0.0317
18831TIP3    H277909   1.042   0.291  11.674  0.5456  2.2969  0.8972
18832TIP3   OH277910   0.351   1.778   2.804 -0.7131  0.3091 -0.1233
18832TIP3    H177911   0.364   1.855   2.859  0.3713  0.3554 -0.4375
18832TIP3    H277912   0.306   1.811   2.727 -1.3326  0.4206  0.2855
18833TIP3   OH277913   5.508   4.075  14.258 -0.0150 -0.0460  0.0962
18833TIP3    H177914   5.569   4.072  14.331  2.2164 -0.8471 -1.7691
18833TIP3    H277915   5.540   4.146  14.203 -1.3306  0.1557 -0.4329
18834TIP3   OH277916   6.738   2.235  13.072  0.7816  0.3520  0.1370
18834TIP3    H177917   6.818   2.248  13.022  0.4306  1.0453 -0.2476
18834TIP3    H277918   6.669   2.276  13.019  0.0208 -1.0887 -0.0084
18835TIP3   OH277919   1.593   0.976   4.444  0.3693  0.2236 -0.4951
18835TIP3    H177920   1.547   0.893   4.427 -0.1101  0.1196  1.1184
18835TIP3    H277921   1.685   0.957   4.426  0.1580 -0.4448 -0.8866
18836TIP3   OH277922   6.622   3.204  12.445 -0.2997 -0.4418 -0.3337
18836TIP3    H177923   6.614   3.193  12.350  0.2372 -3.5153 -0.0947
18836TIP3    H277924   6.702   3.254  12.457  0.3173 -1.1476 -1.4604
18837TIP3   OH277925   1.863   5.464  12.575  0.5066 -0.4616 -0.3293
18837TIP3    H177926   1.890   5.553  12.555 -1.1470  0.1331  0.0329
18837TIP3    H277927   1.907   5.444  12.658  0.4223  0.2253 -0.1142
18838TIP3   OH277928   4.035   0.369   6.397 -0.4814 -0.6597  1.0011
18838TIP3    H177929   3.957   0.350   6.344 -0.4779 -3.0213  1.8022
18838TIP3    H277930   4.107   0.327   6.350  0.5225  2.2335 -0.1904
18839TIP3   OH277931   5.984   0.613  16.203  0.3067  0.5324  0.7221
18839TIP3    H177932   5.968   0.689  16.260  0.5664 -0.2636  1.8690
18839TIP3    H277933   5.900   0.568  16.199 -0.5802  2.3066 -2.1369
18840TIP3   OH277934   3.650   3.995   3.919 -0.1802  0.4953 -0.0054
18840TIP3    H177935   3.572   3.945   3.896  0.5146 -0.2656 -0.7537
18840TIP3    H277936   3.699   4.001   3.837 -1.0358  3.8431 -0.3466
18841TIP3   OH277937   2.194   6.157   5.259 -0.5905 -0.1449  0.0395
18841TIP3    H177938   2.147   6.086   5.215  0.3023  0.6553 -2.2974
18841TIP3    H277939   2.281   6.120   5.277 -0.9639 -0.4790  1.1393
18842TIP3   OH277940   0.819   3.575   1.908 -0.1702  0.2021  0.3253
18842TIP3    H177941   0.743   3.632   1.923  0.7559  1.2615  1.0323
18842TIP3    H277942   0.781   3.489   1.889 -1.6914  1.5519 -3.1987
18843TIP3   OH277943   4.216   2.053  12.235 -0.2301  0.1787  0.1694
18843TIP3    H177944   4.168   1.971  12.248  1.3006 -0.8982 -0.8890
18843TIP3    H277945   4.180   2.089  12.154 -1.3365  0.8729  0.9616
18844TIP3   OH277946   4.918   3.167  16.723 -0.1740 -0.3252 -0.1745
18844TIP3    H177947   4.996   3.206  16.682  0.3066 -0.8749  0.2152
18844TIP3    H277948   4.862   3.142  16.649  0.2610 -0.4243 -0.4701
18845TIP3   OH277949   2.715   5.713  14.252  0.2773 -0.1699 -0.3375
18845TIP3    H177950   2.652   5.785  14.252  0.0041 -0.3748 -2.5267
18845TIP3    H277951   2.692   5.660  14.176  1.9274 -1.2981 -0.1003
18846TIP3   OH277952   0.660   6.057   2.044 -0.2951 -0.0554 -0.4169
18846TIP3    H177953   0.677   6.018   1.958  1.2710  0.9090 -0.5732
18846TIP3    H277954   0.680   6.150   2.032 -2.1804  0.4818  0.4384
18847TIP3   OH277955   4.426   0.752   0.972  0.7068 -0.2456 -0.2819
18847TIP3    H177956   4.356   0.692   0.998  0.4278  0.7577  1.3782
18847TIP3    H277957   4.446   0.728   0.882 -1.2296 -1.0817 -0.5125
18848TIP3   OH277958   3.831   0.430  12.445  0.2388 -0.2039 -0.1215
18848TIP3    H177959   3.744   0.392  12.455  0.8022 -1.4343  0.2038
18848TIP3    H277960   3.878   0.403  12.525  0.3903  1.9044  0.5373
18849TIP3   OH277961   4.628   6.670  17.106 -0.6745  0.6102  0.1869
18849TIP3    H177962   4.604   6.672  17.013 -0.5913 -1.6860  0.0977
18849TIP3    H277963   4.617   6.761  17.135 -0.1258  1.4792 -2.2080
18850TIP3   OH277964   0.539   4.618   3.206 -0.1565 -0.7112 -0.0936
18850TIP3    H177965   0.557   4.702   3.165  0.0657 -0.7147 -0.0035
18850TIP3    H277966   0.614   4.602   3.263 -1.2488  0.0658  1.5730
18851TIP3   OH277967   5.047   6.707  13.768  0.2466  0.4705  0.1423
18851TIP3    H177968   5.046   6.668  13.681  0.0562 -1.7763  1.1067
18851TIP3    H277969   5.117   6.772  13.765  1.3046 -0.7216 -1.1975
18852TIP3   OH277970   4.090   4.032   2.785 -0.6007 -0.0821  0.0713
18852TIP3    H177971   4.021   4.096   2.801 -0.5636 -0.3897  1.4667
18852TIP3    H277972   4.045   3.947   2.786 -0.6669 -0.1097 -1.8628
18853TIP3   OH277973   6.347   4.691   2.840  0.9765 -0.0086  0.8192
18853TIP3    H177974   6.288   4.750   2.888  1.9724 -0.8345  3.1577
18853TIP3    H277975   6.435   4.719   2.867  1.5108 -1.3542  0.5093
18854TIP3   OH277976   3.673   1.269   4.737  0.2046  0.1688  0.0687
18854TIP3    H177977   3.658   1.349   4.787 -1.9728 -0.3838  0.3335
18854TIP3    H277978   3.601   1.211   4.761  0.3353 -0.9257 -2.0330
18855TIP3   OH277979   3.282   4.114  13.032 -0.0960  0.0428 -0.2564
18855TIP3    H177980   3.301   4.077  12.946  1.9773  1.7812 -0.5863
18855TIP3    H277981   3.361   4.099  13.083  0.0493  2.2288  0.1970
18856TIP3   OH277982   0.352   3.149  16.691 -0.3581 -0.2596 -0.2273
18856TIP3    H177983   0.442   3.139  16.724 -1.0004  1.1543  2.0447
18856TIP3    H277984   0.299   3.097  16.751 -0.9779 -1.8373 -2.1124
18857TIP3   OH277985   6.459   5.748  11.154 -0.0724  0.6555  0.0518
18857TIP3    H177986   6.462   5.830  11.105 -1.5631  1.1803  0.7798
18857TIP3    H277987   6.541   5.704  11.135  0.2949  1.8623 -1.1590
18858TIP3   OH277988   5.446   1.854  14.259  0.4550 -0.0322 -0.8299
18858TIP3    H177989   5.431   1.930  14.203  1.4827  1.6291  1.1143
18858TIP3    H277990   5.541   1.851  14.271  0.3044 -0.8396  0.2083
18859TIP3   OH277991   4.238   3.330   6.768 -0.4493 -0.0243 -0.2769
18859TIP3    H177992   4.264   3.417   6.738  1.8589 -0.3052  0.7975
18859TIP3    H277993   4.304   3.271   6.732 -2.2610 -1.4293 -1.4074
18860TIP3   OH277994   3.239   5.036   2.415  0.0821  0.2140 -0.3008
18860TIP3    H177995   3.146   5.034   2.437  0.8047  2.2358  3.4015
18860TIP3    H277996   3.246   4.983   2.336 -4.0666 -0.7261 -0.1631
18861TIP3   OH277997   2.433   5.130   0.554 -0.1946 -0.6429 -0.7082
18861TIP3    H177998   2.468   5.088   0.475 -1.5782 -0.9670 -1.1726
18861TIP3    H277999   2.492   5.103   0.624  1.8111  0.7189 -1.8484
18862TIP3   OH278000   2.905   5.946   3.316  0.3378  0.0863  0.2519
18862TIP3    H178001   2.843   5.888   3.270  1.4591 -0.3296 -0.7578
18862TIP3    H278002   2.944   5.891   3.383  0.4863  0.0249  0.1137
18863TIP3   OH278003   0.731   3.899  13.578 -0.3175 -0.0864  0.0240
18863TIP3    H178004   0.663   3.860  13.634 -0.8205  0.2679 -0.3332
18863TIP3    H278005   0.691   3.903  13.491 -0.4465  1.6772  0.1565
18864TIP3   OH278006   5.376   1.528  14.631 -0.7302  0.3012  0.1777
18864TIP3    H178007   5.374   1.448  14.579  1.4998 -0.7145  1.5857
18864TIP3    H278008   5.437   1.585  14.584 -1.1795  0.6064 -0.0340
18865TIP3   OH278009   2.220   0.527  14.071  0.1762  0.2409  0.1744
18865TIP3    H178010   2.284   0.457  14.079 -0.6510 -0.6638 -0.9265
18865TIP3    H278011   2.267   0.597  14.024  0.8684  0.2680  0.8968
18866TIP3   OH278012   0.890   0.422   0.441 -0.4633 -0.0662 -0.5186
18866TIP3    H178013   0.823   0.371   0.487  0.0309 -0.7338 -0.5379
18866TIP3    H278014   0.959   0.359   0.420  0.7990  0.8711  0.7054
18867TIP3   OH278015   6.661   3.313  14.239  0.1812 -0.0631 -0.1979
18867TIP3    H178016   6.627   3.249  14.302  0.8830  0.0607  0.3164
18867TIP3    H278017   6.586   3.368  14.217  0.3962  1.2081  2.1295
18868TIP3   OH278018   2.270   5.232  16.094  0.3876  0.1965 -0.0011
18868TIP3    H178019   2.349   5.187  16.064  0.0683 -0.3195 -0.0649
18868TIP3    H278020   2.260   5.205  16.186 -0.2753 -0.5295 -0.2819
18869TIP3   OH278021   3.997   4.254  13.705  1.0573 -0.4125 -0.2129
18869TIP3    H178022   3.963   4.247  13.794  1.1417  1.6724  0.0010
18869TIP3    H278023   3.920   4.239  13.649  0.3430  1.4264  0.2478
18870TIP3   OH278024   6.010   4.691   4.105  0.1372 -0.3149 -0.4931
18870TIP3    H178025   5.924   4.732   4.090  0.8476  0.3576 -2.9940
18870TIP3    H278026   6.050   4.744   4.174  0.3373  2.2523 -2.4880
18871TIP3   OH278027   3.557   5.799  10.802 -0.0545 -0.4885 -0.4136
18871TIP3    H178028   3.578   5.806  10.709 -1.4043  0.3192 -0.6692
18871TIP3    H278029   3.582   5.883  10.839 -1.6498  0.0279 -0.4861
18872TIP3   OH278030   3.744   0.545   5.130 -0.3865 -0.4034  0.1304
18872TIP3    H178031   3.678   0.570   5.195 -0.2412 -0.6998  0.3967
18872TIP3    H278032   3.749   0.449   5.138  0.5072 -0.3242  0.5327
18873TIP3   OH278033   0.627   1.249   0.651 -0.6026 -0.0998  0.5159
18873TIP3    H178034   0.637   1.308   0.576 -1.2176  0.4141  0.8314
18873TIP3    H278035   0.715   1.214   0.665 -0.7247 -1.1336 -1.1960
18874TIP3   OH278036   5.339   1.876  12.166  0.0037 -0.1899 -0.1942
18874TIP3    H178037   5.383   1.836  12.091 -1.0939 -0.4873 -0.6935
18874TIP3    H278038   5.315   1.802  12.222 -1.9085 -0.2595 -1.0532
18875TIP3   OH278039   5.756   6.389   4.703 -0.0348  0.3017 -0.0873
18875TIP3    H178040   5.693   6.317   4.698 -1.0543  1.1120  0.7375
18875TIP3    H278041   5.841   6.349   4.686 -0.5868 -1.0976  0.4261
18876TIP3   OH278042   3.570   2.262  12.422 -0.6888 -0.2350  0.5942
18876TIP3    H178043   3.619   2.186  12.391 -1.6996 -0.1304 -1.3486
18876TIP3    H278044   3.631   2.335  12.411 -0.2252 -0.5523  1.0570
18877TIP3   OH278045   5.751   0.919  13.440 -0.2752 -0.0315 -0.2544
18877TIP3    H178046   5.768   0.829  13.414 -2.3815 -0.2318 -1.0383
18877TIP3    H278047   5.671   0.943  13.393 -0.7225  1.6664  1.3051
18878TIP3   OH278048   6.507   0.077   2.324 -0.3689  0.4738 -0.0057
18878TIP3    H178049   6.584   0.098   2.271 -1.7297  1.5980 -1.5791
18878TIP3    H278050   6.480  -0.009   2.292 -0.3019  0.4805 -0.0834
18879TIP3   OH278051   5.307   4.245  13.645 -0.0214  0.3743  0.3373
18879TIP3    H178052   5.307   4.201  13.730  2.2238 -0.2443  0.0547
18879TIP3    H278053   5.357   4.325  13.659 -2.4773  1.9303  0.3859
18880TIP3   OH278054   6.447   3.813  13.054  0.3870  0.6092 -0.1831
18880TIP3    H178055   6.491   3.895  13.075 -0.5600  1.0956 -0.0997
18880TIP3    H278056   6.485   3.787  12.970  0.4739  1.2864 -0.3582
18881TIP3   OH278057   3.701   5.569   0.176  0.2859 -0.0085  0.0495
18881TIP3    H178058   3.791   5.563   0.143 -0.0171  1.6065 -1.1152
18881TIP3    H278059   3.707   5.544   0.268  1.7311 -1.0919 -0.3205
18882TIP3   OH278060   4.998   5.944  14.300 -0.5128 -0.5800 -0.4107
18882TIP3    H178061   4.955   5.861  14.322 -1.2607 -0.1627 -0.2971
18882TIP3    H278062   5.012   5.987  14.384  2.6960 -1.9566 -0.1791
18883TIP3   OH278063   1.459   2.472   1.637  0.3060  0.2148  0.3411
18883TIP3    H178064   1.386   2.513   1.590  0.1514  0.7607  1.0452
18883TIP3    H278065   1.418   2.420   1.705  0.5678  0.3399  0.5962
18884TIP3   OH278066   6.002   4.624  16.691  0.5884  0.1006  0.8296
18884TIP3    H178067   5.922   4.658  16.652  0.1454  1.3146  2.7252
18884TIP3    H278068   6.006   4.664  16.777  2.7756 -0.6533  1.1260
18885TIP3   OH278069   5.193   3.834  10.958 -0.1412 -0.8027 -0.1856
18885TIP3    H178070   5.216   3.741  10.967 -0.1509 -0.8911 -1.0602
18885TIP3    H278071   5.228   3.859  10.872  0.2137  0.1075  0.2245
18886TIP3   OH278072   3.652   4.502   2.322  0.3720  0.4005  0.0749
18886TIP3    H178073   3.617   4.428   2.372  2.0204  0.2162  0.9961
18886TIP3    H278074   3.607   4.578   2.358  0.5821  0.1230  0.9547
18887TIP3   OH278075   0.340   2.265   2.336 -0.1502 -0.0973  0.0863
18887TIP3    H178076   0.423   2.298   2.300 -0.7609 -0.8006 -2.0838
18887TIP3    H278077   0.357   2.173   2.355 -0.4707 -0.2966 -0.5585
18888TIP3   OH278078   4.919   5.440   1.788  0.0360  0.1157 -0.4015
18888TIP3    H178079   4.925   5.384   1.710  0.7968 -0.5502  0.1259
18888TIP3    H278080   4.915   5.379   1.861  0.9036  0.7588  0.1840
18889TIP3   OH278081   1.779   1.131  14.400  0.1454 -0.1270 -0.1068
18889TIP3    H178082   1.694   1.169  14.420  1.2644  1.1884  2.3487
18889TIP3    H278083   1.818   1.114  14.485  2.4382 -0.5408 -1.2015
18890TIP3   OH278084   0.872   0.997   3.058  0.4462 -0.2346  0.1367
18890TIP3    H178085   0.897   1.089   3.064 -2.3716  0.5202  0.7742
18890TIP3    H278086   0.890   0.973   2.967  0.3905  1.1889 -0.2519
18891TIP3   OH278087   6.248   6.321   2.536  0.1918 -0.6351 -0.5028
18891TIP3    H178088   6.262   6.371   2.616 -0.2402 -1.2801 -0.0194
18891TIP3    H278089   6.333   6.282   2.516  0.6954  0.8013 -1.2383
18892TIP3   OH278090   1.561   5.938  16.412  0.5994  0.8365 -0.8583
18892TIP3    H178091   1.622   5.934  16.486  1.0166 -1.3512 -1.2919
18892TIP3    H278092   1.592   6.012  16.360  1.4006  1.2654  0.2028
18893TIP3   OH278093   3.678   1.457  15.981 -0.7035  0.7131 -0.2151
18893TIP3    H178094   3.734   1.423  16.052 -1.6079  0.1768  0.2485
18893TIP3    H278095   3.673   1.551  15.999 -0.5090  0.6598  0.1414
18894TIP3   OH278096   4.125   5.543  12.119  0.3305 -0.1896 -0.3460
18894TIP3    H178097   4.176   5.598  12.059 -0.0031  0.4562 -0.0375
18894TIP3    H278098   4.191   5.501  12.174  0.5789  0.0699 -0.4399
18895TIP3   OH278099   6.452   6.536   0.332  0.6161 -0.5913  0.4449
18895TIP3    H178100   6.429   6.629   0.338  0.3550 -0.7814  3.1770
18895TIP3    H278101   6.547   6.535   0.327  0.6397 -0.1665  0.7293
18896TIP3   OH278102   5.273   5.629   3.441 -0.5195  0.0178 -0.0401
18896TIP3    H178103   5.213   5.556   3.458  0.1291 -0.4257  0.3735
18896TIP3    H278104   5.298   5.619   3.349  1.3135 -1.6108  0.6040
18897TIP3   OH278105   4.685   3.509  12.074  0.3506  0.5961  0.4966
18897TIP3    H178106   4.735   3.552  12.143 -0.1516  2.4173 -0.2585
18897TIP3    H278107   4.627   3.450  12.121  0.0173  1.8169  1.6519
18898TIP3   OH278108   2.621   6.605  11.383 -0.0899 -0.2073  0.0240
18898TIP3    H178109   2.670   6.673  11.429 -1.0829 -0.4785  1.5031
18898TIP3    H278110   2.658   6.605  11.294  0.3452  1.8156  0.1775
18899TIP3   OH278111   0.135   5.136  11.850 -0.1094  0.0675  0.0155
18899TIP3    H178112   0.062   5.107  11.904 -0.1214 -0.9425 -0.5277
18899TIP3    H278113   0.098   5.204  11.794 -0.5166 -0.1030  0.0764
18900TIP3   OH278114   3.799   5.997   1.092  0.0359 -0.0577 -0.0366
18900TIP3    H178115   3.844   6.060   1.148  0.8504 -1.2575  0.6734
18900TIP3    H278116   3.812   5.912   1.135  0.3667 -0.9569 -1.8537
18901TIP3   OH278117   5.721   4.224   0.343 -0.4045  0.4419  0.4216
18901TIP3    H178118   5.795   4.208   0.285 -1.1234  0.6596 -0.5757
18901TIP3    H278119   5.714   4.144   0.395 -1.2999 -0.8089 -1.5532
18902TIP3   OH278120   5.554   3.115   5.419 -0.3448  0.1842  0.6190
18902TIP3    H178121   5.536   3.144   5.330  1.0436  1.0832  0.6133
18902TIP3    H278122   5.481   3.149   5.471 -0.7870  0.2661 -0.0584
18903TIP3   OH278123   4.121   6.152   1.500 -0.1047 -0.0396  0.1388
18903TIP3    H178124   4.156   6.221   1.557  0.7379 -1.4719  1.3886
18903TIP3    H278125   4.026   6.163   1.505 -0.0928 -0.8003  2.7137
18904TIP3   OH278126   5.682   1.194   1.850 -0.3224 -0.0257  0.6488
18904TIP3    H178127   5.709   1.167   1.762 -0.4224 -0.0174  0.6158
18904TIP3    H278128   5.622   1.125   1.879 -0.0103 -0.2137  0.8518
18905TIP3   OH278129   2.757   6.653   0.123  0.6678  0.1390  0.2875
18905TIP3    H178130   2.840   6.642   0.169  0.3831 -0.9123  0.5528
18905TIP3    H278131   2.713   6.569   0.132 -1.2683  1.2705  1.7646
18906TIP3   OH278132   4.222   5.307  15.654  0.2634 -0.7292 -0.7698
18906TIP3    H178133   4.204   5.239  15.589 -0.6198  0.4209 -1.7445
18906TIP3    H278134   4.179   5.385  15.620 -0.6495 -0.2223  1.4641
18907TIP3   OH278135   6.155   6.025   2.742  0.2486  0.1256  0.3104
18907TIP3    H178136   6.220   6.007   2.810 -0.0783 -1.0271  0.3282
18907TIP3    H278137   6.167   6.118   2.721 -0.0598  0.6421  2.3554
18908TIP3   OH278138   1.282   4.805  14.145  0.1709  0.1548  0.3412
18908TIP3    H178139   1.315   4.807  14.234  0.8360 -0.3731  0.1082
18908TIP3    H278140   1.265   4.713  14.128  0.7055  0.1731 -0.3130
18909TIP3   OH278141   2.581   6.706   5.928 -0.2705  0.0599  0.4207
18909TIP3    H178142   2.538   6.747   6.003  2.1080 -0.9386  2.3867
18909TIP3    H278143   2.576   6.612   5.945  0.4061 -0.1658 -0.5922
18910TIP3   OH278144   4.940   3.082   1.640 -0.0562  0.0577  0.0624
18910TIP3    H178145   4.863   3.072   1.696  0.5153 -0.7366  0.7097
18910TIP3    H278146   4.905   3.105   1.554 -0.9473  1.1760  0.7144
18911TIP3   OH278147   1.584   0.407   6.029 -0.4970  0.4148 -0.4694
18911TIP3    H178148   1.632   0.344   6.082 -1.6602 -0.6674 -0.6960
18911TIP3    H278149   1.526   0.451   6.091 -0.7053  0.2721 -0.5638
18912TIP3   OH278150   3.483   2.116   2.475 -0.0599 -0.5546  0.1080
18912TIP3    H178151   3.462   2.112   2.568 -1.5687 -0.1491 -0.2039
18912TIP3    H278152   3.500   2.209   2.458  0.6713 -0.6914  0.0690
18913TIP3   OH278153   0.267   1.398   4.562 -0.1711 -0.4540 -0.0487
18913TIP3    H178154   0.200   1.342   4.599  0.7095 -0.6330  1.3023
18913TIP3    H278155   0.308   1.440   4.637  0.5386  0.4565 -0.9185
18914TIP3   OH278156   2.730   2.508   6.021 -0.3211 -0.0700 -0.3318
18914TIP3    H178157   2.734   2.547   6.108  1.5735 -2.0582  0.4901
18914TIP3    H278158   2.651   2.455   6.022 -1.4279  1.5440 -0.5406
18915TIP3   OH278159   4.866   3.439   1.139  0.4416 -0.0959  0.3263
18915TIP3    H178160   4.779   3.459   1.173  0.1657 -2.4405  1.0748
18915TIP3    H278161   4.860   3.461   1.046 -0.3407  1.5858  0.7511
18916TIP3   OH278162   5.414   4.668  11.497 -0.3704 -0.1268  0.0341
18916TIP3    H178163   5.422   4.574  11.478  1.6538 -0.0198  0.2452
18916TIP3    H278164   5.458   4.711  11.423  0.1016  0.5957  0.7227
18917TIP3   OH278165   0.359   1.886   0.071 -0.0396  0.4522  0.3143
18917TIP3    H178166   0.436   1.880   0.128  0.3408  1.4114 -0.0940
18917TIP3    H278167   0.356   1.978   0.045 -0.4676  0.1076 -0.8734
18918TIP3   OH278168   3.870   1.810  15.464  0.4791 -0.1705  0.5505
18918TIP3    H178169   3.847   1.894  15.424 -0.6634  0.1189  1.7733
18918TIP3    H278170   3.853   1.745  15.396 -1.5054  0.3080  0.5688
18919TIP3   OH278171   1.084   3.964  16.499  0.2430  0.8229  0.0643
18919TIP3    H178172   0.995   3.969  16.534 -0.9234  1.3121 -2.8243
18919TIP3    H278173   1.084   4.025  16.425  2.1801 -1.1969 -1.6623
18920TIP3   OH278174   2.584   4.143   5.695  0.2184 -0.5042  0.8256
18920TIP3    H178175   2.619   4.164   5.608  0.7394 -1.9761  0.6628
18920TIP3    H278176   2.644   4.077   5.729  0.4143  0.5613  2.6052
18921TIP3   OH278177   3.667   2.772  13.009  0.4422 -0.0426  0.1624
18921TIP3    H178178   3.628   2.806  13.089 -0.6597  1.2942 -0.9306
18921TIP3    H278179   3.600   2.784  12.942  1.8117  0.0237 -1.2339
18922TIP3   OH278180   1.517   6.062  13.622  0.1198 -0.3448  0.3214
18922TIP3    H178181   1.504   6.081  13.715  2.0547  2.4487  0.0795
18922TIP3    H278182   1.472   5.978  13.608  0.2765 -1.0976  3.8693
18923TIP3   OH278183   4.543   1.965  13.779 -0.4342 -0.8532  0.2276
18923TIP3    H178184   4.575   1.971  13.690  1.4663 -0.2234  0.9381
18923TIP3    H278185   4.523   2.055  13.804  1.2740 -0.7194  1.2162
18924TIP3   OH278186   0.956   4.434  12.164  0.5396  0.5826  0.0077
18924TIP3    H178187   1.050   4.434  12.146  0.7086  2.2660  0.7834
18924TIP3    H278188   0.920   4.498  12.103 -0.2899 -0.8801 -1.0762
18925TIP3   OH278189   1.203   0.068   3.142  0.7244  0.2756  1.1280
18925TIP3    H178190   1.108   0.055   3.137  0.6614 -0.8828  4.1484
18925TIP3    H278191   1.220   0.141   3.082 -1.9582  0.0463 -0.0100
18926TIP3   OH278192   0.744   3.068   0.336  0.6259  0.5012 -0.3682
18926TIP3    H178193   0.685   3.134   0.302 -0.2771 -0.8807 -1.5741
18926TIP3    H278194   0.714   2.986   0.296  1.9037 -0.5866  0.8284
18927TIP3   OH278195   0.399   4.224  13.716  0.2244 -0.3852  0.4777
18927TIP3    H178196   0.334   4.185  13.775 -0.7898  0.0196 -0.3657
18927TIP3    H278197   0.386   4.179  13.633  0.0646  0.6902 -0.0808
18928TIP3   OH278198   4.860   4.104   0.210  0.2605 -0.0584  0.1520
18928TIP3    H178199   4.863   4.181   0.267 -0.2939  1.5838 -1.9635
18928TIP3    H278200   4.939   4.110   0.157 -0.1308 -0.5793 -0.5039
18929TIP3   OH278201   1.273   6.145   4.477  0.0535  0.5000  0.3577
18929TIP3    H178202   1.346   6.158   4.539  1.7662 -0.0384 -1.4778
18929TIP3    H278203   1.253   6.232   4.445 -1.7350  0.9531  2.6204
18930TIP3   OH278204   3.444   1.368  15.897 -0.4640 -0.3927 -0.0657
18930TIP3    H178205   3.451   1.404  15.808 -0.0312 -0.8862 -0.2330
18930TIP3    H278206   3.523   1.399  15.941 -0.6987 -0.1165  0.1544
18931TIP3   OH278207   0.163   6.408  11.374 -0.0206 -0.0868  0.1617
18931TIP3    H178208   0.216   6.471  11.325  1.0925 -0.8394  0.4044
18931TIP3    H278209   0.122   6.461  11.443 -0.4272  0.6902 -0.6622
18932TIP3   OH278210   3.817   4.919   1.816  0.0548  0.7215  0.1142
18932TIP3    H178211   3.899   4.965   1.798  0.3549  0.1717  0.0408
18932TIP3    H278212   3.796   4.875   1.734  1.2803 -1.5668  0.9522
18933TIP3   OH278213   5.443   5.521  15.168  0.5001  0.2253 -0.0892
18933TIP3    H178214   5.537   5.523  15.186  0.3567 -2.0120  1.0593
18933TIP3    H278215   5.437   5.515  15.072  1.5374 -0.0577 -0.1432
18934TIP3   OH278216   1.294   4.044   4.407 -0.2474  0.7008 -0.0767
18934TIP3    H178217   1.261   4.067   4.493 -0.3033  0.8985 -0.1506
18934TIP3    H278218   1.365   4.106   4.390  1.7140 -1.1792  1.0559
18935TIP3   OH278219   2.058   0.406  14.464 -0.2285 -0.2212  0.0175
18935TIP3    H178220   2.134   0.463  14.459  0.4467 -0.9623  1.5398
18935TIP3    H278221   2.054   0.364  14.378  0.0255  1.1357 -0.6714
18936TIP3   OH278222   0.675   4.585   3.584 -0.0360 -0.7662  0.4583
18936TIP3    H178223   0.698   4.515   3.522 -0.1052 -0.4646  0.0930
18936TIP3    H278224   0.585   4.565   3.610 -0.7064  0.2262 -1.0586
18937TIP3   OH278225   1.151   6.019  14.413 -0.6893  0.1124  0.0579
18937TIP3    H178226   1.173   6.085  14.348 -2.1184 -0.6664 -1.2752
18937TIP3    H278227   1.064   6.044  14.444 -0.1520  0.2946  1.4544
18938TIP3   OH278228   6.444   0.796  12.677  0.3877 -0.0945 -0.1450
18938TIP3    H178229   6.427   0.853  12.602 -0.4806 -0.8901 -0.5590
18938TIP3    H278230   6.365   0.804  12.730 -0.4096 -2.1227 -0.9822
18939TIP3   OH278231   2.913   5.917   2.430  0.8060  0.4765 -0.1457
18939TIP3    H178232   2.954   5.938   2.347  0.6382 -1.9377 -0.8690
18939TIP3    H278233   2.976   5.861   2.476 -0.2167 -0.4534  0.1698
18940TIP3   OH278234   4.322   4.097  14.713  0.3344  0.3233  0.2260
18940TIP3    H178235   4.375   4.021  14.736  1.5014  0.5972 -1.4543
18940TIP3    H278236   4.233   4.073  14.738  1.3192  0.1071  3.6677
18941TIP3   OH278237   3.764   6.448   5.919 -0.0505 -0.4379  0.0194
18941TIP3    H178238   3.727   6.369   5.958 -1.8408  0.5708  0.4397
18941TIP3    H278239   3.785   6.505   5.993  0.2551 -0.0973 -0.3204
18942TIP3   OH278240   5.403   0.315  16.933  0.3052  0.1375 -0.0853
18942TIP3    H178241   5.466   0.273  16.990  0.9407  1.6450  0.3536
18942TIP3    H278242   5.453   0.381  16.885 -0.3934 -0.5042 -1.7479
18943TIP3   OH278243   2.606   5.059   3.632 -0.0409  0.4533 -0.1706
18943TIP3    H178244   2.546   5.129   3.606 -2.2330 -0.8976  1.1123
18943TIP3    H278245   2.678   5.104   3.675 -1.0062  1.9996 -0.1273
18944TIP3   OH278246   2.669   3.641  16.725 -0.5563 -0.1898  0.2282
18944TIP3    H178247   2.763   3.634  16.709 -0.0487 -0.4928  3.0279
18944TIP3    H278248   2.629   3.594  16.652  1.4924 -0.8285 -0.5296
18945TIP3   OH278249   0.887   5.855   1.196  0.2431 -0.5101  1.0909
18945TIP3    H178250   0.975   5.819   1.194  0.4183 -0.1069  1.5819
18945TIP3    H278251   0.899   5.949   1.183 -0.3146 -0.7725 -1.7201
18946TIP3   OH278252   2.904   2.816  12.625 -0.0738  0.0775  0.5073
18946TIP3    H178253   2.922   2.864  12.707  1.5399 -1.2114  0.9355
18946TIP3    H278254   2.952   2.734  12.635 -1.4248 -0.9015 -0.9541
18947TIP3   OH278255   2.374   5.680   0.218 -0.1510  0.4391  0.1952
18947TIP3    H178256   2.360   5.629   0.138 -1.0532 -1.1683  1.3467
18947TIP3    H278257   2.327   5.762   0.203  1.4529  1.0348 -1.7475
18948TIP3   OH278258   6.694   0.467   3.987 -0.7545  0.1120 -0.2597
18948TIP3    H178259   6.622   0.445   4.046 -0.7100 -1.0566 -0.6122
18948TIP3    H278260   6.697   0.562   3.986 -2.1807  0.1654 -0.0955
18949TIP3   OH278261   6.769   1.465  11.703 -0.7207 -0.4422 -0.1034
18949TIP3    H178262   6.703   1.396  11.691 -0.6551 -0.4685 -0.3309
18949TIP3    H278263   6.723   1.536  11.746 -0.8138 -0.5930  0.0483
18950TIP3   OH278264   1.990   4.599  14.167  0.0071  0.4307  0.5471
18950TIP3    H178265   1.937   4.579  14.244  0.9054  0.8249  1.2812
18950TIP3    H278266   1.928   4.595  14.094 -0.9350  0.4277  1.3275
18951TIP3   OH278267   2.315   0.507  13.565 -0.4392 -0.2892 -0.3015
18951TIP3    H178268   2.365   0.471  13.491  1.3423  0.4921  0.4890
18951TIP3    H278269   2.246   0.559  13.524  0.3546 -0.0966 -1.4199
18952TIP3   OH278270   6.079   5.812  10.271  0.4667  0.0898  0.3371
18952TIP3    H178271   6.127   5.773  10.198  2.2548  3.1235 -0.1953
18952TIP3    H278272   6.085   5.907  10.257 -3.0614  0.6718  1.9740
18953TIP3   OH278273   2.025   4.985  14.980  0.1291 -0.1171 -0.4822
18953TIP3    H178274   2.113   4.949  14.996 -0.2691 -0.8090  0.1876
18953TIP3    H278275   2.041   5.075  14.951  1.0170  0.1579  0.8164
18954TIP3   OH278276   5.309   1.022  14.158 -0.2013  0.1906 -0.2741
18954TIP3    H178277   5.367   1.097  14.171  0.2743 -0.0949 -0.7377
18954TIP3    H278278   5.236   1.056  14.106 -1.1267  0.8715  1.4390
18955TIP3   OH278279   6.257   2.489  13.253 -0.1610  0.2790 -0.0930
18955TIP3    H178280   6.259   2.407  13.302 -0.7633  0.6433  0.5629
18955TIP3    H278281   6.349   2.511  13.239  0.0210 -1.6274 -2.2175
18956TIP3   OH278282   0.819   2.450  13.687  0.1213 -0.7687  0.2174
18956TIP3    H178283   0.793   2.502  13.612 -2.6732 -0.5588  1.2498
18956TIP3    H278284   0.846   2.514  13.753 -1.1265 -0.7136  0.6949
18957TIP3   OH278285   1.916   2.496   0.849  0.2604 -0.1095 -0.3016
18957TIP3    H178286   2.001   2.540   0.845 -0.7844  1.7566 -2.7677
18957TIP3    H278287   1.895   2.476   0.758 -3.0165  1.5842  0.0295
18958TIP3   OH278288   0.103   2.578  11.765 -0.0436  0.0672 -0.1129
18958TIP3    H178289   0.097   2.597  11.859 -1.5711 -0.3889 -0.0977
18958TIP3    H278290   0.020   2.534  11.745 -0.2902  1.3492 -1.9597
18959TIP3   OH278291   0.419   0.726   0.125 -0.0327 -0.0473  0.4555
18959TIP3    H178292   0.506   0.725   0.165  0.2667 -0.1948 -0.1877
18959TIP3    H278293   0.436   0.745   0.032 -0.6771 -0.1619  0.3142
18960TIP3   OH278294   1.438   2.709   0.667  0.9375 -0.3675  0.5116
18960TIP3    H178295   1.492   2.745   0.596 -0.3712  0.0609 -0.2805
18960TIP3    H278296   1.396   2.786   0.706 -0.6270 -0.8557 -0.1562
18961TIP3   OH278297   4.418   3.098  12.232  0.1483 -0.4673 -0.3022
18961TIP3    H178298   4.357   3.106  12.305 -0.0473  2.7264 -0.7781
18961TIP3    H278299   4.501   3.073  12.273 -0.4191 -0.5936  0.7854
18962TIP3   OH278300   5.296   0.188   5.447  0.2260 -0.1065 -0.1904
18962TIP3    H178301   5.211   0.230   5.439  1.8217  3.3446  0.1389
18962TIP3    H278302   5.312   0.183   5.542  0.9976  0.5938 -0.2761
18963TIP3   OH278303   1.398   2.587   2.925  0.0801  0.0406  0.1819
18963TIP3    H178304   1.348   2.638   2.861  0.3952 -2.8040 -2.4362
18963TIP3    H278305   1.470   2.549   2.875  0.2812 -2.3557  2.1849
18964TIP3   OH278306   0.620   2.033  10.822  0.2385 -0.1587 -0.1723
18964TIP3    H178307   0.530   2.020  10.851 -0.8910  1.4581 -2.7879
18964TIP3    H278308   0.672   2.028  10.902 -2.0948 -1.7312  1.2857
18965TIP3   OH278309   2.882   4.843  11.923 -0.3746 -0.1855 -0.1607
18965TIP3    H178310   2.977   4.838  11.920 -0.3960 -0.6119 -0.1755
18965TIP3    H278311   2.863   4.932  11.954  0.0981 -1.1929  3.3168
18966TIP3   OH278312   4.378   4.738  15.148 -0.1096  0.9975  0.0911
18966TIP3    H178313   4.417   4.733  15.061  0.4303 -1.1918  0.4151
18966TIP3    H278314   4.446   4.778  15.202  0.9811 -0.9239  0.2198
18967TIP3   OH278315   0.250   0.891   1.664  0.3846  0.0823 -0.2597
18967TIP3    H178316   0.344   0.902   1.652  0.4961 -0.1102  0.4153
18967TIP3    H278317   0.217   0.979   1.680  0.3280  0.2563 -1.3165
18968TIP3   OH278318   1.771   3.137  13.839 -0.2455 -0.2781 -0.3224
18968TIP3    H178319   1.745   3.146  13.931 -0.7703 -0.7643 -0.4233
18968TIP3    H278320   1.692   3.162  13.790  0.9005  2.8905 -0.6755
18969TIP3   OH278321   2.182   0.847   6.622 -0.3379 -0.1698  0.1407
18969TIP3    H178322   2.257   0.887   6.666 -1.0091  0.5585  0.6209
18969TIP3    H278323   2.110   0.857   6.683 -0.6373 -1.6639  0.0490
18970TIP3   OH278324   1.624   4.045  17.134 -0.0806  0.3767  0.2574
18970TIP3    H178325   1.543   4.091  17.155  0.3502 -0.1200  3.2862
18970TIP3    H278326   1.670   4.104  17.075 -2.5214  0.7603 -1.3400
18971TIP3   OH278327   0.069   2.725  13.181 -0.7234  0.5371  0.1839
18971TIP3    H178328   0.121   2.731  13.262 -1.5091  0.8262  0.6786
18971TIP3    H278329   0.053   2.816  13.156  2.0139  0.5029 -1.9615
18972TIP3   OH278330   0.090   0.534  12.681  0.6147 -0.2654 -0.1382
18972TIP3    H178331   0.009   0.579  12.707  0.0556 -0.2863 -1.7667
18972TIP3    H278332   0.123   0.496  12.762  0.3452  1.8863  1.0197
18973TIP3   OH278333   1.122   1.106   1.561  0.4195  0.0842  0.6168
18973TIP3    H178334   1.201   1.053   1.575  1.5941  1.4668 -0.6553
18973TIP3    H278335   1.115   1.159   1.641  0.0898 -0.9050  1.2494
18974TIP3   OH278336   5.934   0.140  13.374  0.2490 -0.0005  0.2933
18974TIP3    H178337   5.982   0.171  13.451 -1.8312 -0.2620  1.7150
18974TIP3    H278338   5.891   0.219  13.340 -1.1466 -0.4053  1.0935
18975TIP3   OH278339   0.913   0.897   2.821 -0.6514 -0.1543 -0.2842
18975TIP3    H178340   0.882   0.808   2.806  0.0895 -0.6330  0.8914
18975TIP3    H278341   0.999   0.900   2.778  0.1065 -0.5742  1.1592
18976TIP3   OH278342   2.831   4.735   5.869  0.2698  0.5326 -0.0630
18976TIP3    H178343   2.798   4.707   5.955 -0.4493  0.4400 -0.3677
18976TIP3    H278344   2.918   4.770   5.888  1.0950 -1.6794  0.3711
18977TIP3   OH278345   1.830   2.989   5.468  0.4147  0.0011  0.3036
18977TIP3    H178346   1.788   3.056   5.522 -0.8147 -1.1126  0.7728
18977TIP3    H278347   1.879   3.038   5.402  0.9019  1.3675  1.6565
18978TIP3   OH278348   5.060   3.198  14.397 -0.4497  0.0537 -0.2604
18978TIP3    H178349   4.968   3.172  14.406 -0.4387  0.6236  1.6141
18978TIP3    H278350   5.101   3.122  14.355 -1.6231 -0.5062 -0.4408
18979TIP3   OH278351   6.182   1.130  15.372  0.2460  0.8373 -0.6571
18979TIP3    H178352   6.184   1.034  15.369  2.8133  0.8277  0.0635
18979TIP3    H278353   6.223   1.158  15.291  0.1952  1.3321 -0.5155
18980TIP3   OH278354   4.743   4.401  13.434  0.2698 -0.0366  0.6512
18980TIP3    H178355   4.809   4.340  13.399  0.5411 -0.3642  1.7332
18980TIP3    H278356   4.659   4.358  13.416  0.3759  0.0912 -0.1690
18981TIP3   OH278357   2.287   3.717   1.415  0.2675 -0.3484  0.4094
18981TIP3    H178358   2.254   3.754   1.333  0.5840  1.8476  1.2464
18981TIP3    H278359   2.261   3.625   1.412 -1.5831  0.1966 -1.1918
18982TIP3   OH278360   2.622   0.155  11.048 -0.1327 -0.0846  0.3327
18982TIP3    H178361   2.620   0.063  11.073 -0.0159  0.2825  1.7145
18982TIP3    H278362   2.563   0.198  11.110 -2.2227  0.3909 -1.9010
18983TIP3   OH278363   4.018   6.199  12.856  0.0306  0.1463 -0.0054
18983TIP3    H178364   4.018   6.123  12.915  0.5825  1.3319  1.5522
18983TIP3    H278365   4.072   6.171  12.782  2.2530 -0.1496  1.6738
18984TIP3   OH278366   1.748   1.788  15.637  0.1273  0.3680  0.4919
18984TIP3    H178367   1.770   1.859  15.577  0.1426 -0.3506 -0.3585
18984TIP3    H278368   1.752   1.828  15.724 -0.9999  1.6800 -0.0509
18985TIP3   OH278369   0.361   1.861   1.705  0.1015  0.0365 -0.6345
18985TIP3    H178370   0.344   1.840   1.613 -2.5784  0.3371 -0.2375
18985TIP3    H278371   0.341   1.780   1.751  1.1180 -0.0080 -0.2538
18986TIP3   OH278372   4.816   2.306   3.299  0.1291  0.2384 -0.4118
18986TIP3    H178373   4.873   2.367   3.346  0.8678 -0.4891 -0.3498
18986TIP3    H278374   4.797   2.351   3.217  0.3580  0.7184 -0.2079
18987TIP3   OH278375   2.095   4.036  15.370 -0.5411 -0.8396 -0.6226
18987TIP3    H178376   2.143   3.996  15.443 -0.9552 -1.3198 -0.6164
18987TIP3    H278377   2.158   4.036  15.298 -0.5543 -1.5306 -0.6315
18988TIP3   OH278378   3.779   2.439  12.745 -0.3239  0.5038  0.8089
18988TIP3    H178379   3.865   2.397  12.751 -0.5414  0.1121  1.1932
18988TIP3    H278380   3.785   2.495  12.667  0.5238  1.0333  1.2433
18989TIP3   OH278381   3.008   2.572   1.353 -0.0051 -0.1658  0.3502
18989TIP3    H178382   3.073   2.640   1.368 -0.6551  0.3627  0.8015
18989TIP3    H278383   2.987   2.578   1.260 -0.1050  0.2929  0.4023
18990TIP3   OH278384   6.479   2.573   2.137 -0.0706 -0.0801 -0.1432
18990TIP3    H178385   6.571   2.568   2.111 -0.1639  2.1468 -1.0124
18990TIP3    H278386   6.471   2.657   2.184 -1.5392 -0.4893  0.3899
18991TIP3   OH278387   1.615   0.390  16.690 -0.6269 -0.7448  0.0535
18991TIP3    H178388   1.660   0.457  16.639 -1.7110 -0.6742 -0.8377
18991TIP3    H278389   1.684   0.347  16.740  0.2087  0.3797 -0.1235
18992TIP3   OH278390   0.075   3.913   4.880  0.7095 -0.0128  0.2857
18992TIP3    H178391   0.142   3.890   4.944 -0.0765  1.6727  1.7108
18992TIP3    H278392  -0.007   3.885   4.920  0.2847  0.4165 -0.2849
18993TIP3   OH278393   4.427   5.951   5.630 -0.6460 -0.1003 -0.1969
18993TIP3    H178394   4.468   5.869   5.657 -2.3689 -0.4275  1.5816
18993TIP3    H278395   4.400   5.992   5.712 -0.7758  1.7288 -1.1347
18994TIP3   OH278396   0.514   6.374  12.344  0.2546  0.5721 -0.0240
18994TIP3    H178397   0.426   6.390  12.310  0.8346 -0.4322 -2.0838
18994TIP3    H278398   0.502   6.305  12.410 -0.4827  0.3955 -0.3405
18995TIP3   OH278399   1.466   3.375   5.789  0.0651 -0.8308 -0.0946
18995TIP3    H178400   1.502   3.416   5.710  1.9533 -0.2091  1.0746
18995TIP3    H278401   1.395   3.319   5.756  1.9138 -1.8814 -2.4199
18996TIP3   OH278402   4.627   4.367  13.975 -0.1982 -0.1441  0.0717
18996TIP3    H178403   4.561   4.323  14.031 -1.0064  2.7357  1.4892
18996TIP3    H278404   4.576   4.426  13.921  0.9862 -0.0271 -0.9207
18997TIP3   OH278405   3.202   5.941   5.188 -0.0746  0.2724  0.1910
18997TIP3    H178406   3.235   6.015   5.239  0.4419 -2.4713  4.0515
18997TIP3    H278407   3.115   5.924   5.224  0.7462 -2.4332  0.9376
18998TIP3   OH278408   1.871   6.534   6.527  0.3831  0.6326  0.0259
18998TIP3    H178409   1.919   6.617   6.524 -0.3213  1.1078  1.5516
18998TIP3    H278410   1.933   6.472   6.566 -0.0406  1.1305  1.5387
18999TIP3   OH278411   2.848   1.212  12.407  0.4928  0.1815 -0.3385
18999TIP3    H178412   2.816   1.177  12.323  3.5504 -0.3654 -1.3294
18999TIP3    H278413   2.868   1.134  12.459 -1.6059  0.5155  1.0385
19000TIP3   OH278414   5.701   3.446   1.599  0.3535 -0.2322 -0.0951
19000TIP3    H178415   5.688   3.351   1.604 -0.4473 -0.1164  0.0753
19000TIP3    H278416   5.684   3.478   1.688  0.4326  0.0945 -0.1951
19001TIP3   OH278417   1.208   2.405   3.038 -0.8303  0.0707 -0.0915
19001TIP3    H178418   1.255   2.325   3.060 -0.9648 -0.0218 -0.1402
19001TIP3    H278419   1.275   2.462   3.000 -0.3950  0.6049  1.4393
19002TIP3   OH278420   6.515   5.695  14.601 -0.0437 -0.5468 -0.5988
19002TIP3    H178421   6.510   5.666  14.511  0.7603  0.8513 -1.1116
19002TIP3    H278422   6.433   5.666  14.641  0.3856 -2.7876 -1.2668
19003TIP3   OH278423   5.532   1.030   2.364  0.1648 -0.0640  0.4123
19003TIP3    H178424   5.531   1.098   2.296  0.3027 -0.0269  0.4478
19003TIP3    H278425   5.442   1.030   2.397  0.6464  1.4874  1.7883
19004TIP3   OH278426   0.478   1.512  16.260 -0.0041 -0.0393  0.1807
19004TIP3    H178427   0.459   1.495  16.352 -0.7457 -0.5513 -0.0672
19004TIP3    H278428   0.550   1.575  16.263  1.4638 -1.7058  1.1078
19005TIP3   OH278429   5.873   6.540  12.808  0.3208 -0.4495  0.2032
19005TIP3    H178430   5.948   6.523  12.865  0.1013 -0.6767  0.4287
19005TIP3    H278431   5.816   6.597  12.860 -0.7407 -2.1319  0.9288
19006TIP3   OH278432   6.660   2.739  11.070  0.0110  0.1910  0.0405
19006TIP3    H178433   6.670   2.803  10.999  1.7526  1.1451  1.1336
19006TIP3    H278434   6.687   2.656  11.031  3.8966  1.2035  0.3673
19007TIP3   OH278435   5.095   6.646  12.605  0.1194 -0.7122 -0.4543
19007TIP3    H178436   5.123   6.654  12.514  0.8437 -0.7319 -0.2359
19007TIP3    H278437   5.173   6.668  12.656 -0.4096 -0.2418  0.1605
19008TIP3   OH278438   4.458   3.801  16.369 -0.1274  0.3651 -0.0448
19008TIP3    H178439   4.386   3.848  16.412  0.3140 -0.0552  1.1707
19008TIP3    H278440   4.474   3.725  16.425  1.6224  0.7379 -0.0121
19009TIP3   OH278441   6.161   4.376  11.576  0.4694  0.1199 -0.5136
19009TIP3    H178442   6.248   4.406  11.551 -0.1945 -0.1093 -3.2440
19009TIP3    H278443   6.148   4.410  11.665  2.3689  2.1762 -0.9960
19010TIP3   OH278444   5.453   5.542   4.253  0.3301 -0.0623  0.0555
19010TIP3    H178445   5.518   5.549   4.323  0.7964  3.5609 -0.6495
19010TIP3    H278446   5.373   5.579   4.290  0.1124  0.3461 -0.8096
19011TIP3   OH278447   1.872   1.097  14.968  0.3262  0.4700 -0.5254
19011TIP3    H178448   1.847   1.175  15.018  1.7462  0.4612  0.2404
19011TIP3    H278449   1.823   1.026  15.008  0.8707  0.5912  0.3837
19012TIP3   OH278450   1.745   1.870  16.265  0.6545  0.3132 -0.3739
19012TIP3    H178451   1.833   1.868  16.303 -0.3433  2.1129  2.1759
19012TIP3    H278452   1.738   1.956  16.225 -0.6165  0.9319  1.1436
19013TIP3   OH278453   6.332   4.113  17.007  0.0518  0.3032 -0.0490
19013TIP3    H178454   6.318   4.019  16.996  2.2363 -0.3710  2.3524
19013TIP3    H278455   6.278   4.153  16.939 -1.3282 -2.6453 -0.7977
19014TIP3   OH278456   5.501   5.556  14.605  0.1680  0.0474  0.1965
19014TIP3    H178457   5.427   5.615  14.623 -0.9813 -1.5928  0.9080
19014TIP3    H278458   5.515   5.564  14.511 -2.1249 -1.0276 -0.2581
19015TIP3   OH278459   0.216   2.459  11.435  0.6538 -0.2367 -0.1801
19015TIP3    H178460   0.183   2.388  11.379  1.5016 -1.0130  0.2936
19015TIP3    H278461   0.268   2.514  11.376 -0.3315  0.2355 -0.6354
19016TIP3   OH278462   4.445   4.640  16.011  0.4831 -0.1107  0.4891
19016TIP3    H178463   4.415   4.593  15.934  0.4805 -1.5717  1.3627
19016TIP3    H278464   4.376   4.626  16.076  1.4153 -0.5911  1.3987
19017TIP3   OH278465   1.875   3.132  12.245  0.1595 -0.0026  0.7024
19017TIP3    H178466   1.875   3.100  12.155 -0.5552  1.4538  0.1681
19017TIP3    H278467   1.965   3.116  12.275  0.7790  0.6577 -0.7032
19018TIP3   OH278468   5.533   2.187  15.620 -0.0610  0.5972 -0.2891
19018TIP3    H178469   5.615   2.230  15.646  0.7837 -1.2578  0.1631
19018TIP3    H278470   5.523   2.115  15.681 -0.4110 -1.0700 -2.2537
19019TIP3   OH278471   0.806   0.886   1.538  0.2788 -0.3637 -0.1109
19019TIP3    H178472   0.830   0.975   1.563  0.3433  0.3109 -2.4827
19019TIP3    H278473   0.887   0.849   1.502 -0.2979 -0.6508 -1.1109
19020TIP3   OH278474   0.932   3.445   2.346 -0.1319  0.4537 -0.3066
19020TIP3    H178475   0.941   3.441   2.441 -0.3715  0.7395 -0.2718
19020TIP3    H278476   0.944   3.538   2.325  0.6418  0.2902 -0.6267
19021TIP3   OH278477   5.754   3.331   1.880 -0.4303  0.2861 -0.1081
19021TIP3    H178478   5.673   3.298   1.919 -1.2101 -1.3725 -3.0392
19021TIP3    H278479   5.821   3.268   1.906 -1.0165 -1.0158 -1.6779
19022TIP3   OH278480   5.412   4.418   2.785  0.2429 -0.1147  0.4309
19022TIP3    H178481   5.316   4.415   2.783  0.2508 -0.0615 -0.6102
19022TIP3    H278482   5.434   4.488   2.723  0.9664 -0.5599  0.1856
19023TIP3   OH278483   1.672   1.838   5.378 -0.5136 -0.3466  0.7642
19023TIP3    H178484   1.733   1.898   5.336 -0.0272 -0.0223  1.9223
19023TIP3    H278485   1.644   1.884   5.457 -1.4303 -0.9414  0.7917
19024TIP3   OH278486   6.016   5.480  13.732  0.5914 -0.1873 -0.3579
19024TIP3    H178487   5.972   5.419  13.672  3.7672 -1.2418 -1.7116
19024TIP3    H278488   5.993   5.566  13.699  0.5521 -0.7286 -1.7676
19025TIP3   OH278489   5.193   0.876   1.493  0.0742 -0.0923  0.1486
19025TIP3    H178490   5.104   0.847   1.476  0.7185 -0.9879 -1.7445
19025TIP3    H278491   5.202   0.956   1.442  0.9211 -0.9655 -1.0911
19026TIP3   OH278492   3.525   1.031   3.432  0.5463  0.1798  0.1073
19026TIP3    H178493   3.615   1.019   3.462  1.0209  1.1754 -0.8512
19026TIP3    H278494   3.508   1.124   3.449 -0.6470 -0.2317  1.1885
19027TIP3   OH278495   1.544   0.993  10.736 -0.0829  0.0059  0.4800
19027TIP3    H178496   1.481   0.924  10.714  0.7189 -0.4714 -0.3784
19027TIP3    H278497   1.491   1.072  10.742 -0.5336 -0.0456 -2.0988
19028TIP3   OH278498   3.063   0.120  11.645  0.6880 -0.1672 -0.2123
19028TIP3    H178499   3.036   0.196  11.697  1.5057  0.0613 -0.1144
19028TIP3    H278500   3.033   0.140  11.557  1.2489  0.4569 -0.2663
19029TIP3   OH278501   1.320   3.319  11.481 -0.4567  0.7331  0.7154
19029TIP3    H178502   1.396   3.368  11.450 -0.1084  1.3807  2.5946
19029TIP3    H278503   1.274   3.293  11.400  2.8038 -1.3764 -0.5521
19030TIP3   OH278504   2.208   5.939  13.351 -1.1109 -0.4127 -0.7583
19030TIP3    H178505   2.207   5.915  13.444 -0.9266  0.1865 -0.5992
19030TIP3    H278506   2.135   6.001  13.341 -0.6579  0.1071 -0.8538
19031TIP3   OH278507   2.414   6.070   2.807 -0.5723 -0.1391  0.0063
19031TIP3    H178508   2.487   6.086   2.867  0.0718  1.1424 -1.0747
19031TIP3    H278509   2.344   6.036   2.862  0.3205  0.1245  1.3183
19032TIP3   OH278510   3.616   4.580  14.530  0.2266 -0.2972  0.0865
19032TIP3    H178511   3.593   4.615  14.616 -1.2825 -0.7275 -0.1343
19032TIP3    H278512   3.568   4.633  14.467 -0.2033 -1.2190 -0.3837
19033TIP3   OH278513   4.125   2.045  15.138 -0.1599  1.0821 -0.0346
19033TIP3    H178514   4.193   2.097  15.095  1.3911 -0.7888  0.1237
19033TIP3    H278515   4.119   1.965  15.086  0.8616 -0.6686  2.4666
19034TIP3   OH278516   5.863   0.389   5.511 -0.4172 -0.2256 -0.0826
19034TIP3    H178517   5.844   0.419   5.422  0.7079 -0.6997 -0.4903
19034TIP3    H278518   5.831   0.299   5.514 -0.3999 -0.2300 -0.0253
19035TIP3   OH278519   1.327   0.981  16.620 -0.7398 -0.5674 -0.0687
19035TIP3    H178520   1.394   0.914  16.605  0.7046  0.7290  0.3940
19035TIP3    H278521   1.348   1.016  16.707 -1.0076  0.9740 -0.6030
19036TIP3   OH278522   0.476   2.690   2.325 -0.7304  0.1440 -0.1265
19036TIP3    H178523   0.413   2.762   2.322 -1.9549 -0.9291 -0.6894
19036TIP3    H278524   0.432   2.623   2.377  0.8793  0.2416  1.4002
19037TIP3   OH278525   3.065   5.785   6.965  0.2337  0.1422  0.2983
19037TIP3    H178526   3.097   5.841   6.895 -0.3440  0.6021  0.4054
19037TIP3    H278527   3.045   5.702   6.922 -1.2831  0.8059 -0.3167
19038TIP3   OH278528   1.349   5.340   1.591 -0.0145  0.0964 -0.2646
19038TIP3    H178529   1.289   5.408   1.562  0.2833 -0.2361 -1.7195
19038TIP3    H278530   1.412   5.385   1.648 -1.3150  0.5428  0.8243
19039TIP3   OH278531   1.137   4.828   2.592 -0.2555 -0.5107 -0.4801
19039TIP3    H178532   1.204   4.843   2.659  0.3320  0.0096 -1.1844
19039TIP3    H278533   1.186   4.809   2.512 -0.9311  1.0282 -1.2822
19040TIP3   OH278534   1.824   0.804  12.748 -0.2752  0.4632  0.4982
19040TIP3    H178535   1.824   0.892  12.788  0.8927  0.8311 -0.2857
19040TIP3    H278536   1.755   0.757  12.795 -1.0912  1.8735  0.7630
19041TIP3   OH278537   0.609   5.971  11.332  0.1201 -0.1789  0.9337
19041TIP3    H178538   0.587   5.922  11.252 -1.7468  0.4803  1.0209
19041TIP3    H278539   0.666   6.041  11.302 -1.4699  0.7352 -0.0200
19042TIP3   OH278540   3.326   4.890  12.679 -0.0553  0.2801 -0.1734
19042TIP3    H178541   3.248   4.838  12.662 -0.7852  0.9079  1.1127
19042TIP3    H278542   3.399   4.834  12.653 -0.9380 -0.2559 -1.5344
19043TIP3   OH278543   2.469   4.824   2.604  0.2928  0.2814 -0.0723
19043TIP3    H178544   2.445   4.734   2.581 -0.9236 -0.0359  2.3001
19043TIP3    H278545   2.558   4.834   2.571 -0.4869 -0.8942 -2.7161
19044TIP3   OH278546   2.358   5.402   2.123 -0.1603  0.3665  0.2460
19044TIP3    H178547   2.373   5.389   2.029  0.7824 -0.6471  0.5151
19044TIP3    H278548   2.430   5.354   2.165  0.8182  2.8171  1.4405
19045TIP3   OH278549   0.787   1.404  16.017  0.4836 -0.1206 -0.1360
19045TIP3    H178550   0.821   1.482  16.061 -2.0438  0.5002  0.8021
19045TIP3    H278551   0.714   1.376  16.072 -1.5341 -0.4593 -2.9166
19046TIP3   OH278552   4.203   3.447  12.772  0.1173  0.1820 -0.3326
19046TIP3    H178553   4.179   3.494  12.693 -0.9277 -0.1777 -0.2439
19046TIP3    H278554   4.250   3.511  12.825  1.0943  0.3330 -1.3662
19047TIP3   OH278555   1.612   6.209  12.822 -0.1453  0.0610 -0.0786
19047TIP3    H178556   1.611   6.296  12.861 -1.6724  0.9360 -2.0451
19047TIP3    H278557   1.705   6.183  12.826  0.5157  2.2393 -0.5443
19048TIP3   OH278558   2.997   1.341   3.390  0.1118  0.1407  0.2527
19048TIP3    H178559   2.957   1.312   3.308 -0.4543 -1.9584  1.2359
19048TIP3    H278560   3.091   1.322   3.380  0.2388  1.0790 -0.3881
19049TIP3   OH278561   3.200   3.741   2.082 -0.4684  0.0004  1.0119
19049TIP3    H178562   3.194   3.745   1.986 -0.3052  1.9661  1.0556
19049TIP3    H278563   3.187   3.649   2.103  1.4956 -0.8140 -1.0458
19050TIP3   OH278564   4.153   6.340  15.777 -0.8451  0.0428 -0.3271
19050TIP3    H178565   4.098   6.287  15.835  2.6902 -0.5189  2.7340
19050TIP3    H278566   4.177   6.416  15.829  2.6449 -0.5931 -0.8717
19051TIP3   OH278567   4.263   0.274   5.673  0.0761 -0.0332  0.0457
19051TIP3    H178568   4.245   0.367   5.659 -2.7907 -0.4038  0.9859
19051TIP3    H278569   4.283   0.240   5.586  0.9138  1.3992 -0.3324
19052TIP3   OH278570   4.212   0.988   2.973  0.2089 -0.3688 -0.1494
19052TIP3    H178571   4.295   1.012   3.014  0.5494  0.3138 -1.2071
19052TIP3    H278572   4.221   0.895   2.953 -0.4087 -0.9858  2.3348
19053TIP3   OH278573   6.218   4.561   0.965  0.0755 -0.3170 -0.2453
19053TIP3    H178574   6.167   4.620   0.909  0.0304  0.0467  0.1837
19053TIP3    H278575   6.299   4.609   0.984 -0.1331 -0.2290  0.4308
19054TIP3   OH278576   5.033   2.813   4.302  0.3279 -0.0691  0.1026
19054TIP3    H178577   4.994   2.726   4.293  1.0776 -0.9113  3.8735
19054TIP3    H278578   5.127   2.797   4.305  0.9119  1.5523 -4.9377
19055TIP3   OH278579   0.501   0.582  12.001 -0.0668  0.6708  0.7392
19055TIP3    H178580   0.417   0.553  11.968  1.4432 -2.7581 -0.3911
19055TIP3    H278581   0.504   0.549  12.091  0.8737 -1.0577  0.0937
19056TIP3   OH278582   1.972   0.726  14.109 -0.1158 -0.5193  0.1815
19056TIP3    H178583   2.031   0.784  14.062 -0.7172 -2.5981 -3.3005
19056TIP3    H278584   1.925   0.783  14.170  1.5720  2.0436 -0.8449
19057TIP3   OH278585   3.799   4.028   2.512 -0.1387 -0.1899 -0.4903
19057TIP3    H178586   3.740   4.059   2.443  1.3252  1.2690 -1.1285
19057TIP3    H278587   3.758   4.058   2.593 -0.5291  0.3910 -0.8920
19058TIP3   OH278588   2.816   0.982   1.009  0.5408 -0.2425 -0.9394
19058TIP3    H178589   2.830   1.076   1.002 -3.5126  0.4521 -1.0851
19058TIP3    H278590   2.815   0.965   1.104  1.0019 -0.1089 -0.9092
19059TIP3   OH278591   4.327   3.293   2.737 -0.0062  0.6106 -0.1348
19059TIP3    H178592   4.317   3.235   2.813 -1.2708  0.5747 -0.3164
19059TIP3    H278593   4.421   3.291   2.717  0.2807  0.3423  1.2080
19060TIP3   OH278594   2.080   4.132   0.264  0.1736  0.1714  0.2414
19060TIP3    H178595   2.137   4.208   0.255 -0.1312  0.2258 -1.3160
19060TIP3    H278596   2.126   4.061   0.219  1.1714 -0.9854  2.9834
19061TIP3   OH278597   1.323   1.806   4.144 -0.3590  0.1291  0.0351
19061TIP3    H178598   1.361   1.874   4.088 -0.9578  0.2712 -0.2064
19061TIP3    H278599   1.241   1.844   4.175 -0.9844 -0.7071 -0.5759
19062TIP3   OH278600   6.639   1.919  11.647  0.2275  0.1649  0.1737
19062TIP3    H178601   6.698   1.992  11.663  1.7527 -0.4282 -2.3101
19062TIP3    H278602   6.695   1.841  11.655 -0.5357 -0.4977 -0.7094
19063TIP3   OH278603   1.119   4.266  12.908  0.6406 -0.5845  0.1146
19063TIP3    H178604   1.214   4.271  12.909  0.6341  1.0874 -2.0580
19063TIP3    H278605   1.093   4.322  12.834 -2.1639  1.4733  2.5296
19064TIP3   OH278606   2.581   6.239   5.036 -0.0281  0.3232  0.1020
19064TIP3    H178607   2.546   6.228   5.125 -0.5733  0.9073 -0.0340
19064TIP3    H278608   2.518   6.297   4.993  1.2401  1.5989 -0.0809
19065TIP3   OH278609   3.015   2.133  15.766  0.2913  0.5617 -0.4261
19065TIP3    H178610   3.001   2.122  15.861 -0.8514  0.4942 -0.5968
19065TIP3    H278611   3.033   2.226  15.755  0.2147  0.6095 -0.1605
19066TIP3   OH278612   6.414   3.346  11.606  0.0386 -0.1083 -0.0879
19066TIP3    H178613   6.434   3.254  11.626  2.1642  0.1213 -1.0650
19066TIP3    H278614   6.491   3.378  11.559 -0.7444  2.1481  0.1033
19067TIP3   OH278615   4.020   2.279  12.744 -0.0593 -0.3108  0.7437
19067TIP3    H178616   4.094   2.335  12.720 -1.3460  1.0244 -0.3029
19067TIP3    H278617   4.059   2.197  12.772  1.8787  0.9250  1.8048
19068TIP3   OH278618   1.548   6.501  14.449 -0.4619 -0.1108 -0.4755
19068TIP3    H178619   1.620   6.464  14.398 -1.2014 -1.8553 -0.2736
19068TIP3    H278620   1.533   6.587  14.410  1.2973  0.0215 -0.9291
19069TIP3   OH278621   3.639   3.207  12.654  0.6515  0.0480 -0.4120
19069TIP3    H178622   3.561   3.172  12.698  2.6940 -2.4171  1.3866
19069TIP3    H278623   3.669   3.278  12.712  2.1842 -1.8700  1.2065
19070TIP3   OH278624   4.416   1.091   3.137  0.1946 -0.5683  0.1036
19070TIP3    H178625   4.416   1.184   3.159 -0.0778 -0.7192  0.7631
19070TIP3    H278626   4.459   1.049   3.212 -0.7708 -1.0922  0.3742
19071TIP3   OH278627   6.347   0.993   3.145  0.2566 -0.1573 -0.1197
19071TIP3    H178628   6.298   0.934   3.088 -2.0320  0.3107  1.3167
19071TIP3    H278629   6.362   0.942   3.225 -1.4327  1.0554  0.9919
19072TIP3   OH278630   2.700   1.028  11.889  0.2416 -0.0618  0.0942
19072TIP3    H178631   2.766   0.968  11.856  0.8129  0.6765 -0.1214
19072TIP3    H278632   2.712   1.108  11.837 -0.5193  0.2356  0.3591
19073TIP3   OH278633   0.394   4.782  15.844  0.5657  0.5269  0.1757
19073TIP3    H178634   0.333   4.855  15.830 -0.1119  0.0485  0.5398
19073TIP3    H278635   0.422   4.757  15.756 -2.3464 -1.3830 -0.2978
19074TIP3   OH278636   1.221   6.564   4.788  0.0016  0.1053 -0.1076
19074TIP3    H178637   1.276   6.641   4.776  0.7941 -0.7959 -2.7065
19074TIP3    H278638   1.154   6.592   4.850 -0.3173  3.2191 -1.7324
19075TIP3   OH278639   3.361   3.209  14.990  0.0285 -0.2345  0.7371
19075TIP3    H178640   3.447   3.225  15.031 -0.9994  0.0666  2.8390
19075TIP3    H278641   3.304   3.275  15.028 -0.6238  1.1425 -2.4869
19076TIP3   OH278642   1.641   6.552   3.434  0.4251 -0.2036 -0.1518
19076TIP3    H178643   1.707   6.579   3.370 -0.6976 -0.5798 -1.4964
19076TIP3    H278644   1.647   6.457   3.437 -0.1382 -0.2473 -0.3623
19077TIP3   OH278645   6.633   0.871   5.339 -0.2508  0.1646 -0.3854
19077TIP3    H178646   6.707   0.813   5.358 -1.9346 -1.4650  1.4301
19077TIP3    H278647   6.674   0.954   5.312  2.2614 -0.4581  1.2967
19078TIP3   OH278648   5.263   2.558   5.100  0.3513  0.1006  0.1331
19078TIP3    H178649   5.327   2.566   5.171 -0.5892  0.2807  0.9663
19078TIP3    H278650   5.225   2.471   5.112 -0.9028  0.7307  0.7824
19079TIP3   OH278651   0.225   6.582   1.129  0.1524 -0.1692  0.1767
19079TIP3    H178652   0.318   6.564   1.140  0.6654  1.2738 -1.6735
19079TIP3    H278653   0.221   6.665   1.082 -2.0638 -0.7487 -0.7420
19080TIP3   OH278654   2.258   1.717  12.381  0.3456 -0.3516 -0.4628
19080TIP3    H178655   2.215   1.721  12.466 -1.2141  0.6465 -1.2685
19080TIP3    H278656   2.190   1.688  12.320  0.9141  0.7645 -1.6804
19081TIP3   OH278657   3.505   0.002  17.050  0.1362  0.0145 -0.4033
19081TIP3    H178658   3.468   0.042  17.129  2.0408 -0.9194  0.9880
19081TIP3    H278659   3.570   0.064  17.019  0.6218 -0.4127 -0.2436
19082TIP3   OH278660   6.343   2.864  13.419  0.4368  0.0555  0.1372
19082TIP3    H178661   6.327   2.925  13.490 -0.9377  0.7117 -0.7207
19082TIP3    H278662   6.276   2.797  13.428  1.9510 -1.3708  1.0880
19083TIP3   OH278663   5.732   6.746  15.354  0.1813 -0.2202  0.5734
19083TIP3    H178664   5.652   6.696  15.338 -0.0727 -0.3538  2.2018
19083TIP3    H278665   5.716   6.831  15.313  0.0469 -0.9774 -0.9634
19084TIP3   OH278666   1.082   4.085   3.252  0.1661 -0.0287  0.0109
19084TIP3    H178667   1.131   4.005   3.270  0.1726 -0.2344 -0.8981
19084TIP3    H278668   1.126   4.153   3.304  0.3577 -0.5437  0.5272
19085TIP3   OH278669   1.946   2.636  14.225  0.2566 -0.1285 -0.2040
19085TIP3    H178670   1.896   2.700  14.276  1.2619  0.1340  0.4753
19085TIP3    H278671   2.022   2.617  14.280  0.7343 -0.7656 -1.0813
19086TIP3   OH278672   1.919   5.291  13.082  0.0687 -0.1757  0.7263
19086TIP3    H178673   1.992   5.249  13.037  0.7150  0.0742  1.5233
19086TIP3    H278674   1.843   5.275  13.026  0.7251 -0.4963 -0.0729
19087TIP3   OH278675   1.138   5.560  11.697 -0.0587  0.3270  0.2164
19087TIP3    H178676   1.124   5.598  11.610  1.3937 -0.7979 -0.5204
19087TIP3    H278677   1.095   5.475  11.694 -0.5234  0.5368  0.8054
19088TIP3   OH278678   1.062   1.115  12.346  0.4743 -0.3755  0.1481
19088TIP3    H178679   1.086   1.154  12.431 -1.2621 -2.4176  1.6129
19088TIP3    H278680   1.014   1.184  12.301  2.7012  1.2559  0.1434
19089TIP3   OH278681   0.388   3.917  16.075 -0.4403 -0.6005 -0.5000
19089TIP3    H178682   0.347   3.974  16.140 -0.4177  0.1629 -1.1498
19089TIP3    H278683   0.430   3.977  16.014  3.0774 -1.3901  1.0617
19090TIP3   OH278684   4.547   3.308  13.980 -0.6783 -0.0557  0.2129
19090TIP3    H178685   4.599   3.266  13.911  1.0691  0.4777  1.1850
19090TIP3    H278686   4.485   3.363  13.932 -0.9957 -1.4246 -0.9883
19091TIP3   OH278687   4.223   3.938  10.825  0.2987  0.2348 -0.3107
19091TIP3    H178688   4.159   3.867  10.828 -1.3754  1.6617 -1.1613
19091TIP3    H278689   4.202   3.992  10.902  1.3078  0.0120  0.1205
19092TIP3   OH278690   1.516   4.924  13.099 -0.3018  0.2700  0.0339
19092TIP3    H178691   1.553   4.945  13.014  0.9697  0.5279  0.6472
19092TIP3    H278692   1.591   4.915  13.158 -1.0881 -1.2189  0.8544
19093TIP3   OH278693   4.398   3.074  11.653  0.3561  0.0159 -1.0372
19093TIP3    H178694   4.387   3.042  11.564 -0.8348  0.4533 -1.0595
19093TIP3    H278695   4.327   3.033  11.702  1.1826 -0.4567 -0.2128
19094TIP3   OH278696   6.282   4.523   1.858 -0.0797 -0.0407  0.2885
19094TIP3    H178697   6.262   4.489   1.945 -1.2560  0.3431  0.1672
19094TIP3    H278698   6.367   4.484   1.836  0.0795 -0.3688  1.4776
19095TIP3   OH278699   6.680   4.319  11.282 -0.8981 -0.1970 -0.8023
19095TIP3    H178700   6.646   4.278  11.362 -1.0129 -2.1899 -1.8498
19095TIP3    H278701   6.760   4.364  11.311 -2.3222  1.3349  0.9257
19096TIP3   OH278702   4.401   2.858  13.289  0.8606  0.1547  0.5496
19096TIP3    H178703   4.412   2.953  13.293  1.3293  0.0954  0.7384
19096TIP3    H278704   4.317   2.845  13.245  1.4476  0.6304 -0.7533
19097TIP3   OH278705   4.098   2.417  11.385  0.2025 -0.1690 -0.3979
19097TIP3    H178706   4.113   2.436  11.478 -2.0016  1.2078 -0.2931
19097TIP3    H278707   4.011   2.377  11.383  0.4889 -0.7329 -1.8060
19098TIP3   OH278708   0.548   4.089  13.889 -0.2462  0.4531 -0.6945
19098TIP3    H178709   0.496   4.010  13.873  0.6094 -0.0479 -1.0372
19098TIP3    H278710   0.513   4.153  13.828 -0.3350  0.0656 -1.0517
19099TIP3   OH278711   3.487   5.976   0.497  0.4437  0.8533 -0.2862
19099TIP3    H178712   3.423   6.044   0.474  0.8052  0.5245 -2.3774
19099TIP3    H278713   3.565   6.025   0.524  0.0541  1.2734  0.0718
19100TIP3   OH278714   4.826   5.755   2.093  0.5413 -0.1500  0.5247
19100TIP3    H178715   4.768   5.825   2.123 -0.8985 -1.0910 -0.0079
19100TIP3    H278716   4.794   5.676   2.137  0.3063 -0.9993 -1.1109
19101TIP3   OH278717   0.554   2.631   4.252  0.4525 -0.1465  0.2274
19101TIP3    H178718   0.619   2.673   4.310 -1.0803 -0.7765  2.4779
19101TIP3    H278719   0.500   2.704   4.221  1.2090  0.1879 -0.3161
19102TIP3   OH278720   4.044   1.234   0.829 -0.0349  0.1511  0.5003
19102TIP3    H178721   4.031   1.304   0.765  0.0253 -0.2264  0.0735
19102TIP3    H278722   4.117   1.264   0.883 -0.0498  0.4440  0.3565
19103TIP3   OH278723   0.761   5.413  13.577  0.0644  0.2855 -0.3264
19103TIP3    H178724   0.819   5.449  13.645  0.6377  0.2857 -0.8129
19103TIP3    H278725   0.681   5.466  13.584 -0.5036 -0.7414  1.3988
19104TIP3   OH278726   2.084   1.701   2.214  0.1030  0.2340  0.2818
19104TIP3    H178727   2.132   1.726   2.293  1.1435 -0.1901 -0.2113
19104TIP3    H278728   2.025   1.775   2.197  0.4814  0.6921  0.9700
19105TIP3   OH278729   4.227   5.939  16.570  0.2235 -0.3709  0.6218
19105TIP3    H178730   4.278   6.005  16.618 -0.2200 -0.2354  0.9043
19105TIP3    H278731   4.269   5.856  16.591  0.8518 -0.1685  0.1820
19106TIP3   OH278732   0.762   0.627  13.443  0.3017 -0.3328 -0.3647
19106TIP3    H178733   0.768   0.600  13.535 -0.8570 -1.8754 -0.7174
19106TIP3    H278734   0.847   0.603  13.406  1.0411  0.9669  0.4692
19107TIP3   OH278735   2.867   2.550   0.865 -0.2421  0.4305  0.1338
19107TIP3    H178736   2.928   2.614   0.828 -2.3899  2.6719  0.3701
19107TIP3    H278737   2.883   2.470   0.815  1.1493  1.6987 -1.4865
19108TIP3   OH278738   3.025   6.226  12.727  0.2850 -0.4271  0.4610
19108TIP3    H178739   2.972   6.147  12.715  0.7228 -0.1665 -3.8691
19108TIP3    H278740   2.967   6.286  12.774 -2.2267 -1.2455 -1.4421
19109TIP3   OH278741   5.284   1.303   1.321  0.4246 -0.4814  1.2256
19109TIP3    H178742   5.273   1.358   1.399 -1.6384 -0.2249  0.7697
19109TIP3    H278743   5.235   1.224   1.341 -2.0831  0.5352 -0.7370
19110TIP3   OH278744   5.750   2.977  14.764 -0.0134 -0.7591  0.6285
19110TIP3    H178745   5.711   2.893  14.785 -0.2809 -0.2342  2.3356
19110TIP3    H278746   5.835   2.955  14.726 -0.5988 -1.8141 -0.0988
19111TIP3   OH278747   2.571   6.270  11.374  0.0812  0.1882  0.1111
19111TIP3    H178748   2.540   6.359  11.386  0.6114  0.3513  0.2740
19111TIP3    H278749   2.512   6.233  11.307  1.0839  1.2898 -1.4098
19112TIP3   OH278750   4.443   1.021   0.381  0.3393  0.3740 -0.0516
19112TIP3    H178751   4.464   1.114   0.370  0.1224  0.3177 -1.0447
19112TIP3    H278752   4.522   0.975   0.351 -0.7200  0.1881 -2.7436
19113TIP3   OH278753   5.506   3.127  11.567 -0.0707  0.2637  0.4917
19113TIP3    H178754   5.535   3.070  11.497  1.1860  1.2957  0.1640
19113TIP3    H278755   5.493   3.212  11.525  3.1543  1.5364  1.9731
19114TIP3   OH278756   4.803   2.644   0.614 -0.1195 -0.0866  0.0484
19114TIP3    H178757   4.809   2.697   0.693  0.1081 -2.1696  1.4600
19114TIP3    H278758   4.741   2.692   0.558  0.9778  2.2491  0.7716
19115TIP3   OH278759   1.367   4.397   4.616 -0.0151 -0.4628 -0.5203
19115TIP3    H178760   1.288   4.346   4.596 -1.2477  0.9848  0.5597
19115TIP3    H278761   1.413   4.345   4.682 -1.4885 -0.0116  0.9031
19116TIP3   OH278762   4.787   0.405   3.832 -0.7015  0.2813 -0.0466
19116TIP3    H178763   4.792   0.344   3.905  0.9106  0.4922  0.0394
19116TIP3    H278764   4.877   0.432   3.817 -1.0769  0.6750 -1.7529
19117TIP3   OH278765   0.923   2.640   3.531  0.0265  0.0585 -0.2080
19117TIP3    H178766   0.983   2.611   3.599 -1.3237 -1.0609  0.5334
19117TIP3    H278767   0.839   2.599   3.554 -0.8114  0.9066 -1.6852
19118TIP3   OH278768   0.255   5.445   2.434 -0.0692  0.0552  0.3202
19118TIP3    H178769   0.347   5.427   2.451 -0.1340  0.1026  0.7424
19118TIP3    H278770   0.224   5.369   2.385  1.1503  1.8410 -3.4119
19119TIP3   OH278771   6.397   3.098  10.415  0.0397 -0.4522  0.0711
19119TIP3    H178772   6.483   3.072  10.380  0.4638 -1.0053  1.4546
19119TIP3    H278773   6.385   3.188  10.386  0.9109 -0.5111 -0.4868
19120TIP3   OH278774   0.495   0.014   5.190  0.0956  0.3857 -0.1498
19120TIP3    H178775   0.497  -0.071   5.147  0.2602 -1.0475  2.6140
19120TIP3    H278776   0.456   0.073   5.125  3.3770 -0.9262 -3.5181
19121TIP3   OH278777   3.552   4.138  14.494  0.2938  0.4080 -0.6068
19121TIP3    H178778   3.586   4.189  14.568  0.2107 -0.5685  0.1224
19121TIP3    H278779   3.497   4.070  14.535 -1.5999  1.2378 -1.6948
19122TIP3   OH278780   4.766   5.044  11.610 -0.1561 -0.1459  0.1730
19122TIP3    H178781   4.847   5.095  11.603 -0.4460  0.4396  0.9754
19122TIP3    H278782   4.705   5.087  11.550 -0.1895  0.0443  0.3424
19123TIP3   OH278783   2.650   3.785  11.570 -0.7443  0.1261 -0.1262
19123TIP3    H178784   2.690   3.864  11.535  0.6493  0.3545  1.9284
19123TIP3    H278785   2.703   3.713  11.535 -0.2158  0.2742  0.3641
19124TIP3   OH278786   4.954   6.571   1.664 -0.2085  0.3622 -0.6404
19124TIP3    H178787   5.029   6.538   1.713 -0.6565  0.8522  0.3724
19124TIP3    H278788   4.969   6.540   1.574 -0.7557 -2.8569  0.3281
19125TIP3   OH278789   0.670   5.939  11.599 -0.0697  0.4549  0.2438
19125TIP3    H178790   0.581   5.930  11.632 -0.0212  0.0301  0.2698
19125TIP3    H278791   0.660   5.961  11.506 -0.2013  0.5371  0.2784
19126TIP3   OH278792   2.286   5.385  15.193  0.1455  0.2570 -0.3330
19126TIP3    H178793   2.237   5.439  15.132 -0.8040  0.3447  0.5115
19126TIP3    H278794   2.377   5.390  15.161 -0.1144  1.4196 -0.9145
19127TIP3   OH278795   6.226   5.033  15.315  0.4795  0.1253  0.5897
19127TIP3    H178796   6.175   5.112  15.334  0.5215 -0.0744  1.5124
19127TIP3    H278797   6.166   4.977  15.265  0.7954  1.1923 -1.0527
19128TIP3   OH278798   4.345   3.731   3.766 -0.6477  0.0060 -0.0111
19128TIP3    H178799   4.411   3.662   3.775 -1.1476 -0.6998 -1.6940
19128TIP3    H278800   4.261   3.686   3.774 -0.9685  0.6414  0.3042
19129TIP3   OH278801   5.244   1.679  16.056 -0.3109 -0.2228  0.8311
19129TIP3    H178802   5.253   1.612  16.123  2.5996  0.2075  0.9612
19129TIP3    H278803   5.334   1.707  16.038 -1.2295  1.4992 -1.3897
19130TIP3   OH278804   0.170   6.248  14.446  0.3750 -0.5569 -0.3851
19130TIP3    H178805   0.120   6.247  14.364  1.8945  0.3879 -1.3241
19130TIP3    H278806   0.109   6.211  14.510 -1.5110  0.4393 -1.5322
19131TIP3   OH278807   4.093   5.857   0.816 -0.5931 -0.4479 -0.4281
19131TIP3    H178808   4.183   5.836   0.791  0.3647  0.6857  1.8947
19131TIP3    H278809   4.060   5.910   0.744  0.2958 -1.5866 -1.7016
19132TIP3   OH278810   1.997   2.470  16.674 -0.0565  0.8588  0.1230
19132TIP3    H178811   1.902   2.484  16.669 -0.6733 -2.6011  0.8255
19132TIP3    H278812   2.022   2.443  16.586 -0.1633 -0.6544  0.5556
19133TIP3   OH278813   4.589   4.344  12.503 -0.3189 -0.0309  0.7717
19133TIP3    H178814   4.670   4.394  12.498 -2.0096  2.7739  0.4802
19133TIP3    H278815   4.523   4.401  12.464 -2.4492 -2.2500  1.0220
19134TIP3   OH278816   3.442   4.633  12.328 -0.0123 -0.2577  0.7725
19134TIP3    H178817   3.440   4.544  12.364 -1.6406 -0.6332 -0.2100
19134TIP3    H278818   3.527   4.639  12.284  0.4134 -1.0779  1.4818
19135TIP3   OH278819   2.776   2.039   5.483  0.1053 -0.2751 -0.2664
19135TIP3    H178820   2.767   2.121   5.530  1.0894  0.0616 -0.6388
19135TIP3    H278821   2.871   2.024   5.480 -0.0507 -1.2106 -0.5472
19136TIP3   OH278822   2.436   2.752   2.077 -0.1435 -0.5567 -1.2103
19136TIP3    H178823   2.486   2.829   2.051  1.0030 -0.5231  0.9251
19136TIP3    H278824   2.438   2.753   2.173 -0.6688 -2.8755 -1.1302
19137TIP3   OH278825   0.326   4.069   4.165  0.2441  0.5237  0.0795
19137TIP3    H178826   0.297   4.008   4.233 -2.4779  2.9913  1.2409
19137TIP3    H278827   0.276   4.043   4.087 -1.1707  1.4102  0.6611
19138TIP3   OH278828   4.705   5.187  15.071  0.2580 -0.3399 -0.3863
19138TIP3    H178829   4.679   5.226  15.154  1.5933  0.7530 -0.4528
19138TIP3    H278830   4.659   5.239  15.005  1.5732  0.7775 -0.4471
19139TIP3   OH278831   6.682   3.991   1.051 -0.7352  0.0738  0.1273
19139TIP3    H178832   6.732   4.072   1.066 -0.6985  0.1297 -0.2873
19139TIP3    H278833   6.645   3.970   1.137  1.0306 -0.6739  0.7235
19140TIP3   OH278834   6.296   2.896   3.848  0.2258  0.3114 -0.1665
19140TIP3    H178835   6.232   2.940   3.904 -0.3223 -0.1579 -0.4116
19140TIP3    H278836   6.341   2.835   3.906  0.3146  0.5081 -0.0320
19141TIP3   OH278837   0.160   6.013  11.520  0.1782  0.2799  0.4737
19141TIP3    H178838   0.113   6.093  11.541  1.9131  1.5692 -0.4721
19141TIP3    H278839   0.239   6.042  11.474  0.3241 -2.0174 -0.8084
19142TIP3   OH278840   3.108   0.636  12.170  0.1379 -0.9039 -0.2577
19142TIP3    H178841   3.120   0.604  12.259 -0.0940  0.6424  0.3385
19142TIP3    H278842   3.189   0.684  12.151 -0.2648 -0.3151 -0.4851
19143TIP3   OH278843   2.820   1.083  12.144 -0.0966 -0.2712  0.1342
19143TIP3    H178844   2.862   1.159  12.104 -0.1072 -0.5212 -0.3560
19143TIP3    H278845   2.777   1.039  12.071 -1.7793  0.3437  0.7372
19144TIP3   OH278846   4.557   0.012   3.214 -0.3704 -0.2724  0.0031
19144TIP3    H178847   4.500  -0.063   3.231 -0.9254 -0.1795 -1.3611
19144TIP3    H278848   4.537   0.074   3.284  0.3355 -1.5066  1.3386
19145TIP3   OH278849   0.347   3.511   1.965  0.1157 -0.7820  0.0680
19145TIP3    H178850   0.394   3.592   1.946 -1.3779 -0.1283 -0.8827
19145TIP3    H278851   0.354   3.460   1.885 -1.1845 -0.4829 -0.2438
19146TIP3   OH278852   1.520   3.827  16.213  0.1119  0.4883 -0.1029
19146TIP3    H178853   1.493   3.847  16.123  0.2415  1.0642 -0.0149
19146TIP3    H278854   1.442   3.787  16.252  0.2986 -0.4799 -0.6956
19147TIP3   OH278855   5.664   5.431  16.154  0.1402  0.1229 -0.5410
19147TIP3    H178856   5.570   5.413  16.154  0.0771  0.2805  1.5275
19147TIP3    H278857   5.705   5.345  16.165  0.1561  0.2366  0.3544
19148TIP3   OH278858   4.783   5.416   0.721 -0.4878  0.5718 -0.2722
19148TIP3    H178859   4.781   5.512   0.725 -1.4955  0.6768 -2.7502
19148TIP3    H278860   4.872   5.393   0.747 -0.1185  2.2066 -0.0423
19149TIP3   OH278861   4.634   5.505   5.057 -0.5550  0.7782  0.4113
19149TIP3    H178862   4.539   5.503   5.068 -0.8891 -0.4451 -2.2938
19149TIP3    H278863   4.663   5.416   5.076 -0.3436  0.3885 -1.6172
19150TIP3   OH278864   5.661   3.385  11.786  0.3169  0.0446  0.0974
19150TIP3    H178865   5.730   3.386  11.720  0.5373  1.7043  0.3368
19150TIP3    H278866   5.666   3.297  11.824  2.3625  0.1460  0.1528
19151TIP3   OH278867   3.428   0.124  16.480  0.8590 -0.0802 -0.3256
19151TIP3    H178868   3.500   0.078  16.523  0.7391 -1.0704 -1.1480
19151TIP3    H278869   3.349   0.077  16.508  0.9175 -1.8997 -2.9906
19152TIP3   OH278870   0.314   5.430  10.655 -0.2888 -0.2915  0.0925
19152TIP3    H178871   0.324   5.339  10.627 -2.4582 -1.5624  3.1264
19152TIP3    H278872   0.228   5.457  10.622 -0.2096  0.2051  0.2813
19153TIP3   OH278873   1.804   5.398  13.461  0.2390 -0.3661  0.4026
19153TIP3    H178874   1.896   5.423  13.450  0.2552 -1.0489 -1.0640
19153TIP3    H278875   1.805   5.302  13.459 -0.2891 -0.4366  2.2799
19154TIP3   OH278876   6.051   3.749  15.680  0.2207  0.3079  0.1104
19154TIP3    H178877   6.056   3.661  15.644  0.1762 -0.3501  1.6833
19154TIP3    H278878   5.976   3.747  15.740  0.0924  1.4726  0.0113
19155TIP3   OH278879   2.097   3.866   6.090 -0.1137 -0.1910 -0.4706
19155TIP3    H178880   2.123   3.916   6.168 -0.5006 -1.2749  0.3684
19155TIP3    H278881   2.007   3.893   6.074 -0.2750 -0.5010 -0.1030
19156TIP3   OH278882   3.451   0.358  13.682  0.1658 -0.0325  0.1069
19156TIP3    H178883   3.495   0.436  13.715 -1.0421  0.3564  0.8547
19156TIP3    H278884   3.487   0.344  13.595  1.1749  0.7343  0.3970
19157TIP3   OH278885   1.122   5.689  11.434 -0.0743 -0.2565 -0.2378
19157TIP3    H178886   1.165   5.642  11.363  0.2621  0.9403 -0.8464
19157TIP3    H278887   1.054   5.741  11.391  0.9108  1.3861  0.1604
19158TIP3   OH278888   5.852   5.323   0.117 -0.0058 -0.7556  0.3864
19158TIP3    H178889   5.942   5.355   0.110 -0.0506 -0.7036  0.0423
19158TIP3    H278890   5.859   5.239   0.162 -0.1669  1.1150  4.0565
19159TIP3   OH278891   1.774   6.287   5.994 -0.1781 -0.4351  0.4491
19159TIP3    H178892   1.705   6.274   5.929 -0.5169 -2.0421  1.1091
19159TIP3    H278893   1.762   6.377   6.024 -0.7618 -0.0675 -0.8354
19160TIP3   OH278894   6.158   1.846  15.582  0.1088 -0.2731 -0.0513
19160TIP3    H178895   6.111   1.765  15.565 -0.9625  0.0943  1.0438
19160TIP3    H278896   6.151   1.895  15.500 -1.1177 -0.3889 -0.0331
19161TIP3   OH278897   0.470   3.399   6.020  0.1860  0.2608  0.0426
19161TIP3    H178898   0.401   3.433   6.077 -0.3840  0.2068 -0.6086
19161TIP3    H278899   0.434   3.406   5.932  1.7842  2.1064 -0.4914
19162TIP3   OH278900   0.912   0.198  17.031 -0.3655 -0.2177  0.4860
19162TIP3    H178901   0.980   0.163  16.974 -2.0042 -1.8142 -0.5555
19162TIP3    H278902   0.844   0.230  16.971 -1.1462  0.0918  1.5168
19163TIP3   OH278903   0.438   3.498   0.030  0.3023  0.3314  0.0354
19163TIP3    H178904   0.361   3.446   0.008 -0.7655  0.6415  2.8318
19163TIP3    H278905   0.448   3.559  -0.043 -1.1277 -0.8095 -1.1286
19164TIP3   OH278906   0.511   0.352  17.038 -0.0185  0.0866 -0.1836
19164TIP3    H178907   0.583   0.323  16.982  0.5372  3.1058 -1.1417
19164TIP3    H278908   0.553   0.386  17.117 -0.3466  1.8075 -0.7205
19165TIP3   OH278909   5.441   4.110   1.408 -0.0732 -0.1583 -0.0868
19165TIP3    H178910   5.354   4.121   1.447 -0.4969 -1.9361 -0.4509
19165TIP3    H278911   5.425   4.119   1.314  0.4674  1.3799 -0.0347
19166TIP3   OH278912   4.326   1.614  12.500  0.6335  0.0596  0.1797
19166TIP3    H178913   4.401   1.588  12.448  0.3728 -0.1423 -0.0985
19166TIP3    H278914   4.301   1.535  12.548 -0.0111 -0.1496 -0.4852
19167TIP3   OH278915   0.048   2.711  12.026 -0.7686 -0.0964 -0.4123
19167TIP3    H178916   0.102   2.662  12.088 -1.8029  0.0652  0.6253
19167TIP3    H278917   0.025   2.791  12.073  0.0058  0.9045 -1.7023
19168TIP3   OH278918   6.329   4.970   4.840 -0.2653  0.1807  0.2237
19168TIP3    H178919   6.412   4.922   4.828 -0.0471  0.7139 -0.4199
19168TIP3    H278920   6.307   4.956   4.932  0.2667 -0.4113  0.2687
19169TIP3   OH278921   5.016   4.341   1.501 -0.3314  0.0361  0.3892
19169TIP3    H178922   4.953   4.386   1.444  0.2459  3.1470  2.1111
19169TIP3    H278923   4.976   4.343   1.588  1.5681  0.9449  1.2707
19170TIP3   OH278924   4.792   3.174   6.338  0.3366 -0.1485  0.1872
19170TIP3    H178925   4.858   3.209   6.398 -0.0166 -0.6246  0.8609
19170TIP3    H278926   4.708   3.196   6.378  0.1019 -0.8838  0.1083
19171TIP3   OH278927   2.761   0.745  12.868  0.1606 -0.4592  0.4726
19171TIP3    H178928   2.700   0.780  12.932  0.5653  0.9503  0.1023
19171TIP3    H278929   2.835   0.714  12.921  0.7136  1.1460  0.6833
19172TIP3   OH278930   5.302   3.442  16.813  0.0142 -0.2081 -0.1053
19172TIP3    H178931   5.394   3.433  16.790 -0.1031  0.3816 -0.7926
19172TIP3    H278932   5.256   3.449  16.730 -0.2579  3.3619  0.2783
19173TIP3   OH278933   2.488   2.507   5.739  0.3602  0.3866  0.1870
19173TIP3    H178934   2.455   2.523   5.827 -0.5941 -0.6229  0.0251
19173TIP3    H278935   2.413   2.527   5.682  0.4499 -0.5716 -0.2750
19174TIP3   OH278936   4.589   6.649  12.907 -0.1025  0.3070 -0.1898
19174TIP3    H178937   4.502   6.608  12.908 -1.2612  2.6795 -1.1972
19174TIP3    H278938   4.604   6.675  12.998 -0.4264 -0.1234 -0.0116
19175TIP3   OH278939   2.705   2.043  16.932 -0.4907 -0.1091  0.0002
19175TIP3    H178940   2.798   2.024  16.943 -0.3050  1.2561  0.9692
19175TIP3    H278941   2.703   2.134  16.903 -1.4640 -0.6160 -1.5841
19176TIP3   OH278942   3.525   6.146   1.323  0.5824 -0.0523 -0.1665
19176TIP3    H178943   3.527   6.191   1.238  1.1307  0.3639  0.0591
19176TIP3    H278944   3.594   6.189   1.374 -0.1687  0.1274  0.7078
19177TIP3   OH278945   3.899   0.426   3.665 -0.2127 -0.4238 -0.3209
19177TIP3    H178946   3.871   0.421   3.757  0.4261 -0.8466 -0.1450
19177TIP3    H278947   3.883   0.338   3.631 -1.5044  0.0327 -0.9322
19178TIP3   OH278948   2.362   3.888   0.646 -0.1038  0.1430  0.1729
19178TIP3    H178949   2.373   3.794   0.658 -0.6262 -0.0851 -1.0524
19178TIP3    H278950   2.269   3.904   0.665 -0.8539 -0.1663 -2.9570
19179TIP3   OH278951   1.323   1.225  16.355  0.2088  0.3316 -0.5173
19179TIP3    H178952   1.294   1.308  16.392 -1.3803 -0.2192 -0.4578
19179TIP3    H278953   1.316   1.163  16.427  0.9388  0.0516 -0.6888
19180TIP3   OH278954   1.209   3.486   2.142 -0.1762 -0.4265 -0.6724
19180TIP3    H178955   1.220   3.495   2.237  1.7854 -0.6301 -0.8733
19180TIP3    H278956   1.142   3.418   2.133 -1.5755  0.7488  0.5701
19181TIP3   OH278957   6.597   1.123   0.443  0.0189 -0.0187  0.0649
19181TIP3    H178958   6.657   1.052   0.423 -2.3316 -1.9949 -0.1974
19181TIP3    H278959   6.510   1.084   0.436 -1.3939  3.1634 -1.2370
19182TIP3   OH278960   2.428   5.878   1.894  0.0044  0.1272 -0.1519
19182TIP3    H178961   2.383   5.842   1.970  1.9797 -1.0328  0.5086
19182TIP3    H278962   2.477   5.953   1.929  0.5130 -0.1015 -0.3644
19183TIP3   OH278963   1.814   0.449  13.652 -0.4008  0.0008 -0.0941
19183TIP3    H178964   1.855   0.364  13.636  1.2006  0.7891 -0.2970
19183TIP3    H278965   1.838   0.502  13.576 -1.0256  0.7615  0.2331
19184TIP3   OH278966   3.284   4.445  12.657  0.5098  0.1875  0.2793
19184TIP3    H178967   3.280   4.375  12.592  0.4207  0.4784 -0.0292
19184TIP3    H278968   3.193   4.476  12.664  0.7623  1.1431 -0.5353
19185TIP3   OH278969   0.985   6.309   0.792  0.0862 -0.1430 -0.4758
19185TIP3    H178970   1.028   6.394   0.787  1.5355 -0.7618  0.9999
19185TIP3    H278971   1.056   6.248   0.813 -1.0381 -1.6216 -0.9155
19186TIP3   OH278972   1.400   0.845   0.722 -0.1530  0.2950  0.2367
19186TIP3    H178973   1.372   0.773   0.778  1.2622 -1.8778 -1.7017
19186TIP3    H278974   1.330   0.854   0.657 -1.5254  2.4298  1.9434
19187TIP3   OH278975   1.160   0.354  13.844 -0.0076 -0.2290 -0.0732
19187TIP3    H178976   1.165   0.432  13.899 -0.8913 -0.2620  0.0739
19187TIP3    H278977   1.072   0.359  13.805 -0.4587 -1.6591  0.7316
19188TIP3   OH278978   5.591   4.062   3.754 -0.2652 -0.4874 -0.1242
19188TIP3    H178979   5.566   4.123   3.685 -0.7190 -1.9104 -1.2234
19188TIP3    H278980   5.511   4.052   3.807 -0.4136 -0.7273 -0.3937
19189TIP3   OH278981   5.575   6.366  15.445  0.2368  0.5788  0.1326
19189TIP3    H178982   5.621   6.402  15.521 -0.3261  0.6342  0.4472
19189TIP3    H278983   5.537   6.442  15.401 -1.7968  0.2804  1.3553
19190TIP3   OH278984   3.259   2.197  12.915 -0.3671 -0.7028 -0.1591
19190TIP3    H178985   3.231   2.160  12.831  1.7639 -1.6219 -0.4997
19190TIP3    H278986   3.348   2.228  12.900  0.0241 -0.8107  1.7344
19191TIP3   OH278987   1.588   0.961   3.109  0.4547  0.2127 -0.4164
19191TIP3    H178988   1.501   0.990   3.083 -0.5960 -1.6135  1.0064
19191TIP3    H278989   1.618   0.907   3.036 -0.6607 -1.2349  0.1750
19192TIP3   OH278990   2.754   5.564   1.237  1.0144  0.0792  0.7650
19192TIP3    H178991   2.743   5.629   1.167 -0.8738 -0.6363  0.3604
19192TIP3    H278992   2.837   5.521   1.216 -0.0546 -0.8759 -1.7031
19193TIP3   OH278993   6.155   3.413  11.509 -0.5737 -0.4028  0.3675
19193TIP3    H178994   6.136   3.385  11.419  0.1837  0.7866 -0.1767
19193TIP3    H278995   6.203   3.341  11.548  0.2384 -0.3878 -0.6047
19194TIP3   OH278996   2.200   2.260  12.231 -0.2970 -0.6707  0.1264
19194TIP3    H178997   2.227   2.258  12.323  0.7338 -0.7678 -0.1766
19194TIP3    H278998   2.116   2.305  12.232  0.7824  1.3664  0.8455
19195TIP3   OH278999   2.687   1.190   3.024  0.0160 -0.0487 -0.1714
19195TIP3    H179000   2.724   1.132   2.958 -0.6697  0.8662 -1.3655
19195TIP3    H279001   2.597   1.205   2.996 -1.4901 -2.5466  2.8927
19196TIP3   OH279002   1.139   1.122  14.382  0.1352 -0.6961  0.2392
19196TIP3    H179003   1.207   1.106  14.317 -0.2681  0.9564 -0.6285
19196TIP3    H279004   1.161   1.065  14.455  2.0651 -0.6794 -0.3117
19197TIP3   OH279005   5.498   6.147   4.983 -0.3697  0.2268 -0.8427
19197TIP3    H179006   5.563   6.125   4.916 -0.0490 -0.2283 -0.3828
19197TIP3    H279007   5.414   6.142   4.937 -0.1852 -0.4995 -1.1061
19198TIP3   OH279008   3.623   3.925  13.181  0.6287  0.3284 -0.3175
19198TIP3    H179009   3.588   4.009  13.211  1.8471  0.6494  0.2291
19198TIP3    H279010   3.673   3.947  13.102  1.7895  0.2717  0.3985
19199TIP3   OH279011   0.527   0.520   5.665 -0.4666  0.0422  0.3688
19199TIP3    H179012   0.564   0.435   5.686 -1.0076 -0.1163  0.7029
19199TIP3    H279013   0.433   0.504   5.657 -0.4680  0.4284 -0.4978
19200TIP3   OH279014   0.218   2.488   4.591  0.1421  0.2319 -0.1585
19200TIP3    H179015   0.294   2.482   4.534 -0.6180 -0.1140 -1.1537
19200TIP3    H279016   0.144   2.497   4.531 -0.7711 -1.1739  0.7315
19201TIP3   OH279017   2.072   0.750  16.009  0.4965  0.4365  1.1032
19201TIP3    H179018   2.085   0.844  16.026 -1.3154  0.9843 -0.3956
19201TIP3    H279019   1.982   0.733  16.035  0.1660 -0.4207 -0.5271
19202TIP3   OH279020   5.795   2.849   0.085  0.4152 -0.0604 -0.4513
19202TIP3    H179021   5.769   2.896   0.006 -0.6766  2.3022  1.2707
19202TIP3    H279022   5.713   2.827   0.128  1.0169 -0.7344  0.3585
19203TIP3   OH279023   6.141   3.304  12.317 -0.3017 -0.1847  0.1575
19203TIP3    H179024   6.059   3.275  12.358 -0.8039 -0.7601 -1.1996
19203TIP3    H279025   6.116   3.382  12.268 -0.3028 -0.9910 -1.1571
19204TIP3   OH279026   4.492   1.280  12.277  0.2000  0.1013  0.7006
19204TIP3    H179027   4.439   1.200  12.283 -0.1530  0.2641 -0.1715
19204TIP3    H279028   4.578   1.250  12.247 -0.3973  0.2184 -1.1901
19205TIP3   OH279029   5.375   3.895   2.219 -0.1080  0.1277 -0.2713
19205TIP3    H179030   5.337   3.815   2.182 -0.3985  0.2612 -0.2679
19205TIP3    H279031   5.426   3.933   2.148  1.3881 -0.9212  0.2215
19206TIP3   OH279032   6.441   3.434  13.528 -0.0733  0.0350 -0.6393
19206TIP3    H179033   6.456   3.354  13.579 -0.7589  0.5804  0.4351
19206TIP3    H279034   6.443   3.405  13.437  0.1349 -1.1276 -0.2751
19207TIP3   OH279035   3.629   4.256  16.556  0.1921 -0.4606 -0.4386
19207TIP3    H179036   3.648   4.164  16.538 -0.0699 -0.3675 -1.1905
19207TIP3    H279037   3.567   4.282  16.488 -2.2978 -0.6304  1.7018
19208TIP3   OH279038   5.748   0.684  13.036  0.2032  0.1734  0.0461
19208TIP3    H179039   5.735   0.772  13.071  0.5438  0.4649 -0.5566
19208TIP3    H279040   5.757   0.629  13.114 -0.1862  0.6400  0.4243
19209TIP3   OH279041   1.017   4.312  14.216  0.1199 -0.0018 -0.6021
19209TIP3    H179042   1.009   4.408  14.210  0.0463  0.1179  1.0986
19209TIP3    H279043   0.945   4.279  14.162  0.3862  0.9054 -1.5202
19210TIP3   OH279044   0.229   5.755   0.462  0.0565  0.3868 -0.5169
19210TIP3    H179045   0.301   5.788   0.517 -0.8218 -0.1901  1.0333
19210TIP3    H279046   0.197   5.678   0.509 -0.5245 -0.3038 -2.0295
19211TIP3   OH279047   4.892   2.535  12.685 -0.5321  0.6853  0.5167
19211TIP3    H179048   4.829   2.601  12.716 -0.6503  1.3380 -1.0183
19211TIP3    H279049   4.934   2.503  12.764 -2.6941  0.3462  1.5717
19212TIP3   OH279050   2.781   5.703  11.919  0.2443 -0.0311 -0.4137
19212TIP3    H179051   2.846   5.769  11.892 -1.0898  1.4554 -0.0428
19212TIP3    H279052   2.748   5.668  11.836  1.2932 -0.5903 -0.6100
19213TIP3   OH279053   1.504   5.993   2.756 -0.0419 -0.3911 -0.4384
19213TIP3    H179054   1.478   6.084   2.741  2.2031  0.3522  0.0436
19213TIP3    H279055   1.581   5.998   2.813 -0.6056 -2.6513  0.6208
19214TIP3   OH279056   3.401   6.056  12.618 -0.3395  0.0812 -0.4461
19214TIP3    H179057   3.419   6.013  12.535 -0.7715  0.8619 -0.9440
19214TIP3    H279058   3.347   6.131  12.596 -1.3107 -0.2758  0.6584
19215TIP3   OH279059   5.312   5.201  12.452  0.3083  0.1750 -0.1311
19215TIP3    H179060   5.228   5.247  12.447  0.1737 -0.1899 -1.4617
19215TIP3    H279061   5.369   5.250  12.392  0.9780  0.2659  0.5767
19216TIP3   OH279062   3.842   0.651  15.083  0.1448 -0.2746 -0.0514
19216TIP3    H179063   3.827   0.602  15.164  0.3406 -1.4642 -0.7406
19216TIP3    H279064   3.831   0.743  15.110 -0.7791 -0.7036  1.1050
19217TIP3   OH279065   3.139   5.201   5.927 -0.0329  0.5355  0.8164
19217TIP3    H179066   3.213   5.141   5.930  1.2686  2.1160  0.8932
19217TIP3    H279067   3.083   5.175   6.000  1.7430  0.9757  2.3586
19218TIP3   OH279068   1.361   2.328  15.288 -0.1749 -0.3925  0.4421
19218TIP3    H179069   1.313   2.348  15.208  0.6230 -0.7818 -0.1346
19218TIP3    H279070   1.409   2.248  15.268 -0.2545 -0.7024  1.4300
19219TIP3   OH279071   5.849   4.778  14.775  0.4650  0.4286 -0.4295
19219TIP3    H179072   5.856   4.796  14.681 -0.0364  0.6852 -0.4241
19219TIP3    H279073   5.873   4.861  14.817 -0.4029  0.6625 -0.3663
19220TIP3   OH279074   5.577   2.823   5.090  0.5116  0.1761  0.1280
19220TIP3    H179075   5.626   2.896   5.128  0.4951 -0.5383  1.5678
19220TIP3    H279076   5.528   2.787   5.164  2.0897 -2.5640 -0.1052
19221TIP3   OH279077   0.194   0.614  13.698 -0.0628  0.3655 -0.1070
19221TIP3    H179078   0.186   0.634  13.791  2.1017 -3.4751  1.0202
19221TIP3    H279079   0.272   0.662  13.670 -0.5785  1.3314  0.0859
19222TIP3   OH279080   2.069   2.209   1.008 -0.8006 -0.7152 -0.1139
19222TIP3    H179081   2.088   2.151   0.934 -0.8814  0.6170 -1.1790
19222TIP3    H279082   1.988   2.253   0.984 -0.3382  0.4046  0.3544
19223TIP3   OH279083   6.783   2.779   6.101 -0.0381  0.3284  0.0501
19223TIP3    H179084   6.723   2.732   6.159  1.1053  0.7420  1.5990
19223TIP3    H279085   6.783   2.869   6.133  0.4606  0.6146 -0.7190
19224TIP3   OH279086   6.015   1.894   2.797 -0.1191  0.3238 -0.0710
19224TIP3    H179087   5.990   1.808   2.764  1.1158  0.5393 -1.6636
19224TIP3    H279088   5.941   1.950   2.776 -2.2265 -0.8961  3.6553
19225TIP3   OH279089   5.502   5.240  16.492 -0.4985 -0.2164  0.4257
19225TIP3    H179090   5.469   5.329  16.483 -1.0442 -0.2850  1.6778
19225TIP3    H279091   5.435   5.195  16.544 -0.8348 -1.6827 -1.2228
19226TIP3   OH279092   4.421   5.428   2.874 -0.2994  0.4190 -0.2921
19226TIP3    H179093   4.338   5.379   2.870 -1.0222  1.5733  0.4179
19226TIP3    H279094   4.470   5.386   2.945 -1.4142  1.4643  1.1293
19227TIP3   OH279095   2.625   6.400   0.149  0.6854 -0.7432  0.0006
19227TIP3    H179096   2.655   6.335   0.086  0.1803 -2.0189  1.0618
19227TIP3    H279097   2.561   6.354   0.204 -0.7483  1.0143 -0.1122
19228TIP3   OH279098   0.455   3.736  13.911  0.3585  0.4205  0.3242
19228TIP3    H179099   0.550   3.744  13.905  0.5272 -1.1834  0.7723
19228TIP3    H279100   0.437   3.725  14.004 -0.2436  0.3495  0.2028
19229TIP3   OH279101   1.776   3.611   0.842 -0.1785  0.3671 -0.4366
19229TIP3    H179102   1.753   3.522   0.815 -1.6636  0.9814 -1.2536
19229TIP3    H279103   1.852   3.634   0.788 -0.3492 -0.0829 -0.8683
19230TIP3   OH279104   3.310   4.224  14.633 -0.6442 -0.0836  0.1914
19230TIP3    H179105   3.396   4.251  14.665  0.0891 -1.7042 -0.3594
19230TIP3    H279106   3.281   4.296  14.576  0.3098  0.4983  0.4435
19231TIP3   OH279107   1.223   6.537  16.345 -0.2594 -0.1493  0.4696
19231TIP3    H179108   1.215   6.489  16.428  0.0644  0.3549  0.8026
19231TIP3    H279109   1.155   6.604  16.350 -1.0676 -0.9121 -0.2319
19232TIP3   OH279110   2.362   0.799  11.572 -0.1312 -0.5034 -0.0771
19232TIP3    H179111   2.336   0.880  11.528  1.2956 -0.7966 -1.5093
19232TIP3    H279112   2.369   0.823  11.665 -1.7609  0.4781 -0.1900
19233TIP3   OH279113   2.241   0.446  15.502 -0.4604 -0.6790  0.0336
19233TIP3    H179114   2.194   0.388  15.563 -0.6599  1.7355  2.2556
19233TIP3    H279115   2.331   0.413  15.503 -0.5509 -0.9435  1.3409
19234TIP3   OH279116   5.724   3.463  15.231  0.1912 -0.0095 -0.5822
19234TIP3    H179117   5.710   3.372  15.257  0.2705 -0.1245 -0.9476
19234TIP3    H279118   5.641   3.506  15.251  0.8670  0.3179  1.6741
19235TIP3   OH279119   6.543   5.838   5.665  0.2404  0.5453  0.6012
19235TIP3    H179120   6.476   5.884   5.615 -0.6379 -1.2559  0.0942
19235TIP3    H279121   6.495   5.795   5.736  1.1147  0.8060  1.3616
19236TIP3   OH279122   0.887   3.693  14.832  0.1728 -0.2447 -0.2336
19236TIP3    H179123   0.829   3.629  14.873 -0.5261 -1.0427 -2.3830
19236TIP3    H279124   0.828   3.751  14.783  1.1155 -0.7559 -2.0197
19237TIP3   OH279125   2.234   5.902  11.341  0.5733 -0.1026 -0.1195
19237TIP3    H179126   2.289   5.943  11.407 -0.1485 -0.8952  0.9836
19237TIP3    H279127   2.163   5.964  11.327  2.0272  1.2015 -1.9867
19238TIP3   OH279128   2.667   3.184   0.246 -0.0417  0.2396  0.4106
19238TIP3    H179129   2.736   3.230   0.199 -0.2220  0.3525  0.2569
19238TIP3    H279130   2.713   3.133   0.313  0.4877 -2.3784 -1.8505
19239TIP3   OH279131   0.746   4.378   1.582 -0.0570 -0.7143 -0.6517
19239TIP3    H179132   0.810   4.318   1.621  1.1444  1.6870  1.1978
19239TIP3    H279133   0.693   4.409   1.656 -0.6605  0.4843 -1.5666
19240TIP3   OH279134   1.308   4.877   2.800  0.2241  0.5462 -0.2390
19240TIP3    H179135   1.263   4.947   2.845 -0.6068 -0.1841  0.0759
19240TIP3    H279136   1.399   4.882   2.831 -0.3668 -0.0522  1.6382
19241TIP3   OH279137   0.551   6.424  17.151 -0.3191  0.0765  0.1209
19241TIP3    H179138   0.553   6.384  17.238  0.7382 -0.1065  0.0139
19241TIP3    H279139   0.552   6.350  17.090  0.0393  0.2275 -0.0589
19242TIP3   OH279140   2.243   4.657  12.092  0.1335  0.2211  0.0562
19242TIP3    H179141   2.263   4.751  12.095 -0.0141  0.2067  2.0674
19242TIP3    H279142   2.243   4.636  11.998  3.8547  1.4066 -0.2930
19243TIP3   OH279143   4.220   0.588   5.286  0.4660 -0.1401 -0.3717
19243TIP3    H179144   4.146   0.576   5.226 -0.8938 -1.0114  1.4195
19243TIP3    H279145   4.270   0.508   5.278  0.1717 -0.3433 -0.1923
19244TIP3   OH279146   4.314   2.449  13.360  0.1614 -0.5484  0.1860
19244TIP3    H179147   4.377   2.411  13.299  1.1125 -0.0525  0.8413
19244TIP3    H279148   4.366   2.471  13.437 -0.7595  0.1728  0.6120
19245TIP3   OH279149   5.369   5.468  16.483  0.3052 -0.0067 -0.4347
19245TIP3    H179150   5.423   5.544  16.504 -1.9458  2.3187 -2.7854
19245TIP3    H279151   5.292   5.477  16.539 -0.2563 -0.2287 -1.1735
19246TIP3   OH279152   6.657   1.612   2.864 -0.3481  0.0130 -0.7073
19246TIP3    H179153   6.706   1.691   2.840  0.5546  0.1013  1.3263
19246TIP3    H279154   6.572   1.646   2.893 -1.5213 -0.1121 -3.8697
19247TIP3   OH279155   3.916   4.660  12.908 -0.4650 -0.0613  0.2679
19247TIP3    H179156   3.822   4.647  12.917 -0.4503  0.9318  2.0888
19247TIP3    H279157   3.930   4.752  12.928  0.8208 -0.0520 -0.6312
19248TIP3   OH279158   1.997   2.763   5.573 -0.8922 -0.3934  0.1937
19248TIP3    H179159   1.960   2.833   5.519  0.5109  0.4684  0.3356
19248TIP3    H279160   2.004   2.802   5.660 -0.2913 -0.7719  0.3167
19249TIP3   OH279161   5.809   3.724  16.644 -0.1215  0.1760 -0.0692
19249TIP3    H179162   5.882   3.785  16.628  0.5006 -0.1237  1.5141
19249TIP3    H279163   5.851   3.639  16.654 -0.5119  0.2189  2.2948
19250TIP3   OH279164   4.064   1.275  11.616 -0.5408 -0.5124  0.6056
19250TIP3    H179165   4.097   1.226  11.541  2.1615  0.0287  1.4005
19250TIP3    H279166   4.133   1.338  11.637 -3.0110  2.1932  0.9770
19251TIP3   OH279167   3.505   0.077   1.364 -0.1115 -0.1400 -0.1209
19251TIP3    H179168   3.529   0.142   1.298 -0.4010  0.0847 -0.0073
19251TIP3    H279169   3.413   0.096   1.384  0.7361  1.6055  2.4016
19252TIP3   OH279170   2.536   6.275  13.219 -0.1920  0.9175  0.7020
19252TIP3    H179171   2.625   6.309  13.226  0.7616 -1.0684 -1.1376
19252TIP3    H279172   2.533   6.203  13.282  0.8533 -1.6330 -2.0444
19253TIP3   OH279173   1.111   3.463  14.574 -0.3701  0.4846  0.2172
19253TIP3    H179174   1.167   3.507  14.510 -0.3703  0.9622  0.5434
19253TIP3    H279175   1.022   3.479  14.542 -0.2780 -1.8604 -1.3377
19254TIP3   OH279176   4.919   2.342  15.678 -0.3836 -0.4419 -0.1710
19254TIP3    H179177   4.946   2.361  15.588 -2.2646  1.4731 -0.3580
19254TIP3    H279178   4.900   2.427  15.717 -1.2496 -1.3687  1.5122
19255TIP3   OH279179   5.606   1.872   1.787 -0.0801 -0.0607  0.2437
19255TIP3    H179180   5.570   1.905   1.869  0.4493 -1.2743  0.9767
19255TIP3    H279181   5.563   1.787   1.775  0.5965 -0.3375 -0.2103
19256TIP3   OH279182   2.507   4.255  12.061 -0.9797  0.3433 -0.4653
19256TIP3    H179183   2.492   4.328  12.121  2.0218  0.2011  0.5561
19256TIP3    H279184   2.431   4.198  12.074 -2.0485  1.9838  0.6856
19257TIP3   OH279185   4.565   1.742  14.132  0.6040 -0.5498  0.0885
19257TIP3    H179186   4.516   1.690  14.195  1.1862  0.8473  1.7292
19257TIP3    H279187   4.637   1.685  14.105  0.2288 -1.2325  0.5234
19258TIP3   OH279188   1.086   5.493  12.067 -0.3380 -0.0548  0.2571
19258TIP3    H179189   1.004   5.504  12.116 -1.8286 -0.1031 -2.1737
19258TIP3    H279190   1.085   5.562  12.001  0.1951 -1.8376 -1.6558
19259TIP3   OH279191   2.948   5.334  12.943 -0.1392 -0.0944  0.3576
19259TIP3    H179192   2.970   5.419  12.981  2.3838 -2.0568  3.5431
19259TIP3    H279193   2.872   5.305  12.993  0.0946 -0.4859  0.4858
19260TIP3   OH279194   5.680   5.536  11.218 -0.1626 -0.6005  0.1213
19260TIP3    H179195   5.660   5.547  11.125 -0.9148 -1.5063  0.1643
19260TIP3    H279196   5.724   5.451  11.222 -0.5722 -0.7881  0.6589
19261TIP3   OH279197   5.155   2.415   6.300  0.2016  0.3374  0.1966
19261TIP3    H179198   5.082   2.477   6.308  0.1239  0.5148 -1.7812
19261TIP3    H279199   5.121   2.333   6.337 -1.4739  0.0519 -1.8985
19262TIP3   OH279200   0.315   2.348   1.248 -0.0325 -0.6042  0.3539
19262TIP3    H179201   0.273   2.354   1.162 -0.0864  0.2502  0.4377
19262TIP3    H279202   0.287   2.427   1.294  0.8124 -0.5552  0.7921
19263TIP3   OH279203   0.683   0.070  15.804  0.3837 -0.6582  0.2659
19263TIP3    H179204   0.602   0.121  15.796  0.5399 -0.3612  0.5292
19263TIP3    H279205   0.708   0.048  15.714  2.0676  2.5100 -0.1094
19264TIP3   OH279206   0.522   3.525  10.743  0.1854  0.1842  0.2300
19264TIP3    H179207   0.431   3.508  10.767 -0.3040  2.1501 -0.1289
19264TIP3    H279208   0.531   3.620  10.750  2.6228 -0.1081  1.6809
19265TIP3   OH279209   4.221   4.031  16.339  0.2181 -0.0443 -0.2078
19265TIP3    H179210   4.276   4.058  16.413  1.2558 -0.0841 -0.9613
19265TIP3    H279211   4.154   4.099  16.334  1.9811  1.6838 -1.1909
19266TIP3   OH279212   2.253   3.161   1.220 -0.0278  0.7762  0.5964
19266TIP3    H179213   2.240   3.074   1.183  0.5621  1.5408 -1.4662
19266TIP3    H279214   2.225   3.153   1.311 -3.3511 -0.6871 -0.4816
19267TIP3   OH279215   4.665   0.330   1.440  0.2990  0.0556 -0.3331
19267TIP3    H179216   4.579   0.341   1.400  0.3354  1.2607 -0.0974
19267TIP3    H279217   4.711   0.412   1.419  2.1107 -1.3855 -2.2645
19268TIP3   OH279218   3.446   1.900   0.249  0.3326 -0.0383  0.1987
19268TIP3    H179219   3.473   1.849   0.173 -1.0288  0.4861 -0.6688
19268TIP3    H279220   3.452   1.991   0.220  0.0480  0.1778  0.8056
19269TIP3   OH279221   1.565   4.406   4.398 -0.1072 -0.5971 -0.2077
19269TIP3    H179222   1.510   4.427   4.474  1.1340  0.1196  0.5193
19269TIP3    H279223   1.531   4.461   4.328 -1.2077 -1.1974 -0.1445
19270TIP3   OH279224   3.891   3.244   5.156 -0.2913  0.4503 -0.3721
19270TIP3    H179225   3.969   3.269   5.105 -1.5825 -0.0106 -2.6501
19270TIP3    H279226   3.859   3.326   5.193  0.6096  0.8101 -0.3754
19271TIP3   OH279227   2.304   2.568   5.313 -0.0087  0.5359 -0.0387
19271TIP3    H179228   2.375   2.599   5.256 -0.0977 -0.2414 -0.5729
19271TIP3    H279229   2.248   2.516   5.256  0.3177 -0.8993  0.9081
19272TIP3   OH279230   0.975   4.757   6.017  0.0268 -0.2254  0.2368
19272TIP3    H179231   1.000   4.831   6.072 -0.9933  0.6028 -0.3897
19272TIP3    H279232   1.040   4.756   5.947 -1.7571  2.0631 -1.5139
19273TIP3   OH279233   4.579   3.437   5.182  0.0655 -0.8164  0.2691
19273TIP3    H179234   4.501   3.384   5.169  1.4208 -2.1680 -2.7495
19273TIP3    H279235   4.570   3.508   5.118  0.5001 -0.0138  1.0925
19274TIP3   OH279236   3.238   3.811  12.630 -0.3906  0.4379 -0.1161
19274TIP3    H179237   3.189   3.861  12.566  1.0581  3.6585  1.2123
19274TIP3    H279238   3.330   3.820  12.603  0.0489 -0.0316  1.1605
19275TIP3   OH279239   2.721   2.578  14.028 -0.3961  0.5480  0.2721
19275TIP3    H179240   2.791   2.642  14.018 -0.0638 -0.2243 -2.8540
19275TIP3    H279241   2.642   2.623  14.000 -0.3452 -0.0248 -0.8354
19276TIP3   OH279242   0.113   0.044  15.907 -0.4688 -0.2833 -0.4473
19276TIP3    H179243   0.125   0.033  15.813  1.7742  0.0405 -0.2451
19276TIP3    H279244   0.029   0.088  15.916 -0.4696  0.1417 -2.3386
19277TIP3   OH279245   3.483   5.840   3.907  0.1998 -0.4216  0.5783
19277TIP3    H179246   3.401   5.791   3.896 -0.0683 -0.2221  1.6675
19277TIP3    H279247   3.474   5.884   3.991  1.0193  0.4036  0.2397
19278TIP3   OH279248   3.899   5.671   5.168 -0.5676  0.0904  0.1115
19278TIP3    H179249   3.922   5.624   5.248 -2.5250  2.1770  1.9672
19278TIP3    H279250   3.971   5.652   5.108  2.1272  0.2870  3.1045
19279TIP3   OH279251   5.865   3.268  14.481 -0.8333 -0.0181 -0.2837
19279TIP3    H179252   5.903   3.348  14.447  1.3900 -0.4997  0.9885
19279TIP3    H279253   5.890   3.266  14.574 -0.0202 -2.6402 -0.5228
19280TIP3   OH279254   2.026   0.940   5.972 -0.1596  0.6164  0.2782
19280TIP3    H179255   1.982   0.919   5.889 -0.1754 -1.9531  0.8915
19280TIP3    H279256   1.961   0.991   6.021 -0.5138  1.3118 -0.8769
19281TIP3   OH279257   1.645   5.028  15.567 -0.6639  0.1125  0.0988
19281TIP3    H179258   1.718   5.037  15.629 -0.6762 -0.1087  0.1492
19281TIP3    H279259   1.571   5.072  15.611 -0.6686 -0.0305  0.2379
19282TIP3   OH279260   0.743   4.046   1.503 -0.3222  0.1163  0.5131
19282TIP3    H179261   0.831   4.075   1.527 -0.9913  2.0217  0.6971
19282TIP3    H279262   0.738   4.062   1.409 -0.2975 -0.4743  0.4096
19283TIP3   OH279263   0.526   4.388  12.234  0.2229  0.8769 -0.2347
19283TIP3    H179264   0.480   4.461  12.275 -0.2276  0.5460 -0.1415
19283TIP3    H279265   0.582   4.429  12.168  0.0785  1.3151 -0.0875
19284TIP3   OH279266   6.166   6.385   1.911  0.1215 -0.2971  0.2955
19284TIP3    H179267   6.142   6.406   1.820 -0.9691  4.0345  1.4717
19284TIP3    H279268   6.084   6.354   1.950  0.0144  0.1567  0.4303
19285TIP3   OH279269   6.208   6.077  15.248  0.3566  0.6557 -0.0508
19285TIP3    H179270   6.155   6.086  15.168  0.4376  1.6729  0.0035
19285TIP3    H279271   6.296   6.103  15.220  0.6230 -0.0709  0.1049
19286TIP3   OH279272   4.553   1.960  11.776 -0.0769 -0.5516  0.3351
19286TIP3    H179273   4.511   1.973  11.861  0.0785  0.8516  0.2195
19286TIP3    H279274   4.481   1.944  11.715 -0.2481 -0.7293  0.5858
19287TIP3   OH279275   2.893   2.346   3.309 -0.1425  0.4007  0.2451
19287TIP3    H179276   2.952   2.383   3.243 -1.7980  0.6245 -1.1324
19287TIP3    H279277   2.807   2.349   3.268 -0.9219 -1.1095  1.7495
19288TIP3   OH279278   0.897   3.004  14.725  0.1855 -0.4713  0.1224
19288TIP3    H179279   0.882   2.934  14.662 -0.0230  0.8812 -1.3701
19288TIP3    H279280   0.934   3.076  14.673  0.6477  0.4319  1.6610
19289TIP3   OH279281   5.909   1.031   2.596  0.1600 -0.4258  0.4650
19289TIP3    H179282   5.816   1.010   2.591  0.3527 -1.6902  2.1652
19289TIP3    H279283   5.918   1.085   2.675  1.0624 -1.3679  1.0169
19290TIP3   OH279284   1.418   1.711   5.093  0.3634 -0.5157  0.2068
19290TIP3    H179285   1.497   1.733   5.142  0.8801 -2.0050  0.0582
19290TIP3    H279286   1.353   1.692   5.161 -0.6046  2.9819  0.3925
19291TIP3   OH279287   2.749   0.334   3.509  0.5234 -0.3934 -0.1578
19291TIP3    H179288   2.714   0.252   3.544 -0.6743 -0.7468 -2.0891
19291TIP3    H279289   2.720   0.401   3.571 -0.0017 -1.2197  0.4917
19292TIP3   OH279290   0.627   0.324   1.255  0.3834  0.1652 -0.2578
19292TIP3    H179291   0.579   0.264   1.198  0.7856 -1.2359  0.8543
19292TIP3    H279292   0.572   0.331   1.334 -1.3857  3.9714 -1.6678
19293TIP3   OH279293   4.963   6.447  16.143 -0.8633  0.2913 -0.0415
19293TIP3    H179294   4.948   6.358  16.176  0.8511  0.1492  0.3969
19293TIP3    H279295   5.031   6.436  16.077  0.8811  1.5461  1.5030
19294TIP3   OH279296   6.039   0.634  15.869 -0.1211 -0.2989 -0.1929
19294TIP3    H179297   6.061   0.585  15.789  2.4402 -1.4723  1.1520
19294TIP3    H279298   6.051   0.570  15.939 -2.5030  0.6742  1.1520
19295TIP3   OH279299   3.226   1.194  15.014  0.4742  0.1763  0.1474
19295TIP3    H179300   3.214   1.108  14.974  1.5443  0.9284 -1.8096
19295TIP3    H279301   3.284   1.241  14.955  0.7542  1.8957  1.7397
19296TIP3   OH279302   5.483   6.223  15.953  0.4190  0.6180  0.0844
19296TIP3    H179303   5.551   6.273  15.909  2.2254 -1.4745  0.3899
19296TIP3    H279304   5.450   6.163  15.886  0.5446  0.0166  0.5542
19297TIP3   OH279305   3.115   4.383  15.064  0.1179 -0.0962 -0.0714
19297TIP3    H179306   3.082   4.380  15.153  0.0868 -0.3430 -0.0911
19297TIP3    H279307   3.061   4.320  15.016 -0.6627  0.9101 -0.5336
19298TIP3   OH279308   5.584   1.671   1.378 -0.5065 -0.4675 -0.3423
19298TIP3    H179309   5.582   1.613   1.302  0.0642 -1.8119  0.6430
19298TIP3    H279310   5.510   1.642   1.432 -0.8948  0.4606 -0.3834
19299TIP3   OH279311   4.482   1.636  16.568 -0.4562  0.0501  0.6074
19299TIP3    H179312   4.466   1.584  16.490 -0.3680 -0.2251  0.7740
19299TIP3    H279313   4.565   1.681  16.551 -1.7710  2.1420 -0.6217
19300TIP3   OH279314   2.654   4.864  11.748 -0.3463  0.0190 -0.6443
19300TIP3    H179315   2.694   4.875  11.834 -3.5109 -0.0562  0.9393
19300TIP3    H279316   2.689   4.935  11.696 -0.5454  1.8117  1.5882
19301TIP3   OH279317   6.723   2.904   5.556  0.1353  0.4582  0.2832
19301TIP3    H179318   6.690   2.822   5.519 -1.1938  0.6094  1.0577
19301TIP3    H279319   6.720   2.966   5.483 -1.8053  0.5846  0.4334
19302TIP3   OH279320   6.063   3.682   1.469 -0.1024  0.1065  0.6340
19302TIP3    H179321   6.083   3.675   1.376  0.2873  0.1252  0.7144
19302TIP3    H279322   5.968   3.694   1.473 -0.0795  0.4038  0.2296
19303TIP3   OH279323   5.125   2.993   3.440  0.3137 -0.2316 -0.0423
19303TIP3    H179324   5.097   2.991   3.349  1.1003  0.8836 -0.3154
19303TIP3    H279325   5.157   3.082   3.454  1.9870 -0.9345  0.7903
19304TIP3   OH279326   1.939   1.088   4.272  0.0407  0.2084 -0.2747
19304TIP3    H179327   1.969   1.093   4.181  0.2892  1.0266 -0.1523
19304TIP3    H279328   1.899   1.173   4.289 -1.1240 -0.3933  0.0013
19305TIP3   OH279329   6.601   3.565  12.329 -0.0422 -0.5067  0.1210
19305TIP3    H179330   6.638   3.521  12.405  1.2295 -0.2807 -0.3418
19305TIP3    H279331   6.530   3.508  12.300 -0.8353 -0.3665  1.7292
19306TIP3   OH279332   5.354   2.618   3.669 -0.0149  0.0904 -0.0121
19306TIP3    H179333   5.289   2.550   3.652  0.5052 -0.1936 -0.8725
19306TIP3    H279334   5.341   2.681   3.598 -0.4430  0.8582  0.7406
19307TIP3   OH279335   3.839   0.576  16.500 -0.5928 -0.3858 -0.4368
19307TIP3    H179336   3.919   0.615  16.533 -1.4958 -0.3834  1.8301
19307TIP3    H279337   3.851   0.574  16.405  1.1918  1.5678 -0.2985
19308TIP3   OH279338   6.623   1.720  12.714  0.1018 -0.1953  0.2432
19308TIP3    H179339   6.683   1.685  12.648  0.2290 -0.2776  0.4011
19308TIP3    H279340   6.675   1.722  12.795  1.3059  3.8206 -0.4920
19309TIP3   OH279341   0.239   6.526   5.300 -0.2340  0.1438 -0.6113
19309TIP3    H179342   0.203   6.552   5.385  3.0232  2.4492  0.1295
19309TIP3    H279343   0.306   6.461   5.321 -2.0910 -2.2542 -1.7976
19310TIP3   OH279344   5.325   3.514   3.843 -0.2414  0.0601  0.4177
19310TIP3    H179345   5.390   3.564   3.793 -0.6619  0.1414 -0.0514
19310TIP3    H279346   5.313   3.434   3.792  0.1097 -0.3317  0.9433
19311TIP3   OH279347   5.232   5.096  12.149 -0.3651  0.2391 -0.0341
19311TIP3    H179348   5.309   5.153  12.148 -0.0255 -0.2153 -1.0181
19311TIP3    H279349   5.257   5.023  12.092 -0.4489 -1.3333  1.8800
19312TIP3   OH279350   0.460   6.570   4.879 -0.0163  0.5241 -0.7115
19312TIP3    H179351   0.467   6.490   4.827 -1.7126  1.3985 -2.3285
19312TIP3    H279352   0.397   6.549   4.948  0.7572 -0.0108 -0.1488
19313TIP3   OH279353   1.370   3.801  11.174 -0.1915  0.4221  0.1586
19313TIP3    H179354   1.338   3.891  11.180  0.4373  0.8049 -1.9252
19313TIP3    H279355   1.297   3.753  11.135 -0.3768  0.0955  0.8971
19314TIP3   OH279356   4.037   5.075  16.604  0.0271 -0.6456 -0.0094
19314TIP3    H179357   3.943   5.069  16.617  0.1822 -0.5371  1.2613
19314TIP3    H279358   4.066   5.142  16.666  1.2850 -2.5250  1.5216
19315TIP3   OH279359   4.745   0.157   5.169 -0.9399 -0.8142  0.3810
19315TIP3    H179360   4.682   0.181   5.236 -0.1140  0.5812  0.6799
19315TIP3    H279361   4.716   0.071   5.138 -3.6633  0.3206 -0.3559
19316TIP3   OH279362   5.676   0.875   1.995 -0.6562 -0.2971  0.4623
19316TIP3    H179363   5.593   0.893   2.040 -1.0948 -1.9050  0.3095
19316TIP3    H279364   5.658   0.798   1.942  0.8911 -0.5275  0.2655
19317TIP3   OH279365   0.309   2.870  15.090 -0.3752  0.1444  0.0003
19317TIP3    H179366   0.348   2.855  15.177  2.1718  1.7647 -0.8070
19317TIP3    H279367   0.354   2.808  15.033 -0.7489  0.3525 -0.5182
19318TIP3   OH279368   5.625   0.900  15.779  0.3150  0.0044  0.0778
19318TIP3    H179369   5.545   0.862  15.814  0.1838 -0.0643 -0.2907
19318TIP3    H279370   5.693   0.835  15.798  0.6482  0.9161  2.1110
19319TIP3   OH279371   0.053   3.070   2.151 -0.4911  0.0993  0.5578
19319TIP3    H179372   0.008   3.010   2.090 -0.2859  0.5391 -0.0290
19319TIP3    H279373   0.115   3.117   2.096 -0.0264  0.2206  1.1894
19320TIP3   OH279374   3.539   4.892   5.037  1.0890 -0.1928  0.1962
19320TIP3    H179375   3.608   4.872   5.100  1.1235  0.0722  0.2435
19320TIP3    H279376   3.582   4.886   4.952  0.7454 -1.8136  0.1104
19321TIP3   OH279377   2.451   4.408   2.960  0.0886 -0.1761 -0.7484
19321TIP3    H179378   2.391   4.462   3.011 -2.5197 -0.7763 -3.0618
19321TIP3    H279379   2.527   4.464   2.946 -0.9934  1.5558  0.0896
19322TIP3   OH279380   6.178   4.656   5.930  0.2168  0.0431  0.1599
19322TIP3    H179381   6.222   4.737   5.957 -0.0485  0.3814 -0.3973
19322TIP3    H279382   6.194   4.595   6.001 -0.3011  0.8549  0.9841
19323TIP3   OH279383   4.202   6.306  16.679  0.1304  0.0638 -0.6066
19323TIP3    H179384   4.240   6.389  16.709 -1.3298  0.1868  1.0141
19323TIP3    H279385   4.276   6.245  16.677  0.7043  0.6617  1.0565
19324TIP3   OH279386   3.451   1.006  16.832  0.7347 -0.1409  0.3601
19324TIP3    H179387   3.380   1.016  16.769  0.5381  3.2275  1.0336
19324TIP3    H279388   3.531   1.012  16.779  0.5511  0.2830  0.1266
19325TIP3   OH279389   0.374   0.069  10.516  0.2845 -0.5136 -0.5544
19325TIP3    H179390   0.440   0.130  10.485  0.2763 -0.2175  0.0091
19325TIP3    H279391   0.311   0.064  10.444  0.9326 -0.8242 -1.1052
19326TIP3   OH279392   4.246   3.527  14.102 -0.4340  0.0529  0.2140
19326TIP3    H179393   4.204   3.450  14.140 -0.1331  0.9472  2.3887
19326TIP3    H279394   4.325   3.541  14.154 -0.7964  2.2046  0.2520
19327TIP3   OH279395   5.435   5.720   0.320 -0.0316 -0.0027  0.2618
19327TIP3    H179396   5.520   5.763   0.305  0.1613 -0.2077  0.7539
19327TIP3    H279397   5.447   5.671   0.402 -1.3388  1.7720  1.5443
19328TIP3   OH279398   1.309   3.199  14.245 -0.5837  0.4600 -0.0366
19328TIP3    H179399   1.270   3.225  14.161 -1.9063  0.6306  0.6166
19328TIP3    H279400   1.237   3.157  14.293  0.2271  0.1459  0.9186
19329TIP3   OH279401   1.478   4.706   4.928 -0.0829 -0.1463 -0.1333
19329TIP3    H179402   1.567   4.687   4.899 -0.3690 -0.3600 -0.8932
19329TIP3    H279403   1.442   4.621   4.952 -0.0618 -0.0512  0.2393
19330TIP3   OH279404   1.341   3.298  15.581  0.6488 -0.1083 -0.1270
19330TIP3    H179405   1.249   3.307  15.607  0.7742 -0.5152  0.4750
19330TIP3    H279406   1.385   3.373  15.623  0.8306 -0.6985  0.7517
19331TIP3   OH279407   0.354   2.764   6.564 -0.1785 -0.2258  0.0442
19331TIP3    H179408   0.302   2.809   6.496  0.4582 -0.8240 -0.8480
19331TIP3    H279409   0.296   2.761   6.640 -1.5120 -0.9647 -0.9720
19332TIP3   OH279410   3.022   6.237  12.357  0.9848  0.5324 -0.3721
19332TIP3    H179411   2.987   6.178  12.290  0.1466  0.9412 -0.2971
19332TIP3    H279412   2.946   6.262  12.409  1.6623  0.0542  0.8744
19333TIP3   OH279413   1.872   3.153   2.683 -0.5407  0.2139 -0.0365
19333TIP3    H179414   1.790   3.187   2.648 -1.5169  1.4836  3.2549
19333TIP3    H279415   1.886   3.070   2.637 -3.3312  0.2823 -1.1067
19334TIP3   OH279416   5.010   3.867   5.688 -1.0420  0.3892  0.3748
19334TIP3    H179417   4.935   3.898   5.738 -0.7618  0.8911  0.4882
19334TIP3    H279418   5.051   3.801   5.744 -1.1611  0.4138  0.4914
19335TIP3   OH279419   3.961   5.194  14.148 -0.0111 -0.0666 -0.8071
19335TIP3    H179420   3.903   5.203  14.224 -1.7834 -2.0850 -1.8525
19335TIP3    H279421   3.928   5.259  14.086 -0.1005 -0.0757 -0.7696
19336TIP3   OH279422   1.163   2.995   0.212 -0.9016  0.2374 -1.0479
19336TIP3    H179423   1.100   2.932   0.178 -2.3380  2.3888 -2.4646
19336TIP3    H279424   1.155   2.987   0.307 -2.5533 -0.2555 -1.2110
19337TIP3   OH279425   1.455   3.587   5.116  0.7502 -0.3794 -0.0882
19337TIP3    H179426   1.401   3.656   5.079  2.1436  0.9678  0.3389
19337TIP3    H279427   1.394   3.531   5.163 -0.4933  0.1410 -1.0655
19338TIP3   OH279428   4.035   6.420  14.339  0.6840 -0.1034  0.1622
19338TIP3    H179429   4.095   6.416  14.264  2.2934  0.5412  1.3741
19338TIP3    H279430   4.055   6.503  14.381  0.6066 -0.9641  1.9504
19339TIP3   OH279431   5.219   3.456   1.887  0.1289 -0.3078  0.7075
19339TIP3    H179432   5.140   3.491   1.846  0.3796  2.3072  2.3486
19339TIP3    H279433   5.287   3.469   1.822 -0.3718 -0.6146  0.1123
19340TIP3   OH279434   4.594   5.289   3.050 -0.0338  0.2277 -0.1549
19340TIP3    H179435   4.540   5.289   3.129 -1.0403  1.2472 -0.8167
19340TIP3    H279436   4.658   5.219   3.063  1.2445  1.8055  2.5430
19341TIP3   OH279437   5.153   2.922   6.180  0.2302  0.2256  0.0316
19341TIP3    H179438   5.217   2.854   6.200  0.4201  0.9160  1.8721
19341TIP3    H279439   5.078   2.901   6.236  0.0428  1.1810  0.1450
19342TIP3   OH279440   1.764   5.469   4.939 -0.4759 -0.6158 -0.2570
19342TIP3    H179441   1.795   5.389   4.897  2.5692  1.0522 -1.3753
19342TIP3    H279442   1.843   5.522   4.951 -2.4539  2.3929  0.0461
19343TIP3   OH279443   2.820   5.016   4.734 -0.1346 -0.2907 -0.5732
19343TIP3    H179444   2.877   5.070   4.679 -2.1721  2.1965 -0.3328
19343TIP3    H279445   2.857   5.023   4.822  0.9378 -1.2143 -0.9332
19344TIP3   OH279446   0.187   1.852  14.936  0.4237  0.8959 -0.1532
19344TIP3    H179447   0.278   1.871  14.960  0.5663 -1.2993  1.1301
19344TIP3    H279448   0.136   1.891  15.007  0.4484  0.6567 -0.0065
19345TIP3   OH279449   1.439   4.096  13.633  0.4958  0.5573  0.4970
19345TIP3    H179450   1.457   4.162  13.700  0.2617  0.3142  0.8038
19345TIP3    H279451   1.453   4.141  13.550 -1.2902  1.4738  0.6759
19346TIP3   OH279452   6.751   2.277  16.858 -0.2096  0.0317 -0.2273
19346TIP3    H179453   6.845   2.291  16.864 -0.1604  1.4811 -3.4153
19346TIP3    H279454   6.716   2.307  16.942  1.9186  1.7433  0.0541
19347TIP3   OH279455   0.890   2.801  15.646  0.5187  0.3224 -0.6534
19347TIP3    H179456   0.923   2.760  15.726 -0.7271  2.1676  0.8767
19347TIP3    H279457   0.964   2.853  15.613  0.6820  0.4989 -0.0167
19348TIP3   OH279458   4.340   6.390   0.479 -0.0235  0.2097  0.2201
19348TIP3    H179459   4.388   6.441   0.413 -1.8257  0.7668 -0.7056
19348TIP3    H279460   4.396   6.393   0.557  1.3750  0.9360 -0.7819
19349TIP3   OH279461   0.715   2.908   3.527 -0.2908 -0.1481 -0.3728
19349TIP3    H179462   0.772   2.916   3.451  0.8899  2.1321  0.6861
19349TIP3    H279463   0.629   2.934   3.496 -0.0859 -0.5263 -1.2506
19350TIP3   OH279464   2.710   3.983  12.099  0.0049 -0.3786  0.2750
19350TIP3    H179465   2.672   3.996  12.012 -0.4809 -0.3547  0.4918
19350TIP3    H279466   2.683   4.060  12.149 -0.9273 -1.0811  0.8757
19351TIP3   OH279467   6.490   2.087   2.574 -0.1566 -0.3732 -0.1565
19351TIP3    H179468   6.551   2.152   2.539  0.3201 -0.8967 -0.3162
19351TIP3    H279469   6.486   2.020   2.505 -2.8420  0.8653 -1.2439
19352TIP3   OH279470   3.059   1.330   4.423  0.0825 -0.0869  0.6822
19352TIP3    H179471   3.000   1.400   4.396 -1.6859 -1.2608  1.4409
19352TIP3    H279472   3.002   1.262   4.459  1.9046 -1.1621  1.6376
19353TIP3   OH279473   5.698   5.815  16.906 -0.6678  0.2529 -0.3676
19353TIP3    H179474   5.701   5.901  16.862  0.7877  0.2889 -0.1919
19353TIP3    H279475   5.688   5.836  16.999  0.6015  0.2475 -0.2281
19354TIP3   OH279476   0.833   0.038  12.481 -0.0218 -0.1215  0.1033
19354TIP3    H179477   0.912  -0.013  12.495  0.0834 -0.8585 -2.8887
19354TIP3    H279478   0.861   0.129  12.486  0.6334 -0.3663  0.9297
19355TIP3   OH279479   4.020   2.328   1.596  0.1312  0.5159  0.6591
19355TIP3    H179480   3.955   2.324   1.525  0.8194  1.7363 -0.0510
19355TIP3    H279481   3.973   2.364   1.670  0.0640  1.6788  0.0565
19356TIP3   OH279482   4.141   3.369  15.835 -0.5066  0.4732 -0.3176
19356TIP3    H179483   4.224   3.415  15.838  0.2009 -0.8627  0.9480
19356TIP3    H279484   4.092   3.402  15.910 -0.0511 -0.7239  0.5139
19357TIP3   OH279485   1.509   2.819  12.964 -0.2421  0.5491  0.3650
19357TIP3    H179486   1.559   2.889  12.921  0.4308 -0.1809 -0.0465
19357TIP3    H279487   1.421   2.855  12.974 -0.0827  1.1842 -0.4960
19358TIP3   OH279488   6.391   0.769   5.269 -0.2472  0.0378  0.4493
19358TIP3    H179489   6.335   0.841   5.239  0.0376 -0.0856 -0.4129
19358TIP3    H279490   6.475   0.812   5.289 -0.1724 -0.0037  0.2309
19359TIP3   OH279491   4.873   1.346   3.217  0.0357  0.0124  0.2808
19359TIP3    H179492   4.891   1.256   3.189 -1.3547 -0.4437  0.8020
19359TIP3    H279493   4.900   1.349   3.309  2.1661  0.7804 -0.3298
19360TIP3   OH279494   3.758   1.669   0.223 -0.3616 -0.6156  0.2138
19360TIP3    H179495   3.777   1.762   0.234 -0.4696 -0.5704  0.0311
19360TIP3    H279496   3.754   1.657   0.128  0.9475 -1.0718  0.2047
19361TIP3   OH279497   4.481   6.722  13.252 -0.3063  0.4818 -0.2423
19361TIP3    H179498   4.512   6.812  13.262  0.2824  0.2960 -0.4151
19361TIP3    H279499   4.560   6.669  13.254 -0.7789 -0.1879  1.7753
19362TIP3   OH279500   3.610   0.760  16.537 -0.0440  0.0060 -0.4474
19362TIP3    H179501   3.689   0.811  16.559  0.1094 -0.3460 -0.1814
19362TIP3    H279502   3.643   0.674  16.514 -0.3592 -0.1668 -0.2529
19363TIP3   OH279503   5.929   2.579   0.550  0.5571  0.0812 -0.1999
19363TIP3    H179504   5.843   2.620   0.549  0.3328 -0.3996 -0.5616
19363TIP3    H279505   5.929   2.520   0.475  0.7121 -0.9054  0.5514
19364TIP3   OH279506   0.982   0.646   2.446  0.2123 -0.2700  0.0417
19364TIP3    H179507   0.907   0.598   2.483  0.5754 -1.9151 -1.3154
19364TIP3    H279508   0.953   0.674   2.359  0.8053  0.0426 -0.0611
19365TIP3   OH279509   5.242   0.510  14.204 -0.8392  0.0999  0.5356
19365TIP3    H179510   5.266   0.602  14.203  0.5198 -0.2284  1.1856
19365TIP3    H279511   5.156   0.506  14.163 -0.9350  1.6619  0.5863
19366TIP3   OH279512   2.876   3.683   5.643  0.2245 -0.5880  0.5153
19366TIP3    H179513   2.847   3.755   5.587  1.8017  0.8402  1.4833
19366TIP3    H279514   2.971   3.682   5.634  0.5115 -0.3477  3.1112
19367TIP3   OH279515   6.445   3.069  14.111  0.4826  0.6268 -0.6151
19367TIP3    H179516   6.407   3.139  14.058  0.2401  0.8403 -0.1592
19367TIP3    H279517   6.391   2.992  14.091 -0.3129  0.9647  0.1546
19368TIP3   OH279518   4.146   3.791  14.973 -0.7026  0.7833  0.6660
19368TIP3    H179519   4.093   3.712  14.985 -0.4153  0.3678 -0.7149
19368TIP3    H279520   4.095   3.847  14.916  0.4182  0.2808 -0.8680
19369TIP3   OH279521   6.370   0.787   0.017 -0.2789 -0.1081 -0.4693
19369TIP3    H179522   6.298   0.740  -0.027 -1.2071  1.1708 -0.3589
19369TIP3    H279523   6.342   0.793   0.108  1.6082 -2.6931  0.3282
19370TIP3   OH279524   2.579   0.060  15.195  0.4615 -0.5166  0.5979
19370TIP3    H179525   2.627   0.080  15.275  0.1969 -2.6341  1.3253
19370TIP3    H279526   2.581  -0.035  15.189 -1.0180 -0.4789 -0.9921
19371TIP3   OH279527   0.464   2.423   3.131 -0.1147 -0.2040  0.5872
19371TIP3    H179528   0.492   2.341   3.171 -1.3935 -0.7331  0.4152
19371TIP3    H279529   0.544   2.476   3.127  1.0924 -2.0477 -0.8103
19372TIP3   OH279530   4.559   1.592  15.992 -0.0164 -0.1460  0.2286
19372TIP3    H179531   4.571   1.498  16.006  0.7083 -0.2421 -1.0424
19372TIP3    H279532   4.478   1.598  15.941 -0.0455 -0.0707  0.2827
19373TIP3   OH279533   2.955   3.397  16.394  0.2000  0.0144  0.3984
19373TIP3    H179534   2.900   3.373  16.319  0.2405 -3.1608  1.3496
19373TIP3    H279535   3.028   3.445  16.355 -0.6003 -0.1824 -1.4296
19374TIP3   OH279536   0.637   5.558  15.313  0.3100  0.1876  0.2785
19374TIP3    H179537   0.699   5.623  15.279 -0.7615  0.8695 -0.4056
19374TIP3    H279538   0.680   5.522  15.391  1.2309  1.1879  0.2418
19375TIP3   OH279539   5.095   2.756   5.423 -0.2524 -0.7986  0.0182
19375TIP3    H179540   5.111   2.849   5.405  0.9477 -0.6650  1.6220
19375TIP3    H279541   5.098   2.714   5.338  1.5194  0.3123 -0.5113
19376TIP3   OH279542   4.388   5.654  12.056  0.2831  0.2440 -0.1289
19376TIP3    H179543   4.407   5.581  12.114  0.7892 -0.6316 -1.3631
19376TIP3    H279544   4.416   5.732  12.105 -0.2576 -0.3844  1.1895
19377TIP3   OH279545   4.076   4.294  14.139  0.6930 -0.8687 -0.0798
19377TIP3    H179546   4.085   4.203  14.111  0.5865 -0.8754 -0.0921
19377TIP3    H279547   4.036   4.290  14.225 -1.2771 -0.7692 -0.9527
19378TIP3   OH279548   4.287   0.531   3.381 -0.3381 -0.1446  0.6692
19378TIP3    H179549   4.247   0.601   3.329 -1.6872 -0.9491  0.5879
19378TIP3    H279550   4.252   0.544   3.469 -0.3938 -0.5677  0.7097
19379TIP3   OH279551   5.270   2.441   0.409 -0.5164 -0.2297  0.2386
19379TIP3    H179552   5.189   2.481   0.441 -2.3653 -0.4771 -3.8517
19379TIP3    H279553   5.241   2.363   0.362  2.1822 -0.7734 -0.5925
19380TIP3   OH279554   1.181   4.967   1.470  0.4598  0.0116 -0.0869
19380TIP3    H179555   1.208   4.891   1.418  0.2750  0.4620 -0.8578
19380TIP3    H279556   1.144   5.028   1.405 -0.5807  0.2209  0.6989
19381TIP3   OH279557   6.482   4.444   5.510 -0.1857  0.3504  0.6464
19381TIP3    H179558   6.521   4.390   5.578 -1.3109 -0.8097  0.3992
19381TIP3    H279559   6.395   4.467   5.544 -1.5330 -1.8354 -1.1362
19382TIP3   OH279560   3.459   0.171   0.050 -0.1585  0.0327 -0.5141
19382TIP3    H179561   3.511   0.251   0.057 -1.1769  0.7486 -0.8932
19382TIP3    H279562   3.470   0.127   0.134  0.3460  0.6157 -0.2754
19383TIP3   OH279563   3.323   2.494  14.260 -0.0161 -0.3535  0.0272
19383TIP3    H179564   3.312   2.411  14.214  1.4174 -1.4021  1.4910
19383TIP3    H279565   3.234   2.521  14.282 -0.4664 -1.9220  0.2091
19384TIP3   OH279566   6.180   4.523   3.458 -0.7783 -0.5626  0.5745
19384TIP3    H179567   6.182   4.618   3.470  2.1819 -0.3768 -0.7983
19384TIP3    H279568   6.124   4.509   3.382 -0.4327  0.1926  0.1743
19385TIP3   OH279569   4.449   5.827  12.286  0.1082  0.0465 -0.5582
19385TIP3    H179570   4.365   5.832  12.331 -0.0333 -0.7471 -0.7155
19385TIP3    H279571   4.450   5.903  12.227 -0.7266 -0.2336 -0.9352
19386TIP3   OH279572   2.868   5.551  12.654 -0.2908 -0.3386 -0.6910
19386TIP3    H179573   2.789   5.558  12.708 -1.7188  0.3378 -2.8256
19386TIP3    H279574   2.879   5.457  12.640  0.7791 -0.6182  1.7164
19387TIP3   OH279575   4.805   0.615  16.529 -0.1125 -0.8037  0.0983
19387TIP3    H179576   4.851   0.645  16.607  0.0907  0.1456 -0.3698
19387TIP3    H279577   4.826   0.522  16.523  1.4919 -0.4551  0.0786
19388TIP3   OH279578   6.013   0.781  16.652 -0.2441 -0.1138 -0.4971
19388TIP3    H179579   5.991   0.688  16.654  0.5127 -0.2655  0.8395
19388TIP3    H279580   5.938   0.824  16.694 -0.2841 -0.1770 -0.5041
19389TIP3   OH279581   0.398   1.827  12.026  0.2473  0.7962 -0.1540
19389TIP3    H179582   0.439   1.812  11.941  0.3629 -0.5718  0.1273
19389TIP3    H279583   0.413   1.745  12.074 -0.7641  1.1565  0.7862
19390TIP3   OH279584   2.972   1.240   2.120 -0.2803  0.2824  0.3359
19390TIP3    H179585   2.883   1.256   2.152 -0.0469 -0.2152  1.2700
19390TIP3    H279586   3.012   1.186   2.188  0.0840 -1.2370 -1.0577
19391TIP3   OH279587   5.981   1.983   1.495 -0.1642 -0.1660 -0.0258
19391TIP3    H179588   5.896   1.939   1.495  0.1236 -0.7275  0.2120
19391TIP3    H279589   5.987   2.024   1.409 -2.0457  2.5460  1.0486
19392TIP3   OH279590   2.266   1.276   3.172  0.1452 -0.3807 -0.2792
19392TIP3    H179591   2.349   1.307   3.207  0.2511  0.4080 -1.2054
19392TIP3    H279592   2.289   1.224   3.095 -0.0072 -3.1464  1.4494
19393TIP3   OH279593   6.678   1.634  15.201  0.2020 -0.0957 -0.2938
19393TIP3    H179594   6.617   1.663  15.269  0.6953 -0.2899  0.2357
19393TIP3    H279595   6.763   1.670  15.227  0.4168 -0.2785 -0.7348
19394TIP3   OH279596   0.624   1.837  14.681 -0.1465 -0.3936 -0.1933
19394TIP3    H179597   0.660   1.847  14.593 -0.3206 -1.0869 -0.3491
19394TIP3    H279598   0.550   1.777  14.670 -0.5158 -0.0451  0.3349
19395TIP3   OH279599   5.446   6.112   0.236 -0.0905 -0.6601  0.1648
19395TIP3    H179600   5.395   6.192   0.251  1.5114 -0.0684  2.7449
19395TIP3    H279601   5.441   6.098   0.142 -2.1444  1.3199 -0.0568
19396TIP3   OH279602   3.108   2.293  16.932 -0.2733  0.0518 -0.2550
19396TIP3    H179603   3.130   2.385  16.949  0.4531 -0.3008  0.7527
19396TIP3    H279604   3.140   2.276  16.844  0.9188  0.3530  0.1141
19397TIP3   OH279605   4.943   3.283   5.661  0.2202 -0.0348 -0.3277
19397TIP3    H179606   4.933   3.339   5.585  1.4743  1.0621  0.2941
19397TIP3    H279607   5.011   3.325   5.713 -1.7142  0.0902  2.1836
19398TIP3   OH279608   6.307   3.705   2.160 -0.0746  0.1462 -0.4300
19398TIP3    H179609   6.258   3.665   2.088  0.6620  0.3447 -1.0580
19398TIP3    H279610   6.285   3.798   2.154 -0.6856  0.0366  0.1411
19399TIP3   OH279611   2.664   2.942  11.054 -0.3277  0.0429  0.3855
19399TIP3    H179612   2.758   2.930  11.038 -0.2808 -0.0856  0.7665
19399TIP3    H279613   2.639   3.012  10.994  0.3542  1.2290  1.4784
19400TIP3   OH279614   4.185   5.632   1.982  0.0612  0.2400  0.0301
19400TIP3    H179615   4.155   5.626   2.073  0.9442  0.4487  0.3405
19400TIP3    H279616   4.104   5.643   1.931 -0.6373 -2.0000  0.5658
19401TIP3   OH279617   1.493   1.096   5.112 -0.0235 -0.1675 -0.3023
19401TIP3    H179618   1.532   1.033   5.173  1.6770 -0.2089 -1.4056
19401TIP3    H279619   1.482   1.176   5.165 -2.4921 -1.4179  1.1895
19402TIP3   OH279620   1.166   4.955  15.374  0.2847  0.1430 -0.0028
19402TIP3    H179621   1.111   4.935  15.450  0.2689 -1.3919 -0.4045
19402TIP3    H279622   1.199   5.043  15.392 -1.9783  0.9527  0.4370
19403TIP3   OH279623   0.832   6.426  11.848  0.0689  0.7173  0.5924
19403TIP3    H179624   0.827   6.521  11.838 -1.5619  0.5929  0.0620
19403TIP3    H279625   0.838   6.393  11.758  0.3688  0.3074  0.7613
19404TIP3   OH279626   3.546   0.767  16.933 -0.2121 -0.4522 -0.0879
19404TIP3    H179627   3.641   0.769  16.922 -0.1612 -0.6712  0.2960
19404TIP3    H279628   3.517   0.854  16.905 -0.1515 -1.1667 -2.4399
19405TIP3   OH279629   2.503   2.681   5.155  0.1450  0.0812  0.5464
19405TIP3    H179630   2.467   2.718   5.075  0.2421 -0.0748  0.4297
19405TIP3    H279631   2.596   2.665   5.135 -0.2526 -1.7327  0.0538
19406TIP3   OH279632   5.931   4.340   6.491 -0.6252 -0.4271 -0.1313
19406TIP3    H179633   5.904   4.381   6.409 -1.0145  0.5802  0.4771
19406TIP3    H279634   5.972   4.411   6.541 -1.1458 -0.8103  0.8716
19407TIP3   OH279635   4.177   6.325   2.234 -0.2065  0.1415  0.2784
19407TIP3    H179636   4.136   6.411   2.228 -1.6588 -0.4738  1.0548
19407TIP3    H279637   4.172   6.302   2.327 -0.5990 -1.1381 -0.0448
19408TIP3   OH279638   4.776   5.390  16.856 -0.3597 -0.2615  0.1386
19408TIP3    H179639   4.681   5.397  16.866 -0.2888  0.0350  0.6113
19408TIP3    H279640   4.793   5.422  16.767 -0.7876 -1.0971 -0.2449
19409TIP3   OH279641   2.498   3.652   4.241  0.6925 -0.1561  0.3396
19409TIP3    H179642   2.429   3.703   4.199 -1.0348 -1.3570  1.6112
19409TIP3    H279643   2.498   3.569   4.194  2.1869  0.3203 -0.5053
19410TIP3   OH279644   1.010   6.274  16.194  0.7502  0.3081 -0.0876
19410TIP3    H179645   0.963   6.212  16.138  1.6643 -0.3224 -0.1751
19410TIP3    H279646   0.949   6.347  16.206  0.5516  0.4557 -1.9189
19411TIP3   OH279647   4.612   3.512   2.911 -0.5537  0.9565 -0.0730
19411TIP3    H179648   4.524   3.534   2.942 -1.9341 -1.7256 -1.8963
19411TIP3    H279649   4.612   3.540   2.819 -0.7185 -2.0781 -1.0476
19412TIP3   OH279650   4.807   0.198  14.729  0.4385  0.0713 -0.3909
19412TIP3    H179651   4.822   0.198  14.824 -0.5774  0.5718 -0.2178
19412TIP3    H279652   4.735   0.136  14.716  0.0844  0.5497 -0.7437
19413TIP3   OH279653   1.655   4.757   4.431 -0.2255 -0.3945  0.0890
19413TIP3    H179654   1.595   4.732   4.501  0.8859 -2.0812  0.4714
19413TIP3    H279655   1.614   4.832   4.389 -1.1780  0.2720  2.1863
19414TIP3   OH279656   4.891   5.955   1.887 -0.1842  0.7684 -0.4891
19414TIP3    H179657   4.810   5.927   1.845 -0.7803  1.3067  0.2923
19414TIP3    H279658   4.891   5.911   1.972  0.5030  0.5176 -0.6106
19415TIP3   OH279659   6.233   2.152   1.572  0.7406  0.5256  0.0921
19415TIP3    H179660   6.176   2.081   1.542  0.1198  1.4764 -0.9869
19415TIP3    H279661   6.188   2.189   1.648  0.4951  0.5239 -0.0540
19416TIP3   OH279662   1.085   6.313   3.873  0.3752  0.2026 -0.4853
19416TIP3    H179663   1.039   6.395   3.854  0.6481  0.1123 -1.5712
19416TIP3    H279664   1.092   6.311   3.969 -2.1950  0.0509 -0.2532
19417TIP3   OH279665   3.966   5.820  13.367 -0.2483 -0.0050  0.2737
19417TIP3    H179666   3.977   5.902  13.320  1.3396  0.5826  1.5989
19417TIP3    H279667   3.891   5.834  13.424  0.5269  0.8354  1.1007
19418TIP3   OH279668   6.499   6.646   3.823  0.5231 -0.2784 -0.2626
19418TIP3    H179669   6.483   6.739   3.838 -0.2199 -0.2758 -1.0508
19418TIP3    H279670   6.472   6.631   3.732  1.2288 -1.1285 -0.3392
19419TIP3   OH279671   6.313   6.056   4.351  0.0401  0.8147 -0.4372
19419TIP3    H179672   6.408   6.057   4.344  0.3554 -0.8456  2.6847
19419TIP3    H279673   6.284   6.006   4.275  1.9918 -2.4053  0.8237
19420TIP3   OH279674   3.719   4.471  13.990  0.2160  0.0135 -0.4957
19420TIP3    H179675   3.763   4.547  13.951  1.7343 -1.2229 -1.2308
19420TIP3    H279676   3.626   4.487  13.974  0.6164  0.9463 -2.0657
19421TIP3   OH279677   4.737   3.407  12.462 -0.6490 -0.0885  0.9842
19421TIP3    H179678   4.789   3.372  12.390 -1.7890  0.3182 -0.0508
19421TIP3    H279679   4.781   3.377  12.541 -0.5124 -2.2116  0.1118
19422TIP3   OH279680   3.285   0.722  13.940  0.2321 -0.5594  0.1527
19422TIP3    H179681   3.329   0.718  14.026  2.7323 -0.7425 -1.0797
19422TIP3    H279682   3.279   0.815  13.921  0.1642 -0.5360  0.2830
19423TIP3   OH279683   1.946   4.387   6.489  0.2935 -0.6086 -0.3597
19423TIP3    H179684   1.867   4.384   6.543  0.0564 -0.1217 -0.6729
19423TIP3    H279685   1.981   4.475   6.502  0.1195 -0.4190 -1.1607
19424TIP3   OH279686   3.863   2.632   0.339 -0.3861  0.7661  0.5859
19424TIP3    H179687   3.776   2.636   0.299 -0.0009  0.4376 -0.2965
19424TIP3    H279688   3.853   2.571   0.412 -1.4706  2.5262  1.9522
19425TIP3   OH279689   6.149   4.776   5.528  0.2105 -0.3994 -0.5857
19425TIP3    H179690   6.200   4.727   5.592 -0.7049 -1.1179 -0.3942
19425TIP3    H279691   6.130   4.713   5.459 -0.4934 -0.1612 -0.6125
19426TIP3   OH279692   6.661   6.053   5.460 -0.1167 -0.6155 -0.2117
19426TIP3    H179693   6.592   6.085   5.519 -0.1414 -0.2861 -0.4163
19426TIP3    H279694   6.614   6.025   5.381  0.1138  1.2480 -1.0522
19427TIP3   OH279695   4.911   1.941  15.575  0.2740  0.1462  0.6570
19427TIP3    H179696   4.915   1.846  15.567  1.0643  0.1946  0.3394
19427TIP3    H279697   5.003   1.967  15.585  0.1998  0.9917 -0.7246
19428TIP3   OH279698   3.401   3.544  17.202 -0.0227  0.6494 -0.2250
19428TIP3    H179699   3.474   3.606  17.200 -0.5228  1.2662  0.5369
19428TIP3    H279700   3.348   3.568  17.127 -1.1470  2.2986  1.0625
19429TIP3   OH279701   1.420   5.186  11.561  0.0168 -0.1116  0.7283
19429TIP3    H179702   1.354   5.130  11.521 -0.0311 -0.2599  1.0092
19429TIP3    H279703   1.385   5.206  11.648  0.8764 -1.1568  1.3331
19430TIP3   OH279704   4.346   6.568   1.316 -0.3600 -0.0962  0.0097
19430TIP3    H179705   4.361   6.481   1.352 -0.6961 -0.6088 -1.0724
19430TIP3    H279706   4.381   6.564   1.227  1.2988  1.4430  0.5617
19431TIP3   OH279707   4.887   1.744   0.172  0.4503  0.3337 -0.3297
19431TIP3    H179708   4.915   1.660   0.135 -1.5125  0.0915 -1.3493
19431TIP3    H279709   4.903   1.737   0.266 -0.6230 -1.5829 -0.2729
19432TIP3   OH279710   1.098   1.984  15.081 -0.5808  0.7097  0.8739
19432TIP3    H179711   1.084   1.981  15.176 -2.7804 -0.5521  0.5730
19432TIP3    H279712   1.050   1.907  15.048  0.9106  0.6218 -1.1660
19433TIP3   OH279713   6.652   4.928  16.350 -0.1912  0.0881 -0.0755
19433TIP3    H179714   6.585   4.968  16.295  1.0547  1.9480 -0.2832
19433TIP3    H279715   6.689   4.858  16.297 -0.8155  0.1595 -0.5983
19434TIP3   OH279716   0.886   0.117   3.680  0.4666  0.1780  0.5817
19434TIP3    H179717   0.862   0.180   3.613  0.8743 -1.5963 -1.2767
19434TIP3    H279718   0.981   0.120   3.685  0.4238  0.5542  1.3599
19435TIP3   OH279719   4.277   2.480  12.379 -0.1880 -0.0463  0.3888
19435TIP3    H179720   4.302   2.536  12.453 -0.5204  0.6850 -0.0488
19435TIP3    H279721   4.196   2.519  12.345 -0.6790 -1.0739  0.3763
19436TIP3   OH279722   6.269   6.132  11.227 -0.3862  0.2619  0.2774
19436TIP3    H179723   6.290   6.221  11.254 -0.0699 -0.0696  1.1345
19436TIP3    H279724   6.290   6.130  11.134 -1.0094  1.2674  0.1059
19437TIP3   OH279725   4.430   0.544   5.892  0.0981  0.2954 -0.7008
19437TIP3    H179726   4.480   0.505   5.820  0.5240 -0.7539  0.1349
19437TIP3    H279727   4.394   0.468   5.939  0.0160  0.9554  0.3150
19438TIP3   OH279728   3.514   1.594  16.733 -0.0793 -0.8710  0.0934
19438TIP3    H179729   3.438   1.563  16.782 -1.1812  2.4256  0.5405
19438TIP3    H279730   3.589   1.569  16.788 -1.1468  0.3506  2.1378
19439TIP3   OH279731   1.443   0.527  11.984  0.2087 -0.3633  0.2585
19439TIP3    H179732   1.383   0.591  12.020 -0.4574 -1.1389  0.5406
19439TIP3    H279733   1.512   0.520  12.050 -0.9711 -1.7260  1.3732
19440TIP3   OH279734   4.427   0.035   2.175 -0.3500 -0.3264 -0.0246
19440TIP3    H179735   4.350  -0.001   2.218  1.2376 -4.1966 -0.2835
19440TIP3    H279736   4.433  -0.012   2.092  0.9456  1.6709 -1.1165
19441TIP3   OH279737   6.281   4.221   4.145  0.1411  0.0080  0.6344
19441TIP3    H179738   6.217   4.289   4.123 -0.9288 -0.4951  2.0699
19441TIP3    H279739   6.346   4.267   4.200  0.0796  0.1439  0.5939
19442TIP3   OH279740   0.788   6.121  12.602  0.1977  0.3992  0.5334
19442TIP3    H179741   0.761   6.121  12.694  0.2197  0.0931  0.5402
19442TIP3    H279742   0.711   6.152  12.555  1.1296  3.4497  0.9151
19443TIP3   OH279743   2.913   3.112  16.449 -0.5425  0.7650 -0.5618
19443TIP3    H179744   2.878   3.169  16.517  0.8180  2.0638 -0.9253
19443TIP3    H279745   2.960   3.171  16.389  1.5143 -0.7897 -0.5550
19444TIP3   OH279746   6.636   4.613   1.804  0.5558  0.0514 -0.6330
19444TIP3    H179747   6.594   4.535   1.769 -0.1670  0.7470 -1.3257
19444TIP3    H279748   6.725   4.611   1.769  0.9289 -1.1090  0.3573
19445TIP3   OH279749   2.649   2.909  15.901  0.0828  0.0344 -0.2187
19445TIP3    H179750   2.700   2.946  15.973 -0.6688  0.0239  0.3261
19445TIP3    H279751   2.707   2.915  15.825  2.3142 -3.3966  1.1299
19446TIP3   OH279752   0.509   3.057   4.814 -0.6321 -0.1140  0.1611
19446TIP3    H179753   0.471   3.067   4.727 -1.6270  0.3747  0.6398
19446TIP3    H279754   0.597   3.095   4.806 -0.4717 -0.6812 -0.7986
19447TIP3   OH279755   4.930   4.729  16.008 -0.0010 -0.2569  0.0720
19447TIP3    H179756   5.008   4.752  16.059  0.0742  0.7288 -0.4795
19447TIP3    H279757   4.871   4.687  16.072  1.7846 -2.9185  0.0838
19448TIP3   OH279758   6.453   4.745   5.989  0.1124  0.0837  0.5433
19448TIP3    H179759   6.434   4.687   6.063  0.7553 -0.8133  0.0071
19448TIP3    H279760   6.386   4.813   5.995 -1.9523 -1.8166 -0.0195
19449TIP3   OH279761   6.546   6.649  12.435  0.4449 -0.2600 -0.0406
19449TIP3    H179762   6.486   6.611  12.499  0.8977  0.9027  1.1019
19449TIP3    H279763   6.491   6.670  12.359 -0.4180 -0.0987  0.6176
19450TIP3   OH279764   5.757   0.552   0.606 -0.0574 -0.4004 -0.0299
19450TIP3    H179765   5.811   0.508   0.541 -0.0713 -0.7145  0.1697
19450TIP3    H279766   5.799   0.637   0.620  0.5082 -0.7343  0.2959
19451TIP3   OH279767   3.957   5.740   2.532  0.1279  0.1426 -0.1063
19451TIP3    H179768   3.899   5.674   2.569 -0.5460  0.4379 -0.6366
19451TIP3    H279769   4.045   5.707   2.551 -0.2020 -0.2420  0.8032
19452TIP3   OH279770   6.136   0.247  12.594  0.5899  0.3093 -0.4415
19452TIP3    H179771   6.046   0.276  12.578  0.5958  0.6665  0.1704
19452TIP3    H279772   6.134   0.152  12.580  0.1683  0.3516 -0.6585
19453TIP3   OH279773   4.518   2.347   5.137  0.5116 -0.2159 -0.6974
19453TIP3    H179774   4.549   2.276   5.194 -1.3287 -1.6574 -1.4544
19453TIP3    H279775   4.468   2.404   5.196  2.1478  0.5821 -0.0502
19454TIP3   OH279776   1.877   3.578  13.696  0.1574 -0.2167  0.1212
19454TIP3    H179777   1.808   3.524  13.656 -0.5140 -0.4422  1.5613
19454TIP3    H279778   1.861   3.572  13.790 -0.7002  3.4881  0.3092
19455TIP3   OH279779   3.894   5.202  11.424 -0.1674  0.1182 -0.1629
19455TIP3    H179780   3.954   5.270  11.454 -0.3740  0.1287  0.2382
19455TIP3    H279781   3.943   5.121  11.434  0.2433  0.2502 -1.0790
19456TIP3   OH279782   4.560   0.197  13.312  0.0845 -0.4603  0.0107
19456TIP3    H179783   4.618   0.209  13.388  1.1165 -0.7073 -0.7192
19456TIP3    H279784   4.485   0.254  13.330  1.2010  0.9439  0.3421
19457TIP3   OH279785   2.353   2.250  11.109  0.1956  0.0294 -0.2142
19457TIP3    H179786   2.322   2.292  11.029  0.4043 -2.9180 -1.9436
19457TIP3    H279787   2.432   2.203  11.083  1.8031  1.1897  2.3805
19458TIP3   OH279788   5.778   6.654   0.716  0.3864  0.5667  0.2828
19458TIP3    H179789   5.772   6.632   0.810 -1.6737 -0.6707 -0.1055
19458TIP3    H279790   5.768   6.749   0.713 -1.9269  0.3840  1.1675
19459TIP3   OH279791   1.593   0.094  16.646 -0.4011  0.2691 -0.0378
19459TIP3    H179792   1.639   0.176  16.660  0.0654 -0.0505  0.3122
19459TIP3    H279793   1.613   0.070  16.555 -2.3821  1.6883 -0.8737
19460TIP3   OH279794   3.691   6.415  13.121  0.1551 -0.0410 -0.2332
19460TIP3    H179795   3.697   6.504  13.154  1.1688 -0.2071  0.0552
19460TIP3    H279796   3.721   6.420  13.030 -0.0029 -0.0474 -0.2863
19461TIP3   OH279797   0.738   6.163   0.296  0.5434 -0.0139  0.8170
19461TIP3    H179798   0.820   6.135   0.257 -0.7800 -0.9836 -1.3547
19461TIP3    H279799   0.702   6.084   0.336  0.0912  0.1434  0.7196
19462TIP3   OH279800   6.072   6.152  14.398 -0.1735  0.0490 -0.1323
19462TIP3    H179801   6.102   6.142  14.489 -0.1336  2.7611  0.1904
19462TIP3    H279802   6.092   6.068  14.357 -0.1912 -1.2275  2.3622
19463TIP3   OH279803   0.945   5.190   2.530  0.7461 -0.3403 -0.1688
19463TIP3    H179804   0.896   5.187   2.612  0.0824  1.7581 -0.4620
19463TIP3    H279805   1.031   5.224   2.554  0.7655 -0.3472 -0.2273
19464TIP3   OH279806   1.139   0.005   0.481  0.4428  0.5862 -0.0787
19464TIP3    H179807   1.194  -0.031   0.411  0.0048 -0.3694  0.0583
19464TIP3    H279808   1.106  -0.072   0.528 -0.4800  1.1715  0.2519
19465TIP3   OH279809   6.594   4.597  16.151  0.5665 -0.5610  0.8524
19465TIP3    H179810   6.619   4.609  16.243 -0.7869  2.0551  0.9148
19465TIP3    H279811   6.675   4.612  16.103  0.6524  0.9939  1.4571
19466TIP3   OH279812   6.461   5.020   3.600  0.2322 -0.0156  0.2911
19466TIP3    H179813   6.392   4.961   3.568  0.8878 -0.4577 -0.3169
19466TIP3    H279814   6.471   4.997   3.692  0.5595 -0.9243  0.0296
19467TIP3   OH279815   2.997   1.889  14.100 -0.1957 -0.1749  0.1128
19467TIP3    H179816   2.974   1.817  14.159 -1.5023  0.8470  0.8920
19467TIP3    H279817   3.092   1.891  14.101 -0.0829 -2.5933 -0.7800
19468TIP3   OH279818   0.855   5.884   3.826 -0.3701  0.5910 -0.5261
19468TIP3    H179819   0.923   5.835   3.779 -0.0889 -0.4034  0.8874
19468TIP3    H279820   0.813   5.819   3.881  1.1433  2.2208  2.6998
19469TIP3   OH279821   0.790   5.817  15.485  0.0007  0.2176 -0.4126
19469TIP3    H179822   0.840   5.759  15.543  0.0457  0.3399 -0.3281
19469TIP3    H279823   0.855   5.875  15.446  0.0674 -0.3439 -1.1539
19470TIP3   OH279824   4.651   1.054   1.859 -0.0212  0.2319 -0.0963
19470TIP3    H179825   4.663   1.147   1.877  0.1240  0.1307  0.3167
19470TIP3    H279826   4.739   1.017   1.859 -0.1689 -0.1129  0.8434
19471TIP3   OH279827   3.924   6.227  15.885  0.0255 -0.1026  0.0085
19471TIP3    H179828   3.896   6.238  15.976 -1.2042  0.4947 -0.4214
19471TIP3    H279829   3.935   6.317  15.852  2.4290 -0.3221  0.1298
19472TIP3   OH279830   6.718   2.389   1.479  0.3047  0.3637 -0.2840
19472TIP3    H179831   6.682   2.322   1.420  1.3849 -0.5300  0.0712
19472TIP3    H279832   6.703   2.472   1.432  2.2500 -0.4227 -2.4057
19473TIP3   OH279833   5.983   1.045   2.206  0.1000 -0.3169 -0.1193
19473TIP3    H179834   5.959   1.083   2.121 -0.9798  1.9211  1.1499
19473TIP3    H279835   5.937   0.962   2.209  1.6418 -1.3153 -2.5028
19474TIP3   OH279836   3.736   6.103  12.320  0.3252  0.0729  0.3787
19474TIP3    H179837   3.755   6.051  12.398 -0.9782  0.1919  0.7766
19474TIP3    H279838   3.688   6.043  12.263 -0.2623  0.5179  0.4012
19475TIP3   OH279839   4.975   0.305  12.624 -0.1823 -0.1724  0.3376
19475TIP3    H179840   4.909   0.241  12.652  0.5153 -1.7199 -1.4347
19475TIP3    H279841   5.058   0.261  12.641  0.4411  1.7907  2.6188
19476TIP3   OH279842   0.408   4.202  14.124 -0.5688  0.1386 -0.0741
19476TIP3    H179843   0.480   4.164  14.073 -0.5126 -0.7631  0.6548
19476TIP3    H279844   0.453   4.251  14.193 -0.6439  1.3511 -0.8762
19477TIP3   OH279845   6.390   4.222  10.477 -0.2312  0.1834  0.3995
19477TIP3    H179846   6.445   4.295  10.506 -0.4713  0.0555  1.1776
19477TIP3    H279847   6.452   4.149  10.463 -0.2796 -0.1632  1.9369
19478TIP3   OH279848   6.361   4.940  14.294  0.3363  0.0625  0.1479
19478TIP3    H179849   6.422   5.013  14.285  0.2583  0.3733  1.9516
19478TIP3    H279850   6.347   4.932  14.388 -1.1388 -1.0578 -0.1475
19479TIP3   OH279851   6.547   5.221   3.374  0.4687 -0.0804  0.6034
19479TIP3    H179852   6.551   5.191   3.283  0.8572  0.3961  0.4642
19479TIP3    H279853   6.582   5.147   3.425 -0.9597 -0.8558  0.4855
19480TIP3   OH279854   6.576   0.055  14.014 -0.2158  0.7329  0.4456
19480TIP3    H179855   6.664   0.090  14.021  0.1551  0.1905 -1.2394
19480TIP3    H279856   6.536   0.104  13.942 -0.3332 -0.9442 -0.6526
19481TIP3   OH279857   6.720   4.081   5.177  0.6129 -0.2918  0.3582
19481TIP3    H179858   6.815   4.083   5.187  0.8289 -1.2110 -1.3171
19481TIP3    H279859   6.693   3.997   5.214  0.3428  0.3850  1.6980
19482TIP3   OH279860   2.048   4.512  13.683 -0.6338  0.6199  0.1684
19482TIP3    H179861   1.978   4.553  13.631  0.4492  0.7484 -1.2311
19482TIP3    H279862   2.036   4.418  13.669 -0.8462  0.6180  0.3588
19483TIP3   OH279863   6.053   2.949   2.346  0.9268 -0.3489 -0.4186
19483TIP3    H179864   6.147   2.937   2.334  0.9311  0.2096 -0.9533
19483TIP3    H279865   6.038   2.929   2.438  1.4874 -0.9359 -0.4446
19484TIP3   OH279866   3.682   5.735  13.245  0.3912  0.5143  0.0650
19484TIP3    H179867   3.739   5.783  13.184  0.9421  1.0600  0.9992
19484TIP3    H279868   3.649   5.802  13.305  0.9347 -0.2204  1.1978
19485TIP3   OH279869   2.094   4.238  12.427 -0.3801 -0.7019  0.1842
19485TIP3    H179870   2.009   4.195  12.440 -0.7019 -0.2856 -0.5290
19485TIP3    H279871   2.072   4.331  12.416  0.1651 -0.5964 -0.0225
19486TIP3   OH279872   0.161   0.002  15.645  0.2282 -0.6759  0.8601
19486TIP3    H179873   0.141  -0.045  15.564  0.9079 -0.9068  0.8235
19486TIP3    H279874   0.222   0.071  15.618  0.7219 -0.9667  1.2286
19487TIP3   OH279875   3.267   6.432  15.052  0.2108 -0.4004  0.0082
19487TIP3    H179876   3.315   6.470  14.979 -0.0205 -0.4898 -0.1896
19487TIP3    H279877   3.176   6.459  15.038 -0.1593 -1.9688 -0.7576
19488TIP3   OH279878   5.153   6.066   6.028 -0.7593  0.5900  0.2892
19488TIP3    H179879   5.197   6.150   6.019  1.2223 -0.3649  0.9300
19488TIP3    H279880   5.109   6.071   6.113 -2.1714  1.6566 -0.4882
19489TIP3   OH279881   2.466   6.474  14.217  0.3406  0.5252 -0.1297
19489TIP3    H179882   2.486   6.391  14.176 -1.7708 -0.4397  0.6964
19489TIP3    H279883   2.495   6.465  14.307 -1.9099 -0.1950  0.5693
19490TIP3   OH279884   6.588   2.109   0.130  0.9386 -0.6921 -0.5074
19490TIP3    H179885   6.579   2.124   0.036 -0.5582 -0.8968 -0.4125
19490TIP3    H279886   6.527   2.171   0.169  3.0627  0.8726  0.4503
19491TIP3   OH279887   4.825   2.658  13.338  0.5001 -0.6012  0.5077
19491TIP3    H179888   4.745   2.711  13.347  1.3105  0.7021  0.1869
19491TIP3    H279889   4.804   2.576  13.383 -0.9460 -0.1912  0.6181
19492TIP3   OH279890   1.121   1.563  15.766  0.3210 -0.2308  0.2247
19492TIP3    H179891   1.067   1.607  15.701  0.7828 -0.9542 -0.6629
19492TIP3    H279892   1.115   1.619  15.844 -1.9624 -0.4651  0.2612
19493TIP3   OH279893   0.856   3.651   4.670 -0.2068  0.2522  0.2511
19493TIP3    H179894   0.905   3.713   4.616  0.8644  0.5229  1.5008
19493TIP3    H279895   0.826   3.584   4.609  0.8602  0.6324 -0.7064
19494TIP3   OH279896   6.036   0.239  13.597  0.5043  0.2233  0.2680
19494TIP3    H179897   6.122   0.209  13.629 -1.1614 -2.4241  2.5073
19494TIP3    H279898   6.024   0.325  13.636  1.9505  0.4277  0.2879
19495TIP3   OH279899   6.464   0.248  15.068  0.2124 -0.3251  0.1388
19495TIP3    H179900   6.514   0.168  15.050  0.5985 -0.3994  1.4829
19495TIP3    H279901   6.440   0.241  15.161 -2.2424 -0.2671 -0.4621
19496TIP3   OH279902   3.610   0.095  14.694 -0.4721 -0.0791 -0.3518
19496TIP3    H179903   3.685   0.057  14.742 -0.6436 -1.0200 -0.8205
19496TIP3    H279904   3.611   0.050  14.610 -0.3071  1.4286 -1.1582
19497TIP3   OH279905   3.537   5.649   1.209  0.0274 -0.6311  0.1526
19497TIP3    H179906   3.530   5.676   1.118 -1.1327 -1.6033 -0.0560
19497TIP3    H279907   3.590   5.717   1.250 -0.4903  0.4655 -0.9736
19498TIP3   OH279908   6.380   4.582   1.533 -0.3463 -0.4134  0.7791
19498TIP3    H179909   6.367   4.561   1.626 -2.1609  0.3988  0.7300
19498TIP3    H279910   6.292   4.593   1.498  0.3224 -0.5614 -1.0244
19499TIP3   OH279911   4.754   1.526  14.144  0.3295 -0.3879 -0.1847
19499TIP3    H179912   4.837   1.479  14.130 -0.2498 -0.8221 -2.3292
19499TIP3    H279913   4.712   1.527  14.058 -0.6648  2.2379  0.2861
19500TIP3   OH279914   0.068   2.247   2.166  0.2882  0.0509 -0.7202
19500TIP3    H179915   0.143   2.272   2.221  1.1590  0.6760 -2.1415
19500TIP3    H279916   0.100   2.172   2.115 -0.2025  0.0247 -0.9919
19501TIP3   OH279917   0.383   2.339   5.929  0.2404 -0.0388  0.2314
19501TIP3    H179918   0.293   2.325   5.897 -0.2409 -0.6545  1.8179
19501TIP3    H279919   0.415   2.414   5.879 -0.9385 -0.2077 -0.7948
19502TIP3   OH279920   5.674   2.738  15.428 -0.0205  0.2673  0.2342
19502TIP3    H179921   5.621   2.701  15.357 -0.6634  2.6282 -0.5961
19502TIP3    H279922   5.761   2.702  15.414 -0.2394  0.3284 -1.5235
19503TIP3   OH279923   2.509   0.736  16.476  0.0725  0.1773 -0.3096
19503TIP3    H179924   2.471   0.722  16.563 -0.6236  2.8885 -0.1296
19503TIP3    H279925   2.468   0.816  16.445  0.7039 -0.4982 -2.9595
19504TIP3   OH279926   0.004   3.490  14.441 -0.3596 -0.1302  0.5152
19504TIP3    H179927  -0.019   3.427  14.373 -0.6283  1.5346 -0.9621
19504TIP3    H279928  -0.072   3.492  14.499  0.1941 -2.1579  1.3534
19505TIP3   OH279929   6.612   2.672   5.453 -0.3101  0.1064 -0.1734
19505TIP3    H179930   6.522   2.698   5.471 -0.5124  0.8773 -2.2816
19505TIP3    H279931   6.604   2.596   5.395  0.4140  1.2843 -1.8253
19506TIP3   OH279932   0.414   3.473   0.613  0.4943 -0.4303  0.5724
19506TIP3    H179933   0.454   3.560   0.614  1.1161 -0.7157  1.0677
19506TIP3    H279934   0.328   3.486   0.652  0.3248  0.0834  0.0332
19507TIP3   OH279935   4.945   5.885   0.525 -0.2063 -0.8550 -0.5376
19507TIP3    H179936   4.950   5.791   0.506  0.0248 -1.1646  0.9955
19507TIP3    H279937   4.929   5.925   0.440  0.4508 -2.2155 -1.3279
19508TIP3   OH279938   2.996   3.726   5.024  0.0995  0.2495  0.3996
19508TIP3    H179939   3.082   3.759   5.050  0.0928 -0.7331  1.7623
19508TIP3    H279940   3.000   3.632   5.042 -1.7290  0.4202  1.8616
19509TIP3   OH279941   4.994   0.045   4.559 -0.2208 -0.5497 -0.2221
19509TIP3    H179942   5.016   0.036   4.467 -0.3256 -3.7594 -0.0028
19509TIP3    H279943   5.077   0.067   4.602  0.3561 -1.5999 -0.7784
19510TIP3   OH279944   1.846   3.949   0.718  0.3111  0.0479 -0.1023
19510TIP3    H179945   1.779   3.886   0.745 -0.2033 -0.5304 -2.5660
19510TIP3    H279946   1.839   3.952   0.622  2.6436  1.2839 -0.2809
19511TIP3   OH279947   0.335   5.348   3.800 -0.0653 -0.9948  0.8324
19511TIP3    H179948   0.405   5.353   3.735  0.1530  0.5368  1.1623
19511TIP3    H279949   0.366   5.284   3.864  1.2552  0.0147  1.2210
19512TIP3   OH279950   5.025   6.217  12.628 -0.1128 -0.2834  0.0883
19512TIP3    H179951   4.937   6.249  12.650 -0.4512 -1.5535  0.5897
19512TIP3    H279952   5.064   6.194  12.712  0.5069 -0.2466 -0.1851
19513TIP3   OH279953   0.448   5.630   3.488  0.0722 -0.0984 -0.0214
19513TIP3    H179954   0.490   5.647   3.403  1.3158  1.1944  0.8443
19513TIP3    H279955   0.459   5.711   3.537  0.5786 -1.2987  1.8907
19514TIP3   OH279956   5.078   3.383   5.077  0.2866  0.4276  0.2525
19514TIP3    H179957   5.003   3.350   5.126  0.1763  0.2696 -0.0237
19514TIP3    H279958   5.049   3.467   5.042  0.4003  0.5880  0.5393
19515TIP3   OH279959   4.528   4.940   3.204 -0.3273 -0.0374 -0.1731
19515TIP3    H179960   4.599   4.944   3.140  0.0306  2.2568  0.3337
19515TIP3    H279961   4.454   4.982   3.159 -0.1373  1.3924  0.8110
19516TIP3   OH279962   3.475   0.890  15.969 -0.2291 -0.0570 -0.2194
19516TIP3    H179963   3.513   0.802  15.974  0.6737  0.3966  0.9225
19516TIP3    H279964   3.537   0.940  15.917 -0.4271  0.0723 -0.3313
19517TIP3   OH279965   1.493   3.122  16.834  0.2731 -0.1767  0.1244
19517TIP3    H179966   1.462   3.068  16.761 -0.6092 -1.2538  1.2641
19517TIP3    H279967   1.576   3.083  16.859  0.6486  0.2851 -0.3982
19518TIP3   OH279968   1.635   6.401  16.832  0.2292  0.6111 -0.5432
19518TIP3    H179969   1.675   6.318  16.807  1.1532  0.1965  2.0827
19518TIP3    H279970   1.544   6.379  16.850  0.6413 -0.0025  0.8492
19519TIP3   OH279971   2.467   6.410  16.372 -0.3555  0.0121  0.2399
19519TIP3    H179972   2.466   6.329  16.423 -0.2280  0.3215  0.7342
19519TIP3    H279973   2.558   6.418  16.343 -0.3077  0.1187  0.4168
19520TIP3   OH279974   5.170   3.774  16.729 -0.1559  0.5543 -0.5684
19520TIP3    H179975   5.153   3.695  16.677 -2.1038  0.2728  0.4687
19520TIP3    H279976   5.265   3.773  16.742 -0.1874 -1.8525 -0.2400
19521TIP3   OH279977   6.038   2.752   2.791  0.0554  0.3300  0.7892
19521TIP3    H179978   6.094   2.773   2.866  0.3010 -0.3962  0.8114
19521TIP3    H279979   6.046   2.657   2.781 -1.1121  0.2288  0.7386
19522TIP3   OH279980   6.144   1.905  10.442 -0.1767  0.4195  0.0471
19522TIP3    H179981   6.226   1.880  10.485  0.8260  0.4091 -1.8337
19522TIP3    H279982   6.162   1.990  10.401 -1.2835  0.6854  0.0734
19523TIP3   OH279983   3.973   5.270   0.698 -0.3745  0.8458 -0.2374
19523TIP3    H179984   4.018   5.349   0.665  1.2168  0.2560  0.4446
19523TIP3    H279985   4.041   5.202   0.697 -2.0461 -0.8413 -1.9457
19524TIP3   OH279986   5.607   0.279  17.134  0.3043 -0.6341 -0.3122
19524TIP3    H179987   5.697   0.286  17.165  0.5762  0.3210 -1.2519
19524TIP3    H279988   5.578   0.370  17.126 -1.0729 -0.9481  0.8950
19525TIP3   OH279989   4.437   0.994  11.336 -0.3544  0.4673 -0.2507
19525TIP3    H179990   4.431   1.025  11.246 -0.4127 -0.1979 -0.4751
19525TIP3    H279991   4.482   0.910  11.330  0.5825  0.9240  0.4538
19526TIP3   OH279992   4.045   1.628  16.181 -0.1689 -0.1971  0.1745
19526TIP3    H179993   3.974   1.600  16.239  0.0370 -1.3353 -0.1131
19526TIP3    H279994   4.091   1.696  16.230 -0.7810 -0.2303  0.8066
19527TIP3   OH279995   1.658   1.064   0.345  0.3802 -0.0242 -0.6964
19527TIP3    H179996   1.646   1.024   0.431  3.3313  1.0784  0.2809
19527TIP3    H279997   1.719   1.006   0.300  1.7114  1.3438 -0.6773
19528TIP3   OH279998   6.022   0.398   6.294 -0.3180 -0.5574  0.2700
19528TIP3    H179999   6.070   0.340   6.236 -2.6994 -0.2988 -2.0178
19528TIP3    H280000   6.051   0.486   6.270 -0.6656 -0.5042  0.0318
19529TIP3   OH280001   4.322   3.421   4.383 -0.3820 -0.4767 -0.5923
19529TIP3    H180002   4.336   3.513   4.405 -1.2776  0.0099 -1.9865
19529TIP3    H280003   4.394   3.374   4.426  0.3772  0.9327 -0.3184
19530TIP3   OH280004   3.494   1.069  16.325  0.4049  0.1853  0.4931
19530TIP3    H180005   3.425   1.049  16.261  1.1013  0.5013 -0.3792
19530TIP3    H280006   3.451   1.121  16.392 -0.1025  0.8058 -0.3012
19531TIP3   OH280007   3.397   2.026   2.712  0.1255  0.2319 -0.5508
19531TIP3    H180008   3.458   2.035   2.786  1.6930 -1.2564 -1.6239
19531TIP3    H280009   3.369   1.934   2.716  1.3766 -0.2713 -2.6627
19532TIP3   OH280010   5.836   0.776  11.528  0.2838  0.1226 -0.1125
19532TIP3    H180011   5.746   0.803  11.548  0.0534 -0.4523 -0.3659
19532TIP3    H280012   5.830   0.681  11.517  0.1974  0.4964 -3.9810
19533TIP3   OH280013   1.644   5.539   0.130 -0.1625  0.3672  0.0499
19533TIP3    H180014   1.655   5.444   0.130  0.9103  0.4525  2.2864
19533TIP3    H280015   1.555   5.553   0.097  0.7543 -1.2130 -3.2535
19534TIP3   OH280016   1.701   3.158   3.204  0.0515  0.4771  0.2960
19534TIP3    H180017   1.661   3.147   3.290 -0.2075 -0.0306  0.1112
19534TIP3    H280018   1.666   3.241   3.171 -1.6644 -0.4747 -0.3078
19535TIP3   OH280019   3.268   1.599  16.943 -0.3629  0.0735 -0.0905
19535TIP3    H180020   3.256   1.694  16.947 -2.9287 -0.2327  0.7841
19535TIP3    H280021   3.178   1.564  16.941  0.5378 -2.3343 -0.0916
19536TIP3   OH280022   6.248   3.154   0.395  0.0707  0.0493 -0.0667
19536TIP3    H180023   6.228   3.080   0.337  0.7317 -1.4303  1.5530
19536TIP3    H280024   6.333   3.132   0.433  0.7801  2.1753 -0.3606
19537TIP3   OH280025   0.799   2.051   6.231  0.4014 -0.4301 -0.0780
19537TIP3    H180026   0.792   2.045   6.135  1.3833  1.7138 -0.3064
19537TIP3    H280027   0.822   2.142   6.248  0.8302 -0.9255  2.1821
19538TIP3   OH280028   0.808   5.996  16.224 -0.2469  0.1577  0.6169
19538TIP3    H180029   0.830   5.974  16.314 -0.4761  1.3295  0.9647
19538TIP3    H280030   0.892   5.992  16.177  0.0300  0.5148  1.0804
19539TIP3   OH280031   6.382   4.197  15.791 -0.5572 -0.3316  0.3024
19539TIP3    H180032   6.426   4.232  15.868 -1.0179 -1.5739  1.1523
19539TIP3    H280033   6.452   4.151  15.743 -0.4089 -0.1217  0.3156
19540TIP3   OH280034   3.114   0.590   0.453  0.0711  0.1985 -0.6250
19540TIP3    H180035   3.127   0.499   0.479  1.0951  0.2052 -1.0827
19540TIP3    H280036   3.166   0.600   0.373  2.0879  1.8858  0.8393
19541TIP3   OH280037   5.321   5.845  11.476  0.9021  0.0250  0.5114
19541TIP3    H180038   5.252   5.800  11.525  0.7270 -1.5567 -1.0895
19541TIP3    H280039   5.388   5.778  11.463  0.9990  0.4200 -1.2309
19542TIP3   OH280040   5.969   3.976   0.955 -0.7802 -0.1204  0.2492
19542TIP3    H180041   6.039   4.009   0.899 -1.5450  1.7690  0.3834
19542TIP3    H280042   5.895   3.963   0.896 -0.9911 -0.0133  0.4921
19543TIP3   OH280043   0.380   4.296  15.959  0.1269  0.7480 -0.5974
19543TIP3    H180044   0.335   4.275  15.876  0.6655  1.7280 -1.1432
19543TIP3    H280045   0.352   4.385  15.979 -1.4566 -0.1256  1.2530
19544TIP3   OH280046   6.524   3.907  14.008 -0.3004 -0.0553 -0.2487
19544TIP3    H180047   6.509   3.829  13.953  0.2842 -0.3993  0.0768
19544TIP3    H280048   6.497   3.879  14.095  1.1499 -0.3206  0.1292
19545TIP3   OH280049   6.560   1.055   5.538  0.4821 -0.3267 -0.3070
19545TIP3    H180050   6.556   0.970   5.493 -1.0312 -0.5173  0.1796
19545TIP3    H280051   6.471   1.071   5.567  0.1377  2.7557 -2.7933
19546TIP3   OH280052   3.731   6.230  15.342  0.0263  0.2795  0.0319
19546TIP3    H180053   3.642   6.207  15.371  0.3763  0.1466  1.0055
19546TIP3    H280054   3.786   6.214  15.418  0.6693  1.8900 -0.0829
19547TIP3   OH280055   4.077   1.694  13.841 -0.0491 -0.1248 -0.0318
19547TIP3    H180056   4.005   1.745  13.878 -1.1205 -1.5721 -0.0854
19547TIP3    H280057   4.045   1.665  13.756 -1.1727 -4.5126  1.7896
19548TIP3   OH280058   0.844   6.098   3.649  0.0293  0.0858 -0.4343
19548TIP3    H180059   0.852   6.027   3.713  0.0930  0.7066  0.2645
19548TIP3    H280060   0.934   6.126   3.634 -0.1248  1.3219  0.8081
19549TIP3   OH280061   5.441   0.011  15.142 -0.1926  0.8498  0.8490
19549TIP3    H180062   5.525  -0.028  15.118 -0.0283 -0.0410  2.7997
19549TIP3    H280063   5.464   0.094  15.184 -0.3760  1.4120 -0.1504
19550TIP3   OH280064   6.614   0.342  11.258  0.0663 -0.6163 -0.2030
19550TIP3    H180065   6.628   0.250  11.280  2.8497  0.1263  1.2715
19550TIP3    H280066   6.702   0.379  11.250 -1.0197  2.2645  0.6472
19551TIP3   OH280067   4.471   0.421  14.800 -0.3238 -0.3206 -0.0026
19551TIP3    H180068   4.507   0.352  14.856  0.3785  0.0929  0.0716
19551TIP3    H280069   4.488   0.502  14.848 -2.4902 -0.2033  0.6127
19552TIP3   OH280070   6.109   5.889   2.209 -0.3526  0.4053 -0.1811
19552TIP3    H180071   6.143   5.975   2.187  2.1566 -0.6731 -0.7232
19552TIP3    H280072   6.056   5.865   2.133 -0.5849  1.2120 -0.2804
19553TIP3   OH280073   4.632   4.777   0.449  0.2379  0.2834 -0.2796
19553TIP3    H180074   4.676   4.695   0.472  2.1453  1.1667 -0.6845
19553TIP3    H280075   4.588   4.804   0.530  0.4362 -0.6198  0.1363
19554TIP3   OH280076   6.521   3.870  15.918 -0.2292 -0.9431  0.2429
19554TIP3    H180077   6.575   3.878  15.839  0.3760  1.7501  0.8735
19554TIP3    H280078   6.434   3.846  15.886  0.3152 -1.1341 -1.1264
19555TIP3   OH280079   1.321   1.024   1.919  0.3208  0.5592  0.3953
19555TIP3    H180080   1.275   1.049   1.839  2.5390 -0.4741 -1.2485
19555TIP3    H280081   1.405   1.071   1.915  0.5414  0.3445  2.0081
19556TIP3   OH280082   3.046   0.346  12.137 -0.0245 -0.3599 -0.3209
19556TIP3    H180083   3.046   0.422  12.079  0.1822 -0.8749 -1.0000
19556TIP3    H280084   3.100   0.281  12.092 -0.5529 -1.0638  0.0424
19557TIP3   OH280085   6.595   1.459  16.676 -0.1146  0.0247 -0.1581
19557TIP3    H180086   6.532   1.523  16.644 -0.0377  0.5677  0.7440
19557TIP3    H280087   6.659   1.511  16.726  2.0239 -0.2739 -2.4591
19558TIP3   OH280088   5.298   3.122   5.592  0.0467  0.7340  0.2579
19558TIP3    H180089   5.216   3.073   5.595  1.5055 -1.7047  2.4211
19558TIP3    H280090   5.277   3.208   5.629 -1.1844 -0.4355  2.3574
19559TIP3   OH280091   1.149   6.065   5.144 -0.2749  0.5904 -0.1490
19559TIP3    H180092   1.212   6.137   5.154 -2.6652  2.9441 -1.4179
19559TIP3    H280093   1.085   6.081   5.214  0.1699 -1.4586  0.7688
19560TIP3   OH280094   6.090   4.049  11.819  0.4250 -0.0357  0.5845
19560TIP3    H180095   6.172   4.089  11.846  0.3078 -0.2399  1.2770
19560TIP3    H280096   6.045   4.029  11.902  0.3785 -1.3571  0.2509
19561TIP3   OH280097   0.840   0.625  16.092  0.2378  0.1822 -0.1937
19561TIP3    H180098   0.903   0.604  16.161  0.5750 -0.8129 -0.7854
19561TIP3    H280099   0.895   0.655  16.019 -0.0956  0.9653 -0.1246
19562TIP3   OH280100   6.011   0.996   4.678 -0.4244 -0.5502  0.0995
19562TIP3    H180101   5.997   1.082   4.719  1.4406  0.0090 -0.3715
19562TIP3    H280102   6.034   1.016   4.588 -2.0344 -1.6623 -0.5709
19563TIP3   OH280103   4.667   6.056   3.957 -0.1966  1.1214 -0.0282
19563TIP3    H180104   4.685   6.113   4.032  0.7302 -0.5492  1.0817
19563TIP3    H280105   4.753   6.039   3.919 -0.6848  2.0771 -1.5746
19564TIP3   OH280106   1.028   4.407  13.281  0.0238  0.1834 -0.1108
19564TIP3    H180107   0.944   4.416  13.326 -0.1693 -1.4544 -0.1082
19564TIP3    H280108   1.087   4.464  13.330 -0.9758  1.0427  0.1328
19565TIP3   OH280109   4.336   6.364  10.879  0.2281 -0.0234 -0.4554
19565TIP3    H180110   4.306   6.283  10.837  1.7019 -0.6176 -0.3648
19565TIP3    H280111   4.287   6.433  10.834  0.3114 -0.8126 -1.7993
19566TIP3   OH280112   0.166   4.403  10.328  0.1364 -0.4256  0.0275
19566TIP3    H180113   0.126   4.389  10.414  2.5917  0.0763  1.3288
19566TIP3    H280114   0.175   4.498  10.321  1.0431 -0.5204 -0.2245
19567TIP3   OH280115   3.366   6.178  14.171  0.8054  0.1660  0.4500
19567TIP3    H180116   3.368   6.224  14.087 -1.8872  0.9103  0.7231
19567TIP3    H280117   3.306   6.105  14.156 -0.4648  0.8654  1.9538
19568TIP3   OH280118   3.142   3.797   2.687  0.3120 -0.3676 -0.1434
19568TIP3    H180119   3.103   3.752   2.762 -1.6715  0.0888 -0.8486
19568TIP3    H280120   3.073   3.856   2.656  1.4380  0.1731 -1.7251
19569TIP3   OH280121   3.285   6.657   2.603  0.1795 -0.2878  0.0658
19569TIP3    H180122   3.253   6.567   2.610 -2.3171  0.7127  2.6051
19569TIP3    H280123   3.345   6.667   2.677  1.6430 -0.3297 -1.1177
19570TIP3   OH280124   5.773   4.197  11.428 -0.4295 -0.3342 -0.4206
19570TIP3    H180125   5.786   4.102  11.430  1.6171 -0.0561  0.5333
19570TIP3    H280126   5.808   4.228  11.511 -2.8284  1.0869  0.1143
19571TIP3   OH280127   5.957   5.611  11.154 -0.3636  0.0431  0.1651
19571TIP3    H180128   5.862   5.613  11.160 -0.4311 -0.9262 -0.5927
19571TIP3    H280129   5.981   5.519  11.162  0.6113  0.4065  1.6829
19572TIP3   OH280130   5.665   3.863  16.171  0.0134  0.1657  0.3687
19572TIP3    H180131   5.588   3.919  16.163 -1.2135 -1.3600  1.1360
19572TIP3    H280132   5.659   3.802  16.098 -0.6858 -1.3297  1.6455
19573TIP3   OH280133   0.899   1.955  12.725 -0.3023 -0.1989  0.2175
19573TIP3    H180134   0.825   1.895  12.717 -0.7428  0.2288  0.9700
19573TIP3    H280135   0.870   2.020  12.789  0.0908  0.9259 -0.7303
19574TIP3   OH280136   3.232   1.823  13.740 -0.2600  0.2727 -0.1180
19574TIP3    H180137   3.187   1.824  13.825 -2.9064  0.4995 -1.4861
19574TIP3    H280138   3.324   1.837  13.762 -0.9717  0.8908  2.6775
19575TIP3   OH280139   5.166   0.854   6.168 -0.2922 -0.3570 -0.0084
19575TIP3    H180140   5.155   0.908   6.247 -1.0084 -0.5415  0.0257
19575TIP3    H280141   5.187   0.767   6.201 -0.6523 -0.4482 -0.0172
19576TIP3   OH280142   5.955   0.060  14.193 -0.3435 -0.1874  0.3304
19576TIP3    H180143   5.954   0.054  14.098  0.3105  0.1075  0.2994
19576TIP3    H280144   5.879   0.010  14.222  0.3733 -1.6473 -0.2620
19577TIP3   OH280145   4.731   2.112  11.576 -0.4943 -0.1873 -0.5065
19577TIP3    H180146   4.768   2.034  11.535 -2.0172 -1.4946  0.5479
19577TIP3    H280147   4.804   2.150  11.625 -0.2961 -2.3285  0.9439
19578TIP3   OH280148   0.585   0.972  16.272 -0.5363  0.2713  0.1744
19578TIP3    H180149   0.586   0.876  16.263 -0.9389  0.2995 -0.1852
19578TIP3    H280150   0.677   0.997  16.270 -0.4058 -0.1504  0.7255
19579TIP3   OH280151   5.538   3.961   4.800  0.4675  0.0320 -0.3162
19579TIP3    H180152   5.525   3.992   4.890  0.8435  2.0480 -0.9384
19579TIP3    H280153   5.450   3.937   4.770  0.2419  0.0077  0.3463
19580TIP3   OH280154   6.312   4.868   2.586  0.5023  0.1939 -0.1967
19580TIP3    H180155   6.296   4.896   2.676  2.3057 -0.4163  0.3512
19580TIP3    H280156   6.293   4.945   2.533 -0.1348  0.6968  0.7475
19581TIP3   OH280157   6.233   5.928   4.136  0.2096  0.2809  0.4784
19581TIP3    H180158   6.273   5.875   4.067  1.5595  0.8296  0.8268
19581TIP3    H280159   6.139   5.911   4.128  0.3999 -0.0522 -1.1648
19582TIP3   OH280160   3.724   5.628   4.624 -0.0663 -0.0332 -0.3264
19582TIP3    H180161   3.792   5.650   4.688 -0.2585  0.9226 -0.4448
19582TIP3    H280162   3.712   5.709   4.573 -1.0205 -0.3106 -0.5520
19583TIP3   OH280163   1.180   0.060   6.177  0.0348  0.1853 -0.5941
19583TIP3    H180164   1.248   0.120   6.208 -0.3192  0.6134 -0.6451
19583TIP3    H280165   1.098   0.100   6.206 -0.1774 -0.4937 -0.2633
19584TIP3   OH280166   4.606   5.889   1.824  0.1483  0.2633  0.4096
19584TIP3    H180167   4.640   5.820   1.767 -0.6910 -0.6670  1.0288
19584TIP3    H280168   4.541   5.846   1.879 -0.0093  1.4331  1.1716
19585TIP3   OH280169   4.368   2.967  11.390 -0.8376  0.1081 -0.0890
19585TIP3    H180170   4.281   3.004  11.372  0.1055  1.5692 -1.7389
19585TIP3    H280171   4.411   2.965  11.305  1.1504  0.3994  0.8849
19586TIP3   OH280172   0.189   5.597   1.572 -0.3624  0.3090  0.1333
19586TIP3    H180173   0.112   5.575   1.520 -0.3048  0.5222 -0.0490
19586TIP3    H280174   0.157   5.660   1.636 -0.0763  1.4489 -0.8166
19587TIP3   OH280175   5.486   3.538  17.178  0.1095 -0.0156 -0.2526
19587TIP3    H180176   5.391   3.545  17.169 -0.0439 -1.0342  0.5502
19587TIP3    H280177   5.504   3.444  17.176  1.0889  0.1698 -0.2701
19588TIP3   OH280178   1.621   1.069  10.978 -0.5747 -0.2535 -0.2011
19588TIP3    H180179   1.538   1.071  11.025 -0.3179 -2.3184  0.4075
19588TIP3    H280180   1.597   1.046  10.888 -0.6954 -0.7391 -0.0504
19589TIP3   OH280181   0.687   1.291  17.059 -0.0660  0.4510 -0.3304
19589TIP3    H180182   0.771   1.336  17.065 -0.6642  1.2388  2.4506
19589TIP3    H280183   0.710   1.203  17.029  1.4120  1.5610 -2.6009
19590TIP3   OH280184   2.414   0.400   2.336 -0.2890  0.2616 -0.3231
19590TIP3    H180185   2.492   0.432   2.381 -1.6150  0.7359  1.6759
19590TIP3    H280186   2.403   0.310   2.367  0.2678 -0.3047 -1.7158
19591TIP3   OH280187   3.280   5.245  13.367  0.1214 -0.1325 -0.2376
19591TIP3    H180188   3.192   5.281  13.355  1.0349  2.5586  0.9306
19591TIP3    H280189   3.339   5.309  13.328  1.7402 -0.7634  1.0990
19592TIP3   OH280190   3.295   1.204  15.275  0.0044  0.0434  0.3799
19592TIP3    H180191   3.362   1.267  15.249  0.6318 -1.2778 -1.3195
19592TIP3    H280192   3.255   1.176  15.193 -0.3011 -1.6973  1.0998
19593TIP3   OH280193   3.120   3.671  16.149  0.8599 -0.5233 -0.7400
19593TIP3    H180194   3.101   3.682  16.242 -0.9681 -0.0201 -1.1685
19593TIP3    H280195   3.136   3.760  16.117 -0.9852 -0.4167 -1.4171
19594TIP3   OH280196   6.526   0.350   2.443  0.5333  0.2722 -0.1801
19594TIP3    H180197   6.618   0.359   2.464  0.3588 -0.7900  1.0917
19594TIP3    H280198   6.518   0.261   2.408 -0.3333 -0.3194  1.4978
19595TIP3   OH280199   6.479   1.871   4.582 -0.0397 -0.4097  0.4233
19595TIP3    H180200   6.401   1.849   4.632 -0.9382 -0.7750 -1.1078
19595TIP3    H280201   6.549   1.818   4.621 -0.6865 -0.5556  1.3909
19596TIP3   OH280202   3.621   0.548  13.260  0.2257 -0.6609  0.5778
19596TIP3    H180203   3.661   0.630  13.230 -0.7178 -0.1815  0.6210
19596TIP3    H280204   3.542   0.540  13.207  0.4150 -1.6563  0.4354
19597TIP3   OH280205   5.405   2.757  11.808  0.3805  0.9892  0.2163
19597TIP3    H180206   5.399   2.837  11.860 -1.0470  1.8668 -1.2765
19597TIP3    H280207   5.418   2.786  11.718  0.7158 -0.4787 -0.2319
19598TIP3   OH280208   0.922   2.668  15.872  0.1019 -0.0283  0.4227
19598TIP3    H180209   0.987   2.599  15.857 -2.1202 -2.7561  2.7954
19598TIP3    H280210   0.954   2.716  15.948  1.1111  0.9590 -0.5949
19599TIP3   OH280211   0.278   2.566  14.665  0.7170  0.4801  0.3387
19599TIP3    H180212   0.195   2.526  14.639  1.0031  1.2011 -1.8014
19599TIP3    H280213   0.335   2.492  14.686 -0.1815 -0.0413  0.9751
19600TIP3   OH280214   2.174   3.220  14.300 -0.7092 -0.5170  0.0014
19600TIP3    H180215   2.198   3.128  14.300  0.6458 -0.1745  0.5554
19600TIP3    H280216   2.109   3.228  14.370 -1.1688 -1.1323 -0.3545
19601TIP3   OH280217   1.298   6.588   3.176 -0.2529 -0.1249  0.3857
19601TIP3    H180218   1.266   6.675   3.153  2.0099  0.3256 -1.1917
19601TIP3    H280219   1.327   6.596   3.267  1.2978  1.1757 -0.2069
19602TIP3   OH280220   5.050   1.301  16.460 -0.0987  0.0721 -0.5319
19602TIP3    H180221   5.143   1.278  16.450 -0.0080 -0.2537  1.0281
19602TIP3    H280222   5.050   1.396  16.471 -0.0057  0.1436 -1.1253
19603TIP3   OH280223   4.211   2.466  12.702 -0.5577 -0.7604  0.6629
19603TIP3    H180224   4.269   2.537  12.674 -0.5443 -0.2816  1.8704
19603TIP3    H280225   4.124   2.494  12.673 -0.8197  0.5984  2.6286
19604TIP3   OH280226   1.266   3.409  12.342  0.6919 -0.1919 -0.1195
19604TIP3    H180227   1.261   3.320  12.377 -1.1767 -0.2423 -0.4687
19604TIP3    H280228   1.333   3.403  12.273 -0.1697 -1.5894 -0.8712
19605TIP3   OH280229   3.524   0.166  11.965  0.5124  0.2723 -0.4394
19605TIP3    H180230   3.521   0.138  11.874  0.9051  1.3205 -0.7817
19605TIP3    H280231   3.616   0.156  11.991  0.8131  1.9169 -0.7976
19606TIP3   OH280232   4.612   0.983  16.344  0.2244  0.1552  0.2817
19606TIP3    H180233   4.705   0.961  16.341  0.5894  1.5772  0.7316
19606TIP3    H280234   4.594   0.997  16.437 -0.7634 -1.3591  0.3531
19607TIP3   OH280235   0.302   2.750   0.378  0.8709 -0.0586  0.3245
19607TIP3    H180236   0.393   2.760   0.350  0.0509  0.1511 -2.4085
19607TIP3    H280237   0.286   2.827   0.432  1.6363  1.1678 -1.1431
19608TIP3   OH280238   2.889   4.482   5.740  0.0186 -0.4443 -0.7393
19608TIP3    H180239   2.873   4.569   5.774 -0.4605  0.2979 -2.7703
19608TIP3    H280240   2.976   4.488   5.700  0.6842 -1.3638  0.5469
19609TIP3   OH280241   3.813   5.283  16.322  0.2419 -0.0681  0.1132
19609TIP3    H180242   3.871   5.291  16.246 -1.7024 -1.4858 -1.5550
19609TIP3    H280243   3.780   5.194  16.318 -0.9158  0.2582  1.8921
19610TIP3   OH280244   3.233   2.052   2.954 -0.1429 -0.3274  0.7099
19610TIP3    H180245   3.275   1.970   2.979  2.4554  1.4069  2.3003
19610TIP3    H280246   3.284   2.083   2.879  0.1548  0.7473  1.3315
19611TIP3   OH280247   3.967   5.230  10.348  0.1904 -0.2709 -0.1613
19611TIP3    H180248   3.933   5.153  10.302 -0.0224 -1.9465  2.6797
19611TIP3    H280249   3.922   5.304  10.308 -0.2109 -1.6576 -2.4072
19612TIP3   OH280250   5.302   0.975  14.642 -0.3466  0.1732  0.4056
19612TIP3    H180251   5.219   1.013  14.612 -0.1795 -0.0674 -0.3612
19612TIP3    H280252   5.276   0.893  14.685 -0.3681 -0.7556 -1.3236
19613TIP3   OH280253   5.731   6.678  15.064  0.2097 -0.3162  0.4322
19613TIP3    H180254   5.777   6.756  15.033  1.4006 -0.2165  2.3243
19613TIP3    H280255   5.801   6.622  15.100 -0.9837 -0.7513  2.1558
19614TIP3   OH280256   5.489   4.220  16.016  0.0096 -0.3843 -0.0559
19614TIP3    H180257   5.532   4.153  15.963 -0.7086 -0.4058 -0.6167
19614TIP3    H280258   5.538   4.221  16.098  2.2435  0.8509 -1.3419
19615TIP3   OH280259   5.843   3.232  16.024 -0.3547 -0.1647  0.0263
19615TIP3    H180260   5.929   3.214  15.986 -0.2452  1.5693 -0.6121
19615TIP3    H280261   5.794   3.151  16.016  0.5923 -0.5975 -1.3387
19616TIP3   OH280262   1.827   4.994   3.528  0.1342 -0.4264  0.4146
19616TIP3    H180263   1.783   4.910   3.538 -0.7183  0.0518  0.6955
19616TIP3    H280264   1.813   5.019   3.437  2.8630 -1.9532 -0.5000
19617TIP3   OH280265   0.278   1.161  16.780 -0.4082 -0.3551  0.0491
19617TIP3    H180266   0.202   1.175  16.837 -2.7894  2.1652 -3.5907
19617TIP3    H280267   0.249   1.096  16.716  0.0341  1.5051 -2.1014
19618TIP3   OH280268   1.584   3.510   5.571 -0.1550 -0.1414 -0.3558
19618TIP3    H180269   1.604   3.475   5.484 -0.9795 -1.0698 -0.1801
19618TIP3    H280270   1.538   3.592   5.555 -0.5420 -0.4453 -0.7984
19619TIP3   OH280271   4.094   5.498   0.609 -0.6931 -0.5060  0.9521
19619TIP3    H180272   4.052   5.558   0.547 -0.6516  0.8212  2.1851
19619TIP3    H280273   4.188   5.514   0.599 -0.5918 -1.6967 -0.0361
19620TIP3   OH280274   5.080   5.970  14.558  0.2371  0.0504 -0.3964
19620TIP3    H180275   5.054   5.891  14.606 -1.4120 -0.0267 -1.3730
19620TIP3    H280276   5.159   6.000  14.603  0.6492 -1.9144  0.2474
19621TIP3   OH280277   0.786   2.701  14.104  0.3943 -0.1711  0.3913
19621TIP3    H180278   0.832   2.780  14.132 -0.0844 -0.5838  2.3652
19621TIP3    H280279   0.696   2.714  14.134 -0.8921  0.6310 -3.4045
19622TIP3   OH280280   5.279   1.027   4.587 -0.4858 -0.1353 -0.6185
19622TIP3    H180281   5.258   0.936   4.565  1.1313 -0.3921 -1.2187
19622TIP3    H280282   5.369   1.023   4.620  0.2887  1.4916 -2.4577
19623TIP3   OH280283   2.784   3.240   4.717 -0.2673  0.2755  0.2846
19623TIP3    H180284   2.752   3.164   4.669  0.1493  1.1123 -1.3851
19623TIP3    H280285   2.852   3.206   4.775  1.1676 -0.4071 -1.7260
19624TIP3   OH280286   2.428   3.732   5.115 -0.3949  0.0796  0.0475
19624TIP3    H180287   2.353   3.791   5.117  0.2022  0.8466  0.0196
19624TIP3    H280288   2.430   3.699   5.025 -0.6276  0.1425  0.0190
19625TIP3   OH280289   3.048   4.924  15.983  0.2464 -0.2438  0.1196
19625TIP3    H180290   3.042   4.922  16.079  1.0131 -0.4641  0.1608
19625TIP3    H280291   3.107   4.852  15.961 -0.5344 -0.6867 -0.5692
19626TIP3   OH280292   6.609   5.037  14.507 -0.3847  0.0621 -0.2053
19626TIP3    H180293   6.662   5.103  14.462 -2.0730  1.7042  0.1523
19626TIP3    H280294   6.659   5.015  14.586  0.9465 -0.2961 -1.1216
19627TIP3   OH280295   2.874   0.630   1.943  0.0577 -0.1108  0.2649
19627TIP3    H180296   2.868   0.724   1.958  0.6397 -0.0899  0.3915
19627TIP3    H280297   2.957   0.618   1.897 -0.0582 -0.5505  0.1657
19628TIP3   OH280298   0.790   0.441   3.334  0.4071 -0.1027  0.2994
19628TIP3    H180299   0.740   0.472   3.410  1.1042  1.7057  0.0392
19628TIP3    H280300   0.859   0.386   3.372  0.5374  0.5027  0.9438
19629TIP3   OH280301   2.004   2.922  11.549  0.5172 -0.6690  0.2349
19629TIP3    H180302   1.955   2.940  11.468  0.2496  2.2185  0.9754
19629TIP3    H280303   2.044   2.836  11.534 -3.4198 -2.3804 -1.0418
19630TIP3   OH280304   4.904   3.513  14.807 -0.3290 -0.6751 -0.3134
19630TIP3    H180305   4.824   3.560  14.785  0.3280  0.1861 -0.9169
19630TIP3    H280306   4.974   3.563  14.764  0.5012 -1.5687 -0.0325
19631TIP3   OH280307   4.045   3.836  12.380 -0.1539 -0.4264 -0.3839
19631TIP3    H180308   4.072   3.888  12.304 -0.3173  0.1799 -0.0310
19631TIP3    H280309   4.067   3.746  12.356  1.9592  0.0142 -0.1937
19632TIP3   OH280310   0.689   4.453  12.668  0.2415 -0.5441  0.1451
19632TIP3    H180311   0.700   4.548  12.666  0.6125 -0.5762  0.7759
19632TIP3    H280312   0.739   4.422  12.592  1.3083 -0.3628  0.7735
19633TIP3   OH280313   3.584   4.097   2.979 -0.0992  0.3759 -0.5038
19633TIP3    H180314   3.617   4.187   2.977  0.1891  0.2676 -0.6911
19633TIP3    H280315   3.662   4.043   2.988 -0.2988  0.1595 -0.0606
19634TIP3   OH280316   2.987   1.355   1.151  0.2691  0.8962 -0.2527
19634TIP3    H180317   2.986   1.443   1.115  0.4232  0.5792 -1.0561
19634TIP3    H280318   3.046   1.306   1.093 -1.6951 -0.3391 -1.3023
19635TIP3   OH280319   0.336   1.531   0.556 -0.1202  0.5310 -0.0955
19635TIP3    H180320   0.263   1.556   0.499 -0.4580  0.3197  0.2457
19635TIP3    H280321   0.396   1.606   0.552 -1.3519  1.6090  1.3041
19636TIP3   OH280322   0.508   1.893  12.389 -0.0834  0.1238  0.0186
19636TIP3    H180323   0.560   1.843  12.326 -1.4162 -0.2829 -0.7978
19636TIP3    H280324   0.423   1.903  12.346 -0.3218  1.7555  0.8303
19637TIP3   OH280325   1.040   2.345   3.847  0.2188  0.5905 -0.0701
19637TIP3    H180326   0.994   2.424   3.874 -0.8082 -0.3444  1.0181
19637TIP3    H280327   0.989   2.311   3.773 -0.0734  0.2869  0.2655
19638TIP3   OH280328   4.156   2.724   5.751 -0.3430 -0.1212  0.1217
19638TIP3    H180329   4.114   2.670   5.818 -0.0149  0.3660  0.7224
19638TIP3    H280330   4.146   2.814   5.783  2.4166 -0.0979  0.9960
19639TIP3   OH280331   5.103   6.698  15.947  0.4658 -0.1854 -0.0425
19639TIP3    H180332   5.179   6.660  15.902 -0.3612 -2.1255  0.1395
19639TIP3    H280333   5.070   6.764  15.886  2.0855  0.4161 -0.2769
19640TIP3   OH280334   4.651   0.270   4.872 -0.2185 -0.5400 -0.2067
19640TIP3    H180335   4.642   0.232   4.959  0.1696 -0.2401 -0.0319
19640TIP3    H280336   4.576   0.236   4.823 -0.0760 -1.2294  0.0504
19641TIP3   OH280337   4.641   0.978  14.407  0.3990  0.5979  0.3995
19641TIP3    H180338   4.711   0.948  14.348 -0.7723  0.1353 -0.7912
19641TIP3    H280339   4.639   0.913  14.477  0.8659  0.3569  0.1940
19642TIP3   OH280340   6.678   4.526   4.243 -0.2158 -0.3403 -0.3446
19642TIP3    H180341   6.684   4.599   4.182 -0.4125 -0.6400 -0.7262
19642TIP3    H280342   6.742   4.546   4.312 -0.6366  0.4322 -0.1787
19643TIP3   OH280343   4.451   3.698   0.351  0.3288  0.4816 -0.3144
19643TIP3    H180344   4.438   3.746   0.269  0.2364  0.3761 -0.3620
19643TIP3    H280345   4.545   3.681   0.354  0.3604  0.6646 -0.2981
19644TIP3   OH280346   6.736   1.860   3.253 -0.3014 -0.5381  0.0463
19644TIP3    H180347   6.792   1.871   3.330 -1.1465 -0.6239  0.6841
19644TIP3    H280348   6.746   1.767   3.230 -0.6098 -0.6894  0.5030
19645TIP3   OH280349   5.556   4.784   0.419 -0.5207  0.1326 -0.2144
19645TIP3    H180350   5.514   4.714   0.468  0.1512  0.0930  0.3089
19645TIP3    H280351   5.501   4.795   0.342  1.5540 -3.8034 -2.4560
19646TIP3   OH280352   1.014   4.775   3.065  0.6291 -0.0271  0.0057
19646TIP3    H180353   0.982   4.762   3.154 -2.4895 -0.2733 -1.1164
19646TIP3    H280354   1.104   4.743   3.068  0.5186 -0.2570  2.9975
19647TIP3   OH280355   0.995   2.692   1.860 -0.0108 -0.4205 -0.4678
19647TIP3    H180356   1.038   2.608   1.842 -2.3895 -1.6050 -0.7922
19647TIP3    H280357   0.972   2.726   1.774 -2.8351 -1.5089 -0.1970
19648TIP3   OH280358   2.517   0.709   4.355  0.2279  0.8924  0.0459
19648TIP3    H180359   2.496   0.662   4.435  0.9507  0.9173  0.2543
19648TIP3    H280360   2.477   0.795   4.367 -1.6299  0.1525 -0.5975
19649TIP3   OH280361   4.678   6.364   0.270  0.2325 -0.2246 -0.0219
19649TIP3    H180362   4.591   6.334   0.244  0.5569 -0.0456 -1.3233
19649TIP3    H280363   4.701   6.431   0.206  1.2597 -0.1434  0.4187
19650TIP3   OH280364   0.612   2.516   0.460 -0.4843 -0.4594  0.3793
19650TIP3    H180365   0.546   2.480   0.400 -1.4643  0.5969  0.7919
19650TIP3    H280366   0.562   2.575   0.517  0.8822  0.6595  0.4524
19651TIP3   OH280367   4.915   1.324  15.468  0.6702  0.4274  0.2019
19651TIP3    H180368   4.827   1.295  15.443  0.7865 -0.4531  0.7632
19651TIP3    H280369   4.914   1.419  15.456 -0.6969  0.5599  1.2278
19652TIP3   OH280370   4.506   1.225   1.399 -0.6714 -0.1296  0.1771
19652TIP3    H180371   4.468   1.198   1.316  1.1396 -1.3868 -0.2542
19652TIP3    H280372   4.583   1.170   1.410 -0.0208  1.0797  1.9475
19653TIP3   OH280373   6.663   0.834  10.670  0.3317 -0.6104  0.2088
19653TIP3    H180374   6.754   0.855  10.688  0.3768 -0.4377 -0.2140
19653TIP3    H280375   6.647   0.753  10.719  1.2286 -1.6265 -1.1222
19654TIP3   OH280376   6.531   2.121   3.480  0.5382  0.7545 -0.1012
19654TIP3    H180377   6.479   2.134   3.559  0.0041  0.3673 -0.3853
19654TIP3    H280378   6.478   2.156   3.409  0.1251 -0.7556 -0.5522
19655TIP3   OH280379   1.547   1.259  14.421  0.2665  0.3102 -0.4355
19655TIP3    H180380   1.560   1.347  14.456 -2.4468  0.6319 -0.1803
19655TIP3    H280381   1.500   1.272  14.339 -0.6475 -0.9129 -0.1278
19656TIP3   OH280382   2.327   4.094  13.512  0.6797  0.0305  0.4162
19656TIP3    H180383   2.397   4.069  13.572 -0.3571 -0.1914  1.5676
19656TIP3    H280384   2.285   4.170  13.554 -0.6157 -0.6734  0.4331
19657TIP3   OH280385   5.525   4.304  12.296 -0.0431  0.1648  0.4770
19657TIP3    H180386   5.445   4.349  12.267  0.6156  0.6881 -0.5296
19657TIP3    H280387   5.535   4.231  12.235 -0.2115 -0.4118  1.1281
19658TIP3   OH280388   2.316   6.689  16.404 -0.4908 -0.8020 -0.0587
19658TIP3    H180389   2.362   6.651  16.329 -0.1036 -0.2087 -0.1253
19658TIP3    H280390   2.317   6.621  16.470 -1.2913 -1.5250 -0.7739
19659TIP3   OH280391   4.259   2.704   5.269  0.2261  0.3779 -0.2232
19659TIP3    H180392   4.302   2.621   5.291 -1.5770 -0.7094 -0.7210
19659TIP3    H280393   4.225   2.691   5.180 -0.2431  1.5749 -0.2258
19660TIP3   OH280394   0.748   3.811  14.508  0.4520  0.5203 -0.0039
19660TIP3    H180395   0.683   3.783  14.443  0.2233 -1.5585  1.0743
19660TIP3    H280396   0.761   3.904  14.490 -3.0467  1.0638 -0.0926
19661TIP3   OH280397   0.558   5.654  12.376 -0.3437  0.8398  0.5984
19661TIP3    H180398   0.465   5.638  12.358 -0.4134 -0.2137  1.7653
19661TIP3    H280399   0.594   5.566  12.391  0.7307  1.2847  0.6405
19662TIP3   OH280400   1.307   2.680   4.045  0.3985  0.0613  0.0498
19662TIP3    H180401   1.324   2.629   4.124  0.9827 -0.2122 -0.2416
19662TIP3    H280402   1.326   2.770   4.070  0.3075  0.0098  0.3035
19663TIP3   OH280403   6.303   4.196   3.794  0.0511 -0.3223  0.3869
19663TIP3    H180404   6.350   4.278   3.804 -0.9545  0.3784 -0.5255
19663TIP3    H280405   6.274   4.174   3.883  0.0586  0.4733  0.5869
19664TIP3   OH280406   5.209   6.403  15.997  0.0031  0.5029  0.2111
19664TIP3    H180407   5.255   6.459  15.934  1.2461  1.3270  1.8047
19664TIP3    H280408   5.266   6.326  16.005 -0.6094 -0.0173 -0.3270
19665TIP3   OH280409   2.425   0.163   1.554  0.9184  0.5001  0.0554
19665TIP3    H180410   2.408   0.256   1.545 -1.0037  0.1547 -0.1670
19665TIP3    H280411   2.418   0.129   1.465  1.9946  0.2072  0.0838
19666TIP3   OH280412   2.937   5.717   4.482 -0.3859  0.1854 -0.3325
19666TIP3    H180413   2.921   5.804   4.445  0.4933  0.5074  0.0299
19666TIP3    H280414   3.007   5.681   4.428  0.5132  0.4352  0.6403
19667TIP3   OH280415   1.023   6.759   2.534  0.2826 -0.1468 -0.0847
19667TIP3    H180416   1.012   6.807   2.616 -2.0836 -1.0281  0.1539
19667TIP3    H280417   1.061   6.675   2.560  1.8784  0.5224 -0.1984
19668TIP3   OH280418   6.089   4.447  16.486  0.0618 -0.2490  0.1182
19668TIP3    H180419   6.043   4.508  16.544  1.3242  0.4598  0.3831
19668TIP3    H280420   6.172   4.491  16.466 -0.1676 -0.6770 -1.8688
19669TIP3   OH280421   4.759   4.091  13.098  0.7175  0.3663 -0.1243
19669TIP3    H180422   4.763   4.077  13.003  0.2464 -0.2270 -0.0621
19669TIP3    H280423   4.759   4.002  13.134 -1.2813  0.5190  0.3377
19670TIP3   OH280424   5.676   4.596   2.074 -0.6801  0.4812 -0.1659
19670TIP3    H180425   5.717   4.599   1.987  1.1515 -1.5554  0.5581
19670TIP3    H280426   5.588   4.562   2.058 -0.0454 -0.7457 -1.1581
19671TIP3   OH280427   0.528   2.163   3.218 -0.0779 -0.4476  0.3665
19671TIP3    H180428   0.610   2.124   3.190 -0.3907  0.3141 -1.7335
19671TIP3    H280429   0.473   2.089   3.242  0.6011 -1.0762  0.0012
19672TIP3   OH280430   4.269   4.959  12.377 -0.4200 -0.4446 -0.2453
19672TIP3    H180431   4.328   4.990  12.446 -1.9935  1.7582  0.1699
19672TIP3    H280432   4.324   4.956  12.299  0.4315  0.9221  0.2713
19673TIP3   OH280433   2.009   0.935  13.823  0.2353  0.0767 -0.1541
19673TIP3    H180434   1.927   0.887  13.823  0.4167 -0.2267  0.9752
19673TIP3    H280435   2.070   0.880  13.872  0.8873  0.6968 -0.2592
19674TIP3   OH280436   5.546   4.595   4.303  0.0240 -0.0032  0.0450
19674TIP3    H180437   5.553   4.566   4.394 -2.8148 -0.1681  0.2443
19674TIP3    H280438   5.613   4.544   4.257  1.6223  0.2046  2.0294
19675TIP3   OH280439   0.691   0.842   2.081  0.0309  0.4861  0.8316
19675TIP3    H180440   0.670   0.896   2.158  0.0087  2.2192 -0.3705
19675TIP3    H280441   0.680   0.901   2.007  1.0084 -0.9163 -0.4457
19676TIP3   OH280442   5.171   2.223  12.636 -0.3198  0.2877  0.3205
19676TIP3    H180443   5.156   2.131  12.615 -1.6034  0.9558 -1.8576
19676TIP3    H280444   5.147   2.231  12.729 -5.1145 -0.5762 -0.7300
19677TIP3   OH280445   6.134   0.605   5.259 -0.5371  0.0026 -0.3923
19677TIP3    H180446   6.174   0.600   5.346  0.0493  1.0574 -0.5929
19677TIP3    H280447   6.196   0.657   5.208 -1.4226  0.3225 -1.1365
19678TIP3   OH280448   1.842   6.130  13.665  0.4761 -0.4182 -0.2531
19678TIP3    H180449   1.888   6.079  13.731  0.8735 -0.2046 -0.3661
19678TIP3    H280450   1.770   6.073  13.636  1.0174 -0.9767 -0.4983
19679TIP3   OH280451   2.243   5.225  16.395  0.1926  0.2052  0.8340
19679TIP3    H180452   2.154   5.208  16.364  0.0363  1.1548  0.7363
19679TIP3    H280453   2.238   5.214  16.490 -0.1634  0.8102  0.8901
19680TIP3   OH280454   1.268   5.019   3.036  0.0343 -0.0358  0.4284
19680TIP3    H180455   1.344   5.076   3.031 -0.2507  0.3073 -0.0846
19680TIP3    H280456   1.289   4.955   3.103  0.5684  0.3637  0.6351
19681TIP3   OH280457   5.116   3.013  16.166  0.0098  0.1869 -0.1624
19681TIP3    H180458   5.044   3.001  16.104  0.5201  1.5167 -1.0395
19681TIP3    H280459   5.173   2.938  16.151 -0.7985 -0.4726  0.0000
19682TIP3   OH280460   3.544   0.792   5.526 -0.2018  0.0950 -0.1687
19682TIP3    H180461   3.470   0.848   5.546 -1.6576 -1.9171  0.1949
19682TIP3    H280462   3.564   0.748   5.609  0.9297  0.0914 -0.4362
19683TIP3   OH280463   0.572   1.409  12.037  0.8141 -0.3307  0.2128
19683TIP3    H180464   0.616   1.485  11.999  0.1717 -0.2854 -0.4510
19683TIP3    H280465   0.634   1.337  12.027  1.6861  0.2359  1.4176
19684TIP3   OH280466   2.147   4.484   0.605 -0.0741 -0.1028  0.2050
19684TIP3    H180467   2.103   4.451   0.684 -0.6334  0.3705  0.0999
19684TIP3    H280468   2.197   4.409   0.572 -0.3095 -0.4733  0.6766
19685TIP3   OH280469   6.268   4.859   3.495 -0.0724 -0.3081  0.3480
19685TIP3    H180470   6.286   4.834   3.405 -0.4697 -1.4889  0.5791
19685TIP3    H280471   6.175   4.841   3.507 -0.2939  0.9921  0.6381
19686TIP3   OH280472   4.043   3.397  13.301  0.1293  0.4845  0.0122
19686TIP3    H180473   4.085   3.401  13.215  0.5576  0.1772  0.2068
19686TIP3    H280474   4.002   3.483  13.312  0.6201  0.7532 -0.2225
19687TIP3   OH280475   2.776   2.476  15.207 -0.3728 -0.4605 -0.1496
19687TIP3    H180476   2.773   2.570  15.192  0.9300 -0.3426  0.2203
19687TIP3    H280477   2.855   2.462  15.260  0.1413 -1.8755 -1.2254
19688TIP3   OH280478   6.640   3.077   5.768  0.4016 -0.0366  0.0608
19688TIP3    H180479   6.693   3.007   5.729 -0.6326 -0.0186 -1.3922
19688TIP3    H280480   6.620   3.136   5.695 -2.5081 -0.5924  0.3403
19689TIP3   OH280481   5.510   6.684  14.143 -0.4544  0.6817  0.9480
19689TIP3    H180482   5.590   6.678  14.195 -0.4311 -0.3292  0.8202
19689TIP3    H280483   5.525   6.756  14.082 -0.3685  1.6922  2.1473
19690TIP3   OH280484   2.650   0.234  10.338  0.2380 -0.2696  0.1396
19690TIP3    H180485   2.744   0.245  10.328  0.3857 -0.5382  1.1385
19690TIP3    H280486   2.640   0.155  10.391 -0.5605 -0.4705 -0.3035
19691TIP3   OH280487   3.783   1.075  15.309 -0.0303  0.2820 -0.2821
19691TIP3    H180488   3.703   1.088  15.257  0.2139 -0.9284 -0.9654
19691TIP3    H280489   3.752   1.073  15.400 -1.0197 -2.0747 -0.6559
19692TIP3   OH280490   3.229   6.082   1.983 -0.1846 -0.7739  0.3589
19692TIP3    H180491   3.227   6.137   1.905 -0.1666 -0.0831  0.8403
19692TIP3    H280492   3.319   6.086   2.013  0.0744 -1.9625 -0.2255
19693TIP3   OH280493   5.888   1.452  13.273  0.3544 -0.2798  0.7144
19693TIP3    H180494   5.937   1.527  13.240 -1.0924 -0.1724 -1.3151
19693TIP3    H280495   5.820   1.489  13.328 -0.3537 -0.0633 -0.2797
19694TIP3   OH280496   4.477   3.701   5.909  0.0290 -0.3304 -0.4195
19694TIP3    H180497   4.564   3.668   5.886  0.0550 -0.2482 -0.4419
19694TIP3    H280498   4.493   3.762   5.981  0.1511  0.7108 -1.3119
19695TIP3   OH280499   5.314   3.759   1.773 -0.3765  0.1574  0.5064
19695TIP3    H180500   5.338   3.845   1.740 -0.0342  0.2081  0.8751
19695TIP3    H280501   5.265   3.718   1.702  1.4965 -0.2606 -0.5905
19696TIP3   OH280502   0.571   4.267   0.173 -0.4048  0.2839  0.2124
19696TIP3    H180503   0.626   4.203   0.218  0.5148  0.2208 -0.9582
19696TIP3    H280504   0.505   4.214   0.128  0.4166  0.1237 -0.8377
19697TIP3   OH280505   6.455   5.048   2.917 -0.2271 -0.4386  0.0193
19697TIP3    H180506   6.499   5.107   2.978  3.1240 -2.0394 -0.7128
19697TIP3    H280507   6.468   5.089   2.831  0.8709 -1.4722 -0.3271
19698TIP3   OH280508   2.635   4.608  12.410  0.4376 -0.0798 -0.1345
19698TIP3    H180509   2.573   4.651  12.469 -0.3878 -0.7369 -0.5235
19698TIP3    H280510   2.628   4.656  12.328  0.4972 -0.1064 -0.1556
19699TIP3   OH280511   6.461   5.167   2.642 -0.8665 -0.2131  0.0104
19699TIP3    H180512   6.461   5.113   2.563 -0.0579  0.6972 -0.6254
19699TIP3    H280513   6.412   5.246   2.618 -0.9021 -0.0780  0.5197
19700TIP3   OH280514   1.172   3.389  11.697  0.1687  0.1265  0.2895
19700TIP3    H180515   1.211   3.369  11.612 -0.7665 -2.6901  0.4811
19700TIP3    H280516   1.241   3.368  11.760 -0.3015 -1.1355  0.4023
19701TIP3   OH280517   4.356   1.270   0.165  0.0156  0.2750 -0.3132
19701TIP3    H180518   4.395   1.282   0.251  0.1841  0.5752 -0.4308
19701TIP3    H280519   4.314   1.354   0.145 -0.1824  0.1470 -0.4432
19702TIP3   OH280520   1.537   4.700  13.377 -0.0909  0.5417  0.1417
19702TIP3    H180521   1.536   4.745  13.462  0.4935  2.4600 -0.8531
19702TIP3    H280522   1.446   4.703  13.347  0.4421  3.9186 -1.3643
19703TIP3   OH280523   4.696   2.069  17.007 -0.1006 -0.0745 -0.7328
19703TIP3    H180524   4.764   2.109  16.953  0.1557  0.1249 -0.2614
19703TIP3    H280525   4.632   2.139  17.021  0.6333  0.3514  0.5773
19704TIP3   OH280526   4.176   0.412  13.641 -0.4745  0.3244 -0.1540
19704TIP3    H180527   4.205   0.504  13.645  1.3267 -0.2911  1.7321
19704TIP3    H280528   4.160   0.388  13.732 -0.1698 -1.4757 -0.5579
19705TIP3   OH280529   2.962   3.392   1.167  0.4253 -0.1983  0.2758
19705TIP3    H180530   2.949   3.317   1.110 -1.4583  1.8614 -2.1258
19705TIP3    H280531   2.874   3.411   1.202  0.6443  1.5463 -0.0534
19706TIP3   OH280532   0.397   2.125   1.022 -0.2069  0.5838  0.2578
19706TIP3    H180533   0.390   2.076   0.940  0.4981 -0.7687  0.9826
19706TIP3    H280534   0.485   2.162   1.021 -0.0568  0.2410  0.5706
19707TIP3   OH280535   1.167   0.568  14.006  0.3079 -0.2340 -0.4614
19707TIP3    H180536   1.132   0.592  14.092 -0.1603  0.3441 -0.8070
19707TIP3    H280537   1.261   0.584  14.013  0.2465 -0.0271 -0.1031
19708TIP3   OH280538   2.534   5.012  12.586  0.6171 -0.0633  0.3972
19708TIP3    H180539   2.614   5.041  12.631  0.4749 -0.0095  0.6171
19708TIP3    H280540   2.518   5.079  12.520  1.5952 -0.8532 -0.6574
19709TIP3   OH280541   2.731   5.803  15.482 -0.4909  0.3661 -0.4306
19709TIP3    H180542   2.686   5.764  15.557  2.6704 -2.3297  0.2155
19709TIP3    H280543   2.715   5.741  15.410  2.0365 -0.6515 -0.1822
19710TIP3   OH280544   2.780   4.768  12.656  0.4594 -0.3105 -0.2180
19710TIP3    H180545   2.747   4.686  12.694  1.5771 -0.4335  0.5125
19710TIP3    H280546   2.710   4.798  12.599 -1.1219 -0.3085  1.6870
19711TIP3   OH280547   1.601   1.965  14.511  0.1218  0.3699  0.3812
19711TIP3    H180548   1.614   2.022  14.435 -2.4056  1.0377  0.4038
19711TIP3    H280549   1.670   1.991  14.572  0.8096  1.3519 -0.7863
19712TIP3   OH280550   3.132   4.818  14.632  0.1525  0.0400 -0.6334
19712TIP3    H180551   3.185   4.829  14.711 -0.4561  0.0199 -0.2191
19712TIP3    H280552   3.190   4.776  14.569 -0.0826 -2.1832  0.5923
19713TIP3   OH280553   5.598   4.018   5.330 -0.2162  0.9328  0.1130
19713TIP3    H180554   5.532   4.064   5.383 -0.5894  0.7902 -0.2178
19713TIP3    H280555   5.623   4.082   5.264 -0.0435  0.9774  0.2221
19714TIP3   OH280556   4.152   6.523  17.130 -0.4619  0.1197  0.1997
19714TIP3    H180557   4.130   6.432  17.148 -1.1033  0.5201  1.4706
19714TIP3    H280558   4.068   6.568  17.127 -0.1397  0.6960 -0.3213
19715TIP3   OH280559   0.156   2.514   0.417  0.4351  1.0341 -0.3839
19715TIP3    H180560   0.203   2.595   0.397  0.3163  1.7310  2.0056
19715TIP3    H280561   0.225   2.452   0.440  0.3317  1.5812  1.5002
19716TIP3   OH280562   1.557   5.535  14.678  0.3934  0.2285 -0.1123
19716TIP3    H180563   1.516   5.593  14.742 -2.2341 -0.0904 -1.4287
19716TIP3    H280564   1.545   5.447  14.714 -0.0294  0.1461 -0.4397
19717TIP3   OH280565   3.165   4.393   0.746  0.5057  0.1493 -0.1088
19717TIP3    H180566   3.184   4.393   0.652 -1.0141 -0.5353 -0.4224
19717TIP3    H280567   3.214   4.468   0.780 -0.0095  1.2287 -1.6782
19718TIP3   OH280568   5.340   4.306  12.642  0.4453  0.6063 -0.2483
19718TIP3    H180569   5.353   4.390  12.686  2.3294  0.2192 -0.0062
19718TIP3    H280570   5.312   4.247  12.712 -1.8372  1.2160 -0.5919
19719TIP3   OH280571   0.785   2.558  15.536 -0.7302 -0.5991  0.0421
19719TIP3    H180572   0.864   2.505  15.525 -0.0170  0.4819 -0.1614
19719TIP3    H280573   0.814   2.633  15.589 -1.6798 -0.3346  0.1897
19720TIP3   OH280574   1.410   2.041  13.225 -0.0522 -0.0267 -0.2751
19720TIP3    H180575   1.330   2.037  13.278 -0.1480  0.0985 -0.4097
19720TIP3    H280576   1.434   1.949  13.212  0.2371 -0.0452  0.3838
19721TIP3   OH280577   0.209   3.909  15.818  0.8018 -0.2688  0.5138
19721TIP3    H180578   0.268   3.834  15.828  2.5509  1.2075  1.6476
19721TIP3    H280579   0.245   3.958  15.744  0.8861  0.5323  1.0800
19722TIP3   OH280580   2.126   0.092  10.285 -0.4098 -0.0431  0.0822
19722TIP3    H180581   2.073   0.088  10.365 -0.9401 -0.3532 -0.2852
19722TIP3    H280582   2.214   0.114  10.316 -0.6992  0.2344  0.7156
19723TIP3   OH280583   2.425   5.090   1.969  0.0080  1.0534 -0.6887
19723TIP3    H180584   2.470   5.064   1.888  0.0537  1.8631 -0.9288
19723TIP3    H280585   2.337   5.115   1.940 -0.0478  1.1327 -0.4520
19724TIP3   OH280586   1.941   6.575   4.703  0.0159 -0.2780  0.4773
19724TIP3    H180587   1.896   6.497   4.733  0.9362 -0.8786  0.3030
19724TIP3    H280588   1.964   6.557   4.612  3.2231 -1.1891  1.4110
19725TIP3   OH280589   5.995   1.428  15.054 -0.0279  0.3223  0.4472
19725TIP3    H180590   5.999   1.430  15.150  1.6358 -1.4732  0.4520
19725TIP3    H280591   5.977   1.337  15.033  2.3842  0.1200 -0.9857
19726TIP3   OH280592   0.735   4.252  12.890 -0.2266  0.1190  0.5188
19726TIP3    H180593   0.800   4.316  12.918  0.0024 -0.1986  0.7211
19726TIP3    H280594   0.715   4.276  12.800  0.7236 -0.2199  0.2075
19727TIP3   OH280595   0.084   1.082  12.784 -0.0379  0.3962 -0.0284
19727TIP3    H180596   0.004   1.045  12.745  2.0503 -0.5143 -3.6849
19727TIP3    H280597   0.052   1.142  12.851 -3.6947 -3.6833  2.1095
19728TIP3   OH280598   3.703   0.123   3.305  0.4734 -0.2688 -0.6372
19728TIP3    H180599   3.750   0.060   3.360  2.0500 -0.1342 -1.7744
19728TIP3    H280600   3.769   0.153   3.243  0.0010  3.1840  0.4371
19729TIP3   OH280601   3.867   4.737  16.476  0.2626 -0.0881 -0.1507
19729TIP3    H180602   3.889   4.662  16.420 -0.6521 -0.2872 -0.2556
19729TIP3    H280603   3.772   4.728  16.491  0.2417  0.7828  0.2289
19730TIP3   OH280604   1.805   5.513  11.034  0.2773  0.2344  0.4518
19730TIP3    H180605   1.721   5.557  11.043  0.4628  0.6133  0.3511
19730TIP3    H280606   1.784   5.427  10.998 -0.1033  0.1767  0.8087
19731TIP3   OH280607   5.835   0.116   4.756  0.3890  0.0847  0.4916
19731TIP3    H180608   5.817   0.038   4.809  1.0909  0.4383  1.2568
19731TIP3    H280609   5.758   0.171   4.768  0.1409 -0.2387  0.4027
19732TIP3   OH280610   2.811   0.673  13.595 -0.1442 -0.2150  0.5985
19732TIP3    H180611   2.718   0.672  13.572 -0.1742  2.0471  0.5543
19732TIP3    H280612   2.846   0.594  13.554 -1.9114 -0.7735  0.0999
19733TIP3   OH280613   2.245   2.345   5.840  0.4224  0.3177  0.2274
19733TIP3    H180614   2.179   2.414   5.847 -0.6035 -0.2935 -2.7478
19733TIP3    H280615   2.215   2.277   5.900  0.8489  1.9344  2.3596
19734TIP3   OH280616   4.625   5.008  17.169  0.5313 -0.0953  0.5320
19734TIP3    H180617   4.624   4.913  17.158  0.3494  0.0020 -0.3270
19734TIP3    H280618   4.623   5.043  17.080  0.0904  0.7186  0.8519
19735TIP3   OH280619   2.221   1.828  11.538 -0.1003  0.0664  0.1658
19735TIP3    H180620   2.144   1.774  11.526 -0.3969  0.4211  0.4637
19735TIP3    H280621   2.226   1.880  11.457 -2.1470  2.5111  1.5241
19736TIP3   OH280622   2.224   3.637   2.011 -0.0281  0.3137  0.2400
19736TIP3    H180623   2.249   3.715   1.961  0.1041 -0.6323 -1.1984
19736TIP3    H280624   2.152   3.598   1.961  0.3276 -0.8376  0.6014
19737TIP3   OH280625   0.817   4.525   3.283  0.2065 -0.3010  0.0077
19737TIP3    H180626   0.788   4.446   3.328 -1.2608  1.0085  1.4000
19737TIP3    H280627   0.911   4.530   3.302 -0.2817 -0.0499  2.5175
19738TIP3   OH280628   4.280   2.418   4.654  0.3623  0.1702  0.1006
19738TIP3    H180629   4.333   2.369   4.591  2.0235  2.9221 -0.7277
19738TIP3    H280630   4.336   2.426   4.731 -0.1980  0.1688  0.5156
19739TIP3   OH280631   3.966   6.602   3.189 -0.4829 -0.3995  0.1914
19739TIP3    H180632   3.999   6.521   3.151 -0.3619 -0.9868  1.5240
19739TIP3    H280633   4.044   6.645   3.224 -0.9697 -1.2977  2.4255
19740TIP3   OH280634   3.476   5.001  12.065  0.2314  0.3571  0.4077
19740TIP3    H180635   3.525   4.970  11.989  0.3421  1.2250  0.1204
19740TIP3    H280636   3.401   4.942  12.071  0.5271 -0.0629 -0.0361
19741TIP3   OH280637   4.192   3.171   1.383  0.1865  0.8720  0.0360
19741TIP3    H180638   4.167   3.093   1.433  2.0306  0.3845  0.2369
19741TIP3    H280639   4.176   3.244   1.442  1.9765  0.3294  1.2256
19742TIP3   OH280640   3.181   3.574   4.268 -0.2775  0.4652  0.2439
19742TIP3    H180641   3.163   3.485   4.299 -1.6917  0.5496 -0.3026
19742TIP3    H280642   3.276   3.577   4.258 -0.2321 -1.0333  0.1260
19743TIP3   OH280643   4.100   2.462  11.659 -0.1891  0.1872 -0.0056
19743TIP3    H180644   4.125   2.555  11.661  0.1848  0.1071 -0.7957
19743TIP3    H280645   4.127   2.428  11.745  0.5917  0.5736 -0.0948
19744TIP3   OH280646   2.171   1.574   3.016 -0.2696 -0.1183 -0.2458
19744TIP3    H180647   2.093   1.522   2.995 -1.8924  1.6607  1.2362
19744TIP3    H280648   2.233   1.510   3.051 -1.2554 -1.4775 -0.9342
19745TIP3   OH280649   3.845   4.300  11.901 -0.0329  0.4904  0.1036
19745TIP3    H180650   3.782   4.252  11.954 -0.6851  1.3170  0.0839
19745TIP3    H280651   3.899   4.232  11.860  0.1502 -0.1779  1.4031
19746TIP3   OH280652   1.166   6.605   1.264 -0.2849 -0.3493  0.0865
19746TIP3    H180653   1.198   6.694   1.276 -2.4013  0.5402 -0.6260
19746TIP3    H280654   1.230   6.550   1.309 -0.3281  1.7117  2.7628
19747TIP3   OH280655   5.448   4.973  16.791  0.2554  0.4567 -0.6042
19747TIP3    H180656   5.487   5.023  16.862 -0.5508 -0.7763  0.7296
19747TIP3    H280657   5.411   5.039  16.733 -1.0001  1.4040  1.2383
19748TIP3   OH280658   6.504   0.929   6.075 -0.0279  0.1347  0.3799
19748TIP3    H180659   6.438   0.959   6.138  1.0698  0.2101  1.5098
19748TIP3    H280660   6.491   0.834   6.071 -1.6015  0.3777 -1.0256
19749TIP3   OH280661   4.225   1.689  16.796 -0.7079 -0.2963 -0.2541
19749TIP3    H180662   4.161   1.633  16.840  1.0146 -1.2666  1.0317
19749TIP3    H280663   4.209   1.675  16.702 -0.8196 -2.3166  0.0649
19750TIP3   OH280664   3.122   1.231   4.141 -0.3118 -0.7284 -0.0473
19750TIP3    H180665   3.133   1.178   4.220  0.6399 -0.9983 -0.3477
19750TIP3    H280666   3.144   1.320   4.168 -0.9232 -0.6544  0.2164
19751TIP3   OH280667   6.132   0.733   4.068 -0.1157 -0.3074  0.0544
19751TIP3    H180668   6.095   0.772   4.146  0.7967  0.5762  0.0557
19751TIP3    H280669   6.064   0.673   4.036 -2.5068  3.0053 -1.3076
19752TIP3   OH280670   1.031   5.908  17.157 -0.4754 -0.0135  0.2613
19752TIP3    H180671   1.126   5.905  17.173 -0.1927  0.6240 -1.2531
19752TIP3    H280672   1.014   5.833  17.100 -0.2135  2.1657 -2.7753
19753TIP3   OH280673   0.003   5.244  14.419  0.0928  0.0740  0.0240
19753TIP3    H180674   0.033   5.328  14.454 -0.3274  0.5677 -0.7606
19753TIP3    H280675   0.079   5.208  14.375  0.6676 -0.6259  1.5620
19754TIP3   OH280676   4.756   3.746   2.584  0.1106 -0.3921 -0.7536
19754TIP3    H180677   4.837   3.751   2.635 -0.5413  0.6461  0.2145
19754TIP3    H280678   4.756   3.827   2.532  0.0997 -0.7881 -1.3682
19755TIP3   OH280679   5.842   2.894  12.125  0.2188  0.3746  0.3191
19755TIP3    H180680   5.826   2.969  12.183 -0.1724 -0.0778  0.8048
19755TIP3    H280681   5.831   2.928  12.037 -0.9210  0.6676  0.5686
19756TIP3   OH280682   4.306   1.407  15.278  0.0613  0.0604  0.1242
19756TIP3    H180683   4.319   1.321  15.318 -0.2356 -0.4263 -0.7997
19756TIP3    H280684   4.212   1.409  15.256 -0.5144  1.6984  2.5641
19757TIP3   OH280685   6.644   2.449  11.784 -0.3030 -0.5302  0.5147
19757TIP3    H180686   6.606   2.408  11.707 -1.3294 -0.5601  1.0252
19757TIP3    H280687   6.572   2.453  11.847 -0.3845  2.4029  0.3402
19758TIP3   OH280688   3.822   0.802  16.822 -0.1928  0.6906  0.3687
19758TIP3    H180689   3.899   0.833  16.870  0.3976 -0.0899 -0.0617
19758TIP3    H280690   3.830   0.841  16.735 -0.9152  1.5667  0.6815
19759TIP3   OH280691   3.192   1.020   3.266  0.3767 -0.7569  0.2411
19759TIP3    H180692   3.237   0.936   3.274  1.2113 -0.3195  0.1999
19759TIP3    H280693   3.231   1.075   3.335  3.3354  1.1535 -2.7986
19760TIP3   OH280694   2.760   6.642  11.142 -0.6378  0.1677 -0.0656
19760TIP3    H180695   2.842   6.686  11.167 -0.8427  0.4301  0.1545
19760TIP3    H280696   2.788   6.560  11.102 -0.2377  0.6029 -0.6939
19761TIP3   OH280697   5.540   4.971  14.326  0.5714  0.2303 -0.3352
19761TIP3    H180698   5.469   4.917  14.293  0.9067 -0.0024 -0.6766
19761TIP3    H280699   5.608   4.909  14.353  0.5443  0.4384  0.2330
19762TIP3   OH280700   6.204   4.997  10.677 -0.1461  0.3344 -0.2696
19762TIP3    H180701   6.242   5.015  10.591  0.2984  1.6545  0.1893
19762TIP3    H280702   6.116   5.033  10.672  0.1430  1.1095  0.0697
19763TIP3   OH280703   3.085   1.239  16.007  0.4187 -0.1209  0.2577
19763TIP3    H180704   3.145   1.172  15.973 -0.0067  0.5445 -1.9077
19763TIP3    H280705   2.999   1.212  15.974  0.1024  0.9840  0.1590
19764TIP3   OH280706   4.805   0.239   5.712 -0.0038 -0.1800  0.4694
19764TIP3    H180707   4.796   0.165   5.652  1.5824  0.0558 -0.0910
19764TIP3    H280708   4.900   0.245   5.729  0.0504  2.5912 -0.6145
19765TIP3   OH280709   2.557   5.589   2.922 -0.2522  0.0903  0.6645
19765TIP3    H180710   2.553   5.532   2.846  1.1565 -0.7274  1.1962
19765TIP3    H280711   2.636   5.642   2.909  1.2501 -1.6085  2.6163
19766TIP3   OH280712   1.897   4.241  14.980 -0.1930 -0.1340  0.5512
19766TIP3    H180713   1.936   4.154  14.985 -1.1688 -0.6384 -0.4373
19766TIP3    H280714   1.920   4.282  15.064  1.3517 -0.8639  0.4989
19767TIP3   OH280715   1.464   0.383  15.047  0.1136 -0.4821  0.0540
19767TIP3    H180716   1.424   0.322  15.108  0.0080  0.2314  0.7126
19767TIP3    H280717   1.439   0.470  15.079  1.4201 -0.0471 -0.0329
19768TIP3   OH280718   4.382   1.969   6.047 -0.3327  0.5174  1.0613
19768TIP3    H180719   4.307   2.023   6.024  0.0896  0.4297 -0.5728
19768TIP3    H280720   4.455   2.005   5.997 -0.0755 -1.6350 -0.1782
19769TIP3   OH280721   1.840   5.479   2.530 -0.4670  0.5507  0.3537
19769TIP3    H180722   1.756   5.442   2.555  0.7404 -1.6306  1.3617
19769TIP3    H280723   1.838   5.480   2.434 -1.6755  0.5922  0.3763
19770TIP3   OH280724   3.659   0.659   3.265 -0.2738 -0.1819  0.2945
19770TIP3    H180725   3.662   0.673   3.360 -1.2689 -1.8522  0.5902
19770TIP3    H280726   3.750   0.667   3.236 -0.2210  2.4235  1.0594
19771TIP3   OH280727   6.514   4.378  13.358  0.1146  0.3443  0.4317
19771TIP3    H180728   6.590   4.373  13.417  2.1672  1.4588 -2.0618
19771TIP3    H280729   6.513   4.468  13.328 -2.2504  0.3409  0.4462
19772TIP3   OH280730   0.389   2.992   4.577  0.5006  0.3062  0.3308
19772TIP3    H180731   0.441   2.940   4.516  0.4447  0.6015  0.0275
19772TIP3    H280732   0.315   2.935   4.600 -0.2117  0.6842 -0.9478
19773TIP3   OH280733   0.201   3.708   2.158 -0.0944 -0.0474 -0.5277
19773TIP3    H180734   0.237   3.709   2.069 -0.8603  1.7821 -0.8535
19773TIP3    H280735   0.106   3.701   2.146 -0.0841 -1.7198  0.2232
19774TIP3   OH280736   2.126   2.588   2.691 -0.1497 -0.0024 -0.0976
19774TIP3    H180737   2.217   2.562   2.704 -0.6130 -1.1044  1.0315
19774TIP3    H280738   2.082   2.566   2.773 -1.2623  1.3378 -0.2979
19775TIP3   OH280739   4.703   5.022  12.833  0.5970 -0.6716 -0.6581
19775TIP3    H180740   4.726   5.074  12.910  0.3663 -0.4594 -0.7353
19775TIP3    H280741   4.708   4.931  12.864 -1.6521 -0.5330  0.2094
19776TIP3   OH280742   2.322   0.465   0.221  0.3700 -0.3882 -0.4175
19776TIP3    H180743   2.398   0.409   0.205  1.7222  1.0686  0.8015
19776TIP3    H280744   2.353   0.531   0.283 -1.6937  0.6633 -0.4610
19777TIP3   OH280745   3.103   6.175   0.199  0.7903  0.0591 -0.1279
19777TIP3    H180746   3.089   6.205   0.288  0.9276  0.7904 -0.3503
19777TIP3    H280747   3.197   6.179   0.186  0.7344  0.4354 -0.4630
19778TIP3   OH280748   5.364   5.221  13.268  0.6685  0.0709  0.5772
19778TIP3    H180749   5.346   5.312  13.292  1.8978  0.7869 -1.1271
19778TIP3    H280750   5.458   5.220  13.249  0.4714 -1.3440 -0.3392
19779TIP3   OH280751   5.209   4.242   4.102 -0.4073  0.0612 -0.1876
19779TIP3    H180752   5.257   4.293   4.037  0.2459 -0.0037  0.2433
19779TIP3    H280753   5.264   4.244   4.180 -0.6841 -0.7798  0.0302
19780TIP3   OH280754   2.199   1.556  11.993  0.0399 -0.5295 -0.4611
19780TIP3    H180755   2.185   1.646  11.963 -2.0110 -0.6650  0.0340
19780TIP3    H280756   2.144   1.503  11.936  0.5121 -1.3817 -0.1277
19781TIP3   OH280757   5.057   3.374   1.557 -0.3554 -0.6163  0.5335
19781TIP3    H180758   5.152   3.368   1.566 -0.1225  0.0441 -1.1497
19781TIP3    H280759   5.031   3.447   1.613 -0.0422 -1.5838  1.9573
19782TIP3   OH280760   5.838   0.831  10.941  0.3657 -0.1583 -0.1429
19782TIP3    H180761   5.822   0.924  10.957 -1.4398 -0.2026 -1.4649
19782TIP3    H280762   5.929   0.826  10.914  0.5501  1.1927  0.2036
19783TIP3   OH280763   1.094   1.104  12.618  0.2602 -0.1195  0.0433
19783TIP3    H180764   1.035   1.068  12.684 -0.0338  1.0745  0.4279
19783TIP3    H280765   1.118   1.190  12.651  0.9635  0.0463 -0.8884
19784TIP3   OH280766   1.633   0.240  12.938  0.3985 -0.1708  0.4297
19784TIP3    H180767   1.650   0.250  13.032  0.2790  0.8944  0.3394
19784TIP3    H280768   1.548   0.280  12.924  0.0205 -1.1036  0.0042
19785TIP3   OH280769   6.726   1.826   2.118  0.4145 -0.3976  0.2044
19785TIP3    H180770   6.733   1.822   2.022  0.2337 -0.1563  0.1800
19785TIP3    H280771   6.651   1.771   2.139 -1.1957  1.6739 -0.0128
19786TIP3   OH280772   5.389   1.850  12.960 -0.5286 -0.5116 -0.1988
19786TIP3    H180773   5.405   1.941  12.985  0.2074 -0.7058  0.0649
19786TIP3    H280774   5.436   1.839  12.877 -0.7339 -0.6165 -0.3026
19787TIP3   OH280775   2.067   0.965   5.138 -0.8384  0.0497 -0.0805
19787TIP3    H180776   2.017   0.971   5.056 -2.5701 -2.9871  0.6956
19787TIP3    H280777   2.159   0.969   5.110 -1.4191  0.3778 -2.0346
19788TIP3   OH280778   4.482   3.375   2.137  0.3302  0.4993 -0.0990
19788TIP3    H180779   4.566   3.332   2.118  0.0720 -1.0821  2.2146
19788TIP3    H280780   4.503   3.442   2.201 -0.2575 -0.2986  0.9393
19789TIP3   OH280781   1.432   0.176   0.306  0.0033  0.2113  0.1304
19789TIP3    H180782   1.489   0.106   0.274 -0.2548  0.8788 -1.8150
19789TIP3    H280783   1.460   0.254   0.260 -2.1227  0.6592 -0.4862
19790TIP3   OH280784   4.028   3.680   4.720 -0.2515  0.0688 -0.3943
19790TIP3    H180785   3.941   3.685   4.681 -1.0395  0.2569  1.3430
19790TIP3    H280786   4.050   3.770   4.744 -0.5271 -0.2503  1.1445
19791TIP3   OH280787   1.463   0.325   4.885 -0.1479  0.0472  0.4048
19791TIP3    H180788   1.500   0.245   4.846 -1.5029  1.0022 -3.0751
19791TIP3    H280789   1.442   0.300   4.975  0.0551 -3.3286 -0.3966
19792TIP3   OH280790   3.431   5.892  13.563  0.1075  0.2266  0.0706
19792TIP3    H180791   3.414   5.829  13.633  0.7656  0.7468  0.7090
19792TIP3    H280792   3.425   5.840  13.483 -0.0120 -0.5145  0.5482
19793TIP3   OH280793   6.241   2.517  15.104 -0.0100  0.5672  0.3968
19793TIP3    H180794   6.171   2.576  15.131  0.9229  0.4763  3.2854
19793TIP3    H280795   6.321   2.569  15.110  0.3889  0.1071 -0.8485
19794TIP3   OH280796   4.669   6.060   0.076 -0.2079 -0.6861  0.2166
19794TIP3    H180797   4.613   6.133   0.100  1.8684  0.6332  1.2189
19794TIP3    H280798   4.635   6.029  -0.008 -1.8904  0.6031  0.4186
19795TIP3   OH280799   3.064   2.883   1.611 -0.5908 -0.2954  0.2941
19795TIP3    H180800   2.984   2.890   1.662 -1.0438 -1.5119 -0.2310
19795TIP3    H280801   3.133   2.917   1.670 -1.1740 -1.1843  1.5129
19796TIP3   OH280802   6.667   2.209  15.098  0.0088 -0.3246 -0.1160
19796TIP3    H180803   6.721   2.259  15.159  0.3445 -0.7753 -0.0429
19796TIP3    H280804   6.577   2.224  15.127  0.1162  0.1331 -0.0168
19797TIP3   OH280805   2.738   2.226   0.374  0.2473 -0.3424 -0.2097
19797TIP3    H180806   2.821   2.249   0.332  1.5944 -1.0842  1.9292
19797TIP3    H280807   2.718   2.302   0.429  0.0693 -0.6196  0.1064
19798TIP3   OH280808   4.986   5.459   1.355 -0.2238  0.0217  0.7745
19798TIP3    H180809   5.076   5.488   1.340  0.0749 -0.7749  1.0212
19798TIP3    H280810   4.970   5.394   1.287 -1.0443  1.0490 -0.0459
19799TIP3   OH280811   3.144   0.063  16.096 -0.3687 -0.0925  0.2595
19799TIP3    H180812   3.079   0.053  16.027  1.0967 -0.2872 -1.1184
19799TIP3    H280813   3.210  -0.003  16.077  0.3860  0.2978  1.4674
19800TIP3   OH280814   3.662   6.182  14.680 -0.3738 -0.1695 -0.1683
19800TIP3    H180815   3.570   6.205  14.693 -0.5457  0.0564 -1.7551
19800TIP3    H280816   3.680   6.204  14.589  1.7041  1.2946  0.5625
19801TIP3   OH280817   6.031   5.002  11.938  0.1393 -0.2198 -0.1718
19801TIP3    H180818   6.056   4.956  12.018 -1.5501  0.1162  0.5836
19801TIP3    H280819   6.026   4.934  11.871  1.2000 -0.5645  0.1048
19802TIP3   OH280820   3.646   1.354   0.827 -0.4733 -0.4545 -0.0164
19802TIP3    H180821   3.596   1.403   0.892  2.7336  1.7192  0.9000
19802TIP3    H280822   3.695   1.290   0.878  0.0799 -0.4782 -0.5735
19803TIP3   OH280823   4.093   3.844   3.078  0.0400 -0.2789 -0.2732
19803TIP3    H180824   4.122   3.809   3.163 -1.5219  0.5107  0.6058
19803TIP3    H280825   4.109   3.938   3.085  1.0613 -0.3633 -1.3452
19804TIP3   OH280826   6.500   6.615   1.356  0.7582 -0.2609 -0.4053
19804TIP3    H180827   6.480   6.666   1.434 -0.9867 -2.4114  0.5994
19804TIP3    H280828   6.461   6.664   1.284 -3.0589 -1.3305  0.8223
19805TIP3   OH280829   3.555   1.262   5.943  0.2411  0.1430  0.0158
19805TIP3    H180830   3.548   1.196   6.012 -0.0536  1.8502  1.6711
19805TIP3    H280831   3.537   1.345   5.987  1.7169  1.4765 -1.7763
19806TIP3   OH280832   0.505   6.516  16.664 -0.0494 -0.4064 -0.2892
19806TIP3    H180833   0.502   6.498  16.570  2.1186 -1.5514 -0.1814
19806TIP3    H280834   0.465   6.438  16.704  0.9596 -0.8887 -0.1974
19807TIP3   OH280835   4.645   3.735   6.936  0.0702  0.4142  0.0390
19807TIP3    H180836   4.583   3.797   6.897 -0.4321  0.4391  0.8480
19807TIP3    H280837   4.632   3.655   6.886 -1.1585  0.2016  0.6607
19808TIP3   OH280838   2.022   6.394  12.206 -0.7971  0.0093  0.0785
19808TIP3    H180839   2.036   6.484  12.236 -0.3329 -0.3089  0.8189
19808TIP3    H280840   1.996   6.403  12.115  0.2145  0.8355 -0.1281
19809TIP3   OH280841   4.114   1.745  11.110 -0.2928  0.1647 -0.0385
19809TIP3    H180842   4.046   1.772  11.173 -0.4198  0.1136 -0.1523
19809TIP3    H280843   4.067   1.737  11.027 -0.2010 -0.1454 -0.0592
19810TIP3   OH280844   2.068   2.837  14.827  0.1381  0.0662  0.0697
19810TIP3    H180845   1.993   2.839  14.886  1.1500 -0.8977  1.4145
19810TIP3    H280846   2.078   2.744  14.804  1.0071  0.1693  0.0196
19811TIP3   OH280847   3.188   5.672  14.028 -0.3287 -0.1148  0.1614
19811TIP3    H180848   3.206   5.709  13.941 -0.1222  1.1550  0.7206
19811TIP3    H280849   3.271   5.683  14.076 -0.5078 -0.6016  0.5898
19812TIP3   OH280850   6.786   5.541  13.061  0.0897 -0.2174  0.2184
19812TIP3    H180851   6.806   5.530  12.968 -0.4234 -0.1714  0.1025
19812TIP3    H280852   6.872   5.546  13.103  0.3353  2.5671 -0.5648
19813TIP3   OH280853   0.795   4.440   0.530  0.2404  0.5588  0.5701
19813TIP3    H180854   0.744   4.452   0.450 -0.0680 -3.1115  0.1164
19813TIP3    H280855   0.744   4.484   0.598 -0.6232  1.8090 -0.8670
19814TIP3   OH280856   6.547   1.695   5.675 -0.2505 -0.0190 -0.6444
19814TIP3    H180857   6.585   1.764   5.620  0.3017 -0.2908 -0.6038
19814TIP3    H280858   6.550   1.731   5.764  1.8547 -0.8755 -0.3549
19815TIP3   OH280859   6.494   1.519   1.469 -0.2293  0.5317 -0.5754
19815TIP3    H180860   6.570   1.504   1.412 -1.1338 -1.6769 -1.2391
19815TIP3    H280861   6.433   1.568   1.414 -0.0675  0.6533 -0.6498
19816TIP3   OH280862   0.944   0.030   1.899  0.0633  0.1052  0.2299
19816TIP3    H180863   0.936   0.099   1.965 -1.0519  0.4836 -0.2889
19816TIP3    H280864   0.944   0.077   1.815  1.7538 -0.3454 -0.0372
19817TIP3   OH280865   6.531   3.659  15.271 -0.4660 -0.2572  0.0185
19817TIP3    H180866   6.603   3.684  15.330 -2.3995  1.7077  1.6571
19817TIP3    H280867   6.523   3.733  15.211 -0.8776 -0.6314 -0.3868
19818TIP3   OH280868   3.733   3.355  14.259 -0.2312 -0.4049 -0.5494
19818TIP3    H180869   3.677   3.423  14.222  0.8807  0.7075 -0.2317
19818TIP3    H280870   3.765   3.307  14.182 -0.7588 -0.3626 -0.7994
19819TIP3   OH280871   0.328   4.572   4.331  0.3299 -0.0756 -0.3673
19819TIP3    H180872   0.364   4.495   4.288 -1.9110 -1.1621 -0.3834
19819TIP3    H280873   0.285   4.620   4.260  0.5740  0.5073 -0.1226
19820TIP3   OH280874   2.441   3.610   0.549  0.1474 -0.7058  0.4316
19820TIP3    H180875   2.514   3.578   0.495 -0.6721  0.7392 -1.5849
19820TIP3    H280876   2.483   3.647   0.627  1.6762  1.1303 -1.2217
19821TIP3   OH280877   2.367   2.023  13.159  1.1197 -0.2280 -0.1111
19821TIP3    H180878   2.371   1.949  13.219 -0.7036 -1.0023 -0.8901
19821TIP3    H280879   2.367   1.982  13.072 -1.2734  0.5914 -0.5234
19822TIP3   OH280880   3.497   1.318   3.571  0.6024  0.1723 -0.2013
19822TIP3    H180881   3.526   1.407   3.551  0.2104  0.4326  0.3402
19822TIP3    H280882   3.538   1.298   3.656  0.6111 -0.1236 -0.2747
19823TIP3   OH280883   1.893   5.161  13.332  0.7046 -0.5881  0.5538
19823TIP3    H180884   1.898   5.186  13.239 -0.0872  2.9441  1.3966
19823TIP3    H280885   1.981   5.179  13.366  0.3042  0.4613  1.0355
19824TIP3   OH280886   5.053   1.088  14.590  0.8734 -0.8312 -0.0252
19824TIP3    H180887   5.055   1.089  14.686  0.6805 -0.2413 -0.0232
19824TIP3    H280888   4.969   1.128  14.568  1.2769 -0.2236 -0.4537
19825TIP3   OH280889   2.375   0.240   3.481 -0.2553 -0.1149 -0.3371
19825TIP3    H180890   2.442   0.183   3.444 -0.1759 -0.7706  0.7896
19825TIP3    H280891   2.405   0.329   3.462  1.2119 -0.3887  0.6052
19826TIP3   OH280892   0.679   1.163  11.953  0.0502  0.4919  0.0330
19826TIP3    H180893   0.762   1.119  11.971  0.0300  0.7838  0.8755
19826TIP3    H280894   0.613   1.098  11.975  0.0754 -0.2531 -2.0617
19827TIP3   OH280895   0.560   6.349   0.190  0.1791 -0.1353 -0.1623
19827TIP3    H180896   0.599   6.434   0.171  1.1964 -0.7126 -0.7337
19827TIP3    H280897   0.634   6.295   0.217 -0.4718 -0.8116  0.2775
19828TIP3   OH280898   6.074   4.913  11.505  0.2968 -0.2124  0.5008
19828TIP3    H180899   5.989   4.940  11.471  0.5819 -0.8154 -0.7335
19828TIP3    H280900   6.055   4.868  11.587 -0.4691  0.7281  0.8356
19829TIP3   OH280901   0.561   4.721  11.344  0.0492 -0.0814  0.2151
19829TIP3    H180902   0.630   4.722  11.278  0.7849 -3.0770  0.8653
19829TIP3    H280903   0.607   4.717  11.427 -0.8874 -1.4312  0.6843
19830TIP3   OH280904   5.812   0.743   0.967 -0.7175 -0.1242 -0.3395
19830TIP3    H180905   5.791   0.834   0.987  3.2612  1.1410 -1.5366
19830TIP3    H280906   5.751   0.719   0.898 -1.6166  1.7029 -0.2121
19831TIP3   OH280907   1.323   6.587   5.318  0.5440 -0.0259  0.2750
19831TIP3    H180908   1.233   6.557   5.331  0.9287 -1.2966  0.1505
19831TIP3    H280909   1.349   6.548   5.234  0.4754  2.1489 -0.7852
19832TIP3   OH280910   5.526   0.353   6.077  0.3390 -0.0792 -0.2631
19832TIP3    H180911   5.592   0.398   6.130 -0.8000  1.7676 -0.3778
19832TIP3    H280912   5.570   0.334   5.995  1.9125 -2.3710  1.0346
19833TIP3   OH280913   5.637   0.571  16.535  0.9479  0.0636 -0.1450
19833TIP3    H180914   5.566   0.518  16.498  0.5429  0.2308  0.3781
19833TIP3    H280915   5.635   0.652  16.484 -1.3533  1.3897  1.9342
19834TIP3   OH280916   1.247   2.441   6.125  0.4871  0.1528  0.0388
19834TIP3    H180917   1.226   2.348   6.139  1.4708  0.0106  0.5929
19834TIP3    H280918   1.226   2.483   6.208 -1.3932  0.7016 -0.6807
19835TIP3   OH280919   6.653   0.968  11.435 -0.4356 -0.3333 -0.6541
19835TIP3    H180920   6.600   0.914  11.495  1.6726  0.0263  1.6375
19835TIP3    H280921   6.696   0.904  11.378  0.7366 -0.9881  0.9324
19836TIP3   OH280922   6.255   5.241   3.397  0.0345 -0.4799 -0.3598
19836TIP3    H180923   6.328   5.201   3.444  0.8787  0.9669 -0.4086
19836TIP3    H280924   6.188   5.254   3.463  1.4266  2.0759  0.6529
19837TIP3   OH280925   2.712   2.977   1.023 -0.2530  0.5434 -0.1137
19837TIP3    H180926   2.664   3.057   1.043 -1.9145 -1.3175  3.9727
19837TIP3    H280927   2.645   2.909   1.019  1.4947 -1.2799  0.4192
19838TIP3   OH280928   4.165   5.893   5.888  0.1027 -0.3288  0.7668
19838TIP3    H180929   4.256   5.864   5.875 -0.5788 -1.7823 -0.8380
19838TIP3    H280930   4.130   5.832   5.954  0.2035  0.0786  1.2021
19839TIP3   OH280931   0.573   5.559  17.068 -0.0205  0.3860 -0.3287
19839TIP3    H180932   0.667   5.575  17.069  0.0853 -0.1932  0.5176
19839TIP3    H280933   0.536   5.624  17.128 -0.1575  0.6118 -0.6567
19840TIP3   OH280934   1.561   3.698  15.865 -0.0076 -0.0715  0.1702
19840TIP3    H180935   1.653   3.715  15.843 -0.1840  0.3097 -0.2979
19840TIP3    H280936   1.563   3.661  15.953  0.4661  1.8153  0.9729
19841TIP3   OH280937   4.498   1.076   3.705  0.2456 -0.3429  0.9108
19841TIP3    H180938   4.407   1.053   3.725 -0.3667  1.3361  0.1898
19841TIP3    H280939   4.526   1.129   3.780  1.0262 -1.8234  1.6822
19842TIP3   OH280940   2.748   6.279  16.468 -0.2562  0.4529 -0.3308
19842TIP3    H180941   2.742   6.363  16.422  0.9257  1.3847  1.1458
19842TIP3    H280942   2.804   6.297  16.543  0.5231 -1.8369 -0.3224
19843TIP3   OH280943   6.180   0.530   3.179  0.1778  0.1252  0.4318
19843TIP3    H180944   6.167   0.519   3.273 -0.7999 -0.6153  0.2164
19843TIP3    H280945   6.100   0.573   3.149 -0.5759 -1.8567 -0.4574
19844TIP3   OH280946   0.195   5.365   1.786 -0.0125 -0.0949 -0.5491
19844TIP3    H180947   0.214   5.423   1.712 -0.3582 -0.4363 -0.9131
19844TIP3    H280948   0.249   5.288   1.770  0.0887 -0.0725 -0.3185
19845TIP3   OH280949   2.675   1.020   1.511 -0.3047 -0.7984  0.7069
19845TIP3    H180950   2.729   1.023   1.590 -0.6010 -0.1881  0.8920
19845TIP3    H280951   2.608   0.955   1.530 -0.1406 -0.9390  0.8047
19846TIP3   OH280952   4.569   5.543  10.947  0.4386 -0.0113  0.5349
19846TIP3    H180953   4.524   5.550  11.032 -0.6101  0.5162 -0.0562
19846TIP3    H280954   4.626   5.619  10.943  1.4706 -0.7313  1.3295
19847TIP3   OH280955   4.312   5.751   3.070 -0.1631  0.1022 -0.0612
19847TIP3    H180956   4.265   5.738   3.152 -0.0212 -1.3280 -0.1978
19847TIP3    H280957   4.403   5.766   3.096 -0.1013 -0.4418  0.0427
19848TIP3   OH280958   4.148   5.072  13.463  0.1978 -0.4441  0.1706
19848TIP3    H180959   4.100   5.150  13.438 -0.8002 -0.6190  1.4728
19848TIP3    H280960   4.099   5.036  13.538  1.3082 -1.6410  0.3539
19849TIP3   OH280961   1.915   5.663  13.629 -0.0849 -0.1157  0.1129
19849TIP3    H180962   1.903   5.592  13.693  0.8925 -3.3381 -3.1077
19849TIP3    H280963   1.996   5.706  13.657 -0.1057 -0.9424  1.4984
19850TIP3   OH280964   2.263   3.638   3.900  0.3055  0.3693  0.4207
19850TIP3    H180965   2.346   3.671   3.935 -0.4952  1.4472  1.3701
19850TIP3    H280966   2.207   3.628   3.978 -0.6292  0.1737 -0.2705
19851TIP3   OH280967   1.517   5.748   4.711  0.0052  0.5255 -0.0130
19851TIP3    H180968   1.554   5.684   4.650  1.4581  0.0831  1.2775
19851TIP3    H280969   1.432   5.712   4.735  0.3217 -0.3669 -0.1890
19852TIP3   OH280970   2.134   2.353   5.168  0.0191  0.5665 -0.0924
19852TIP3    H180971   2.168   2.265   5.184 -0.9926 -0.1454 -1.8193
19852TIP3    H280972   2.157   2.372   5.077 -0.8752  1.5845 -0.1148
19853TIP3   OH280973   3.078   1.025  16.333  0.4933  0.1514 -0.4465
19853TIP3    H180974   3.048   0.946  16.377 -2.0255  0.4024 -1.5975
19853TIP3    H280975   3.150   0.995  16.277 -0.0169 -1.2114 -0.4006
19854TIP3   OH280976   6.420   2.925  10.930 -0.3057  0.2653  0.4632
19854TIP3    H180977   6.515   2.915  10.936 -0.4605 -2.6784 -0.8185
19854TIP3    H280978   6.407   3.014  10.898  2.1738 -0.2162 -2.0762
19855TIP3   OH280979   0.806   4.817  14.407 -0.2488 -0.2094  0.2546
19855TIP3    H180980   0.901   4.820  14.419 -0.3482 -0.1328  1.0530
19855TIP3    H280981   0.790   4.873  14.331  0.2402  0.6759  0.7927
19856TIP3   OH280982   1.488   3.819  13.147  0.2902  0.1605  0.3016
19856TIP3    H180983   1.405   3.804  13.103 -0.2387  0.9344  1.0181
19856TIP3    H280984   1.551   3.767  13.098 -0.6836 -0.7325 -0.0234
19857TIP3   OH280985   0.209   3.387  13.144 -0.5935  0.3465  0.7225
19857TIP3    H180986   0.294   3.394  13.186  0.1998 -0.0230 -0.7759
19857TIP3    H280987   0.200   3.469  13.095 -0.8661  0.1521  0.4497
19858TIP3   OH280988   0.934   3.721   5.881  0.1948 -0.1576 -0.3000
19858TIP3    H180989   0.907   3.631   5.862  0.1829 -0.3565  0.6314
19858TIP3    H280990   0.998   3.713   5.951  0.2889  0.5554 -0.2933
19859TIP3   OH280991   5.349   0.517   3.956 -0.4729 -0.4032  0.4023
19859TIP3    H180992   5.401   0.539   3.879  0.7453 -2.2827  0.6405
19859TIP3    H280993   5.359   0.592   4.014  3.5991 -1.4698  1.2398
19860TIP3   OH280994   6.513   4.676  13.386  0.0321 -0.0865  0.7826
19860TIP3    H180995   6.431   4.723  13.375  0.7141  1.0596  0.5667
19860TIP3    H280996   6.564   4.728  13.448  0.8187 -0.4826  0.4867
19861TIP3   OH280997   4.087   2.166   3.120 -0.3604  0.1485 -0.2988
19861TIP3    H180998   4.016   2.102   3.132 -3.3402  3.4281  0.2710
19861TIP3    H280999   4.105   2.162   3.026  0.4073 -2.3882 -0.0969
19862TIP3   OH281000   1.067   6.583  13.979  0.2928 -0.4407  0.3527
19862TIP3    H181001   1.041   6.654  13.921  1.5203 -1.0861 -1.0216
19862TIP3    H281002   1.025   6.505  13.942  0.7190 -0.7816  0.5731
19863TIP3   OH281003   6.653   4.369   3.984 -0.7578 -0.3840  0.1943
19863TIP3    H181004   6.601   4.359   4.064 -0.4457 -2.5990  0.1290
19863TIP3    H281005   6.700   4.287   3.975  1.6922  1.0347 -0.5298
19864TIP3   OH281006   2.837   6.141   3.054 -0.4702 -0.2011 -0.2913
19864TIP3    H181007   2.743   6.157   3.062 -0.2564  0.6303  0.7000
19864TIP3    H281008   2.862   6.098   3.135 -0.1709 -1.3962 -0.9980
19865TIP3   OH281009   3.066   5.586   6.770 -0.3742  0.3060  0.1758
19865TIP3    H181010   3.036   5.512   6.719 -1.3910  2.1190 -1.9494
19865TIP3    H281011   3.138   5.623   6.719  0.6955  0.2659  1.6417
19866TIP3   OH281012   4.772   4.300  14.641  0.0055  0.1333 -0.0450
19866TIP3    H181013   4.678   4.314  14.625 -0.3752 -0.4910  1.5655
19866TIP3    H281014   4.806   4.387  14.661  0.1608  0.6698 -2.4569
19867TIP3   OH281015   4.149   5.665   3.290 -0.5521 -0.0592 -0.1118
19867TIP3    H181016   4.146   5.699   3.379 -0.2075 -2.4269  0.8204
19867TIP3    H281017   4.059   5.669   3.259 -1.0609 -1.3573  1.1659
19868TIP3   OH281018   4.814   6.580  12.506  0.1674  0.0509  0.3703
19868TIP3    H181019   4.896   6.608  12.546 -0.3631  0.4981  1.1770
19868TIP3    H281020   4.824   6.486  12.492 -0.9984 -0.9033  5.0636
19869TIP3   OH281021   4.073   3.532  16.072  0.4741 -0.3164 -0.3194
19869TIP3    H181022   4.060   3.484  16.154  1.0331 -0.8998 -0.5640
19869TIP3    H281023   4.165   3.556  16.073 -0.1289  2.0225  0.4563
19870TIP3   OH281024   4.061   2.682  14.244 -0.3349  0.1352 -0.4914
19870TIP3    H181025   4.009   2.616  14.290  0.1157  1.1949  1.5606
19870TIP3    H281026   3.997   2.729  14.190 -0.9322 -0.8139 -0.6290
19871TIP3   OH281027   4.834   3.456   0.204  0.0295  0.9600  0.3375
19871TIP3    H181028   4.904   3.513   0.237  0.4928 -0.1286  1.2652
19871TIP3    H281029   4.791   3.508   0.137  3.0866  0.8554 -1.8090
19872TIP3   OH281030   6.218   5.343   2.561 -0.1287 -0.5141  0.4065
19872TIP3    H181031   6.263   5.386   2.634  0.5994 -1.5414  0.5831
19872TIP3    H281032   6.147   5.402   2.538 -1.0417 -0.6885  2.6708
19873TIP3   OH281033   2.647   1.105  15.531 -0.1458  0.8785  0.7273
19873TIP3    H181034   2.657   1.065  15.444  1.4050  0.9654  0.8527
19873TIP3    H281035   2.567   1.157  15.524 -0.7561 -0.1705 -0.2359
19874TIP3   OH281036   6.720   1.194  14.259 -0.3858  0.4200 -0.2067
19874TIP3    H181037   6.811   1.176  14.238  0.0769  0.8025  1.3526
19874TIP3    H281038   6.712   1.170  14.352 -1.8964  0.2953 -0.3543
19875TIP3   OH281039   5.417   0.003   6.464 -0.5685  0.3583  0.1465
19875TIP3    H181040   5.394   0.024   6.554 -0.0412 -2.5539  1.0198
19875TIP3    H281041   5.493   0.059   6.445 -1.1743  1.5718  1.2093
19876TIP3   OH281042   3.237   4.471   5.264  0.2829  0.4676 -0.2962
19876TIP3    H181043   3.163   4.512   5.310  0.6097  0.2701  0.4079
19876TIP3    H281044   3.265   4.538   5.202 -0.8860  0.3129 -1.0129
19877TIP3   OH281045   0.744   1.327   4.354  0.4702  0.3046 -0.7170
19877TIP3    H181046   0.826   1.285   4.327  0.5997  0.2055 -0.1595
19877TIP3    H281047   0.744   1.322   4.449 -1.0630 -1.3790 -0.7586
19878TIP3   OH281048   6.000   4.299  12.619 -0.5146  0.1266 -0.2449
19878TIP3    H181049   5.945   4.298  12.541  0.2805  0.9011 -0.8363
19878TIP3    H281050   6.004   4.391  12.644  0.0737  0.0118  0.0945
19879TIP3   OH281051   5.060   1.595   5.101 -0.1164 -0.1078  0.4125
19879TIP3    H181052   4.981   1.545   5.121 -0.9777  1.6302  1.4311
19879TIP3    H281053   5.130   1.530   5.101 -1.1324 -1.2335  2.2662
19880TIP3   OH281054   2.943   4.415   4.679  0.1212  0.1174 -0.0482
19880TIP3    H181055   2.932   4.380   4.590  1.3294 -0.0509 -0.1357
19880TIP3    H281056   3.030   4.456   4.678 -1.0421  2.6739  0.1966
19881TIP3   OH281057   5.493   5.048   1.774  0.2361  0.0557 -0.2350
19881TIP3    H181058   5.524   5.063   1.684  0.0500 -0.9779 -0.4774
19881TIP3    H281059   5.534   4.965   1.800 -0.6197 -0.2366  0.2135
19882TIP3   OH281060   3.190   0.834   3.637 -0.0398  0.5241  0.8408
19882TIP3    H181061   3.109   0.784   3.644 -0.5199  1.1315 -0.1854
19882TIP3    H281062   3.254   0.772   3.601 -0.3174  0.3380  0.6715
19883TIP3   OH281063   6.487   1.464   3.223 -0.1278  0.0702  0.4786
19883TIP3    H181064   6.577   1.491   3.240 -0.5140 -0.0224  2.8263
19883TIP3    H281065   6.434   1.539   3.250 -0.8006 -0.1413 -0.2359
19884TIP3   OH281066   4.147   1.328  13.133  0.2261  0.4404 -0.2214
19884TIP3    H181067   4.059   1.335  13.096 -0.4447  0.6845  1.3676
19884TIP3    H281068   4.136   1.356  13.224  1.5759 -1.4444  0.5369
19885TIP3   OH281069   3.907   0.987   4.912 -0.2590  0.3616  0.3756
19885TIP3    H181070   3.908   0.966   4.818 -0.4795 -1.0881  0.6852
19885TIP3    H281071   3.815   0.981   4.936 -0.0401 -0.7379  0.9908
19886TIP3   OH281072   2.485   3.030  12.398  0.5137 -0.4763  0.4836
19886TIP3    H181073   2.580   3.036  12.388  0.3631 -1.4946 -1.7751
19886TIP3    H281074   2.473   2.984  12.481  2.0051 -0.6536  0.6178
19887TIP3   OH281075   5.260   2.921   4.030  0.1108 -0.0700  0.0187
19887TIP3    H181076   5.348   2.907   4.066  0.4752  0.2447 -0.7520
19887TIP3    H281077   5.274   2.945   3.939 -0.8236 -0.7958 -0.3227
19888TIP3   OH281078   3.063   0.050  13.939 -0.3747 -0.5719 -0.1317
19888TIP3    H181079   3.005   0.117  13.903 -0.9549 -1.2360 -0.4350
19888TIP3    H281080   3.097   0.089  14.020  0.4753  0.6912 -1.0685
19889TIP3   OH281081   0.220   4.902  13.547 -0.0039 -0.7940 -0.1502
19889TIP3    H181082   0.275   4.972  13.513 -0.1888 -0.7299 -0.3139
19889TIP3    H281083   0.205   4.844  13.473  1.8880 -2.1393  0.4739
19890TIP3   OH281084   3.928   4.307  14.383 -0.0400 -0.5444 -0.0538
19890TIP3    H181085   3.870   4.374  14.346  0.8462  0.2777  0.0164
19890TIP3    H281086   3.874   4.260  14.446 -1.3314 -1.3987 -1.7520
19891TIP3   OH281087   3.688   3.919  15.445 -0.2334  0.4821 -0.5466
19891TIP3    H181088   3.746   3.993  15.460 -0.5373  0.5764  0.1893
19891TIP3    H281089   3.608   3.958  15.409  0.4139  0.2787 -2.2455
19892TIP3   OH281090   3.782   4.347   4.804  0.1372 -0.2025 -0.0769
19892TIP3    H181091   3.847   4.280   4.825  0.8427  0.8094  0.9843
19892TIP3    H281092   3.830   4.412   4.752 -0.3773 -0.1643 -0.5143
19893TIP3   OH281093   5.121   1.370   1.871 -0.0406  0.2111 -0.1426
19893TIP3    H181094   5.056   1.335   1.933  0.9081  0.3518  0.9569
19893TIP3    H281095   5.094   1.460   1.857  0.2532  0.4475  0.7851
19894TIP3   OH281096   5.756   4.340   3.024  0.2125  0.5033 -0.4396
19894TIP3    H181097   5.734   4.407   2.960 -1.4024 -1.3580 -1.9059
19894TIP3    H281098   5.841   4.306   2.994  1.2572  2.1640  0.5741
19895TIP3   OH281099   6.592   0.478   3.125  0.5230 -0.1975  0.0288
19895TIP3    H181100   6.520   0.416   3.137 -0.4901  0.8864 -0.3405
19895TIP3    H281101   6.616   0.469   3.033  0.6998 -0.3770  0.0910
19896TIP3   OH281102   4.019   4.219   4.094 -0.2105  0.0877 -0.0701
19896TIP3    H181103   3.957   4.244   4.161 -0.8537  1.6210 -1.2182
19896TIP3    H281104   4.092   4.281   4.103  0.3236 -0.5554  0.0937
19897TIP3   OH281105   4.689   3.537   5.876 -0.0579 -0.7726 -0.1177
19897TIP3    H181106   4.666   3.503   5.962 -1.4029 -0.7257 -0.4534
19897TIP3    H281107   4.778   3.572   5.887  0.4374 -2.3005  0.8053
19898TIP3   OH281108   1.040   5.514  13.381  0.0120  0.3796 -0.1548
19898TIP3    H181109   0.962   5.523  13.326  0.5847 -0.3835 -1.1138
19898TIP3    H281110   1.071   5.604  13.393 -0.2612  0.5803 -0.8992
19899TIP3   OH281111   5.577   6.639  11.133 -0.3068  0.4989 -0.2868
19899TIP3    H181112   5.570   6.544  11.134 -1.9091  0.4470 -4.5989
19899TIP3    H281113   5.624   6.659  11.052 -0.1864  3.4020  0.4267
19900TIP3   OH281114   6.524   2.613  13.277  0.2507 -0.0364  0.0942
19900TIP3    H181115   6.581   2.607  13.353 -0.3115  0.3193  0.5475
19900TIP3    H281116   6.563   2.682  13.223  0.2807  0.1718  0.3790
19901TIP3   OH281117   1.389   1.882   0.054  0.1995  0.8231 -0.5264
19901TIP3    H181118   1.408   1.790   0.071  2.0171  1.5208  1.4802
19901TIP3    H281119   1.310   1.899   0.105 -0.6964  0.1653 -1.6639
19902TIP3   OH281120   0.254   3.284   0.492 -0.4081 -0.2760 -0.2132
19902TIP3    H181121   0.311   3.358   0.511 -1.3781  0.4893 -0.2515
19902TIP3    H281122   0.214   3.304   0.408 -0.9952 -0.6420 -0.0298
19903TIP3   OH281123   6.281   0.208  10.876 -0.0710  0.1203 -0.4047
19903TIP3    H181124   6.239   0.160  10.805  1.0390  0.5895 -1.3892
19903TIP3    H281125   6.295   0.142  10.944 -0.9707 -0.3670 -0.6887
19904TIP3   OH281126   1.753   6.232   4.465  0.1227 -0.2148  0.1437
19904TIP3    H181127   1.674   6.199   4.507  2.5911 -1.4622  4.0993
19904TIP3    H281128   1.773   6.168   4.397 -1.4047 -0.7091  0.1435
19905TIP3   OH281129   5.962   6.113  10.753 -0.4571  0.1508  0.2341
19905TIP3    H181130   6.007   6.110  10.669  1.7814  1.8771  1.3129
19905TIP3    H281131   5.875   6.150  10.733  0.5126  1.7362 -1.1503
19906TIP3   OH281132   3.488   2.792   2.309  0.0442 -0.6006 -0.1408
19906TIP3    H181133   3.509   2.881   2.283  0.5299 -0.6538  0.0590
19906TIP3    H281134   3.560   2.766   2.367 -1.0334 -0.4812  1.2597
19907TIP3   OH281135   4.378   3.233   4.996 -0.1181  0.3103 -0.5850
19907TIP3    H181136   4.469   3.207   4.981 -0.0880  0.5774 -0.8719
19907TIP3    H281137   4.344   3.253   4.908 -0.8893 -1.2391 -0.6569
19908TIP3   OH281138   3.924   1.317  16.715  0.1848  0.1645  0.4105
19908TIP3    H181139   3.864   1.326  16.641  0.5302 -1.1320 -0.0487
19908TIP3    H281140   3.891   1.241  16.763  1.1052 -0.1918  0.4915
19909TIP3   OH281141   1.749   5.509  16.231 -0.3177  0.3611  0.0766
19909TIP3    H181142   1.694   5.567  16.179 -0.4334  1.7538  1.7193
19909TIP3    H281143   1.706   5.424  16.225 -1.5944  1.0137 -0.2248
19910TIP3   OH281144   0.950   5.756  14.072 -0.0886  0.0760 -0.3360
19910TIP3    H181145   0.946   5.852  14.069 -1.5201  0.0268 -0.4559
19910TIP3    H281146   0.929   5.734  14.163 -0.1146 -0.1417 -0.3931
19911TIP3   OH281147   2.744   6.325  15.152  0.1603  0.8541 -0.6224
19911TIP3    H181148   2.698   6.303  15.071 -0.6099  1.4535 -0.3446
19911TIP3    H281149   2.829   6.280  15.143 -0.4213 -0.1610 -1.1717
19912TIP3   OH281150   2.360   5.004  15.647  0.1703  0.4920 -0.1896
19912TIP3    H181151   2.297   4.946  15.690  0.5720  0.7774  0.8055
19912TIP3    H281152   2.311   5.084  15.628 -0.1795  0.1194 -0.8554
19913TIP3   OH281153   5.607   2.198   2.430 -0.5784  0.1074 -0.2062
19913TIP3    H181154   5.555   2.181   2.351  0.9443 -0.8787 -1.0187
19913TIP3    H281155   5.698   2.190   2.401  0.0266  0.9859  1.3864
19914TIP3   OH281156   2.465   3.416   5.549  0.0701 -0.1908  0.5025
19914TIP3    H181157   2.540   3.414   5.608 -0.0991  0.9046  0.7702
19914TIP3    H281158   2.416   3.336   5.569  1.1491 -0.8991  0.3384
19915TIP3   OH281159   0.556   5.396   3.624 -0.4350  0.1606 -0.1673
19915TIP3    H181160   0.546   5.482   3.583 -2.0360  0.0913  0.0519
19915TIP3    H281161   0.541   5.333   3.554  0.7344  0.0397 -0.3267
19916TIP3   OH281162   4.915   5.598  13.059 -0.0947 -0.7584 -0.6637
19916TIP3    H181163   4.930   5.617  13.151 -0.2477 -1.4049 -0.4993
19916TIP3    H281164   5.001   5.573  13.026 -0.0331 -0.4929 -0.7046
19917TIP3   OH281165   0.977   1.196  14.022  0.0231 -0.5589  0.6288
19917TIP3    H181166   0.995   1.234  13.936 -1.6395  0.4489  0.7164
19917TIP3    H281167   1.063   1.168  14.054  0.3118 -3.5880 -2.5500
19918TIP3   OH281168   5.811   0.000   3.147  0.8334  0.1777 -0.7696
19918TIP3    H181169   5.855   0.076   3.109 -0.5299  0.5876 -1.5573
19918TIP3    H281170   5.810  -0.065   3.077  1.0458 -0.1731 -0.4451
19919TIP3   OH281171   0.202   6.093  16.256 -0.3631  0.0326 -0.0785
19919TIP3    H181172   0.271   6.151  16.289  1.2635 -0.8465 -1.8570
19919TIP3    H281173   0.153   6.067  16.334  0.5433  1.6338  1.0655
19920TIP3   OH281174   1.239   3.220   4.745 -0.4217  0.1195  0.1167
19920TIP3    H181175   1.263   3.206   4.653 -0.7247 -1.2013  0.2143
19920TIP3    H281176   1.293   3.157   4.793  0.5551  1.5962  0.9609
19921TIP3   OH281177   3.750   4.386  15.865  0.5039 -0.0781 -0.0907
19921TIP3    H181178   3.676   4.355  15.917 -0.3942 -0.6892 -1.7007
19921TIP3    H281179   3.719   4.383  15.774  1.7193  1.8443 -0.6065
19922TIP3   OH281180   6.080   1.041  14.489 -0.5065 -0.1293  0.0489
19922TIP3    H181181   6.015   0.973  14.509 -2.8768  1.2711 -2.6099
19922TIP3    H281182   6.142   0.997  14.431 -1.3060 -0.3983 -0.6185
19923TIP3   OH281183   0.555   2.285   0.737 -0.6019  0.4195  0.1829
19923TIP3    H181184   0.572   2.361   0.793 -1.4486  0.7922 -0.0506
19923TIP3    H281185   0.570   2.210   0.794  1.0084  0.7389  0.1977
19924TIP3   OH281186   6.463   2.067  13.286  0.1473 -0.6382 -0.0979
19924TIP3    H181187   6.511   2.108  13.358  1.1965 -2.9647  0.5689
19924TIP3    H281188   6.373   2.098  13.296  0.8442  1.2377  0.5551
19925TIP3   OH281189   5.715   0.938   3.705 -0.4435  0.1076  0.6775
19925TIP3    H181190   5.780   0.899   3.647  1.1294  2.1713  1.0204
19925TIP3    H281191   5.712   0.879   3.781 -1.2460 -1.6450 -0.6623
19926TIP3   OH281192   4.254   4.137   2.312  0.7552 -0.0167 -0.7805
19926TIP3    H181193   4.281   4.162   2.223 -1.1823  2.2903 -0.7931
19926TIP3    H281194   4.334   4.143   2.364  1.3640  1.4811 -1.8356
19927TIP3   OH281195   3.524   3.862  12.515  0.2113 -0.1057  0.3747
19927TIP3    H181196   3.602   3.872  12.459  1.3953  1.1367  2.2041
19927TIP3    H281197   3.558   3.833  12.599 -1.6604 -2.9804  0.2249
19928TIP3   OH281198   3.138   1.833   4.057  0.1639  0.2855 -0.1018
19928TIP3    H181199   3.231   1.816   4.069  0.0391  0.7582  1.6308
19928TIP3    H281200   3.135   1.898   3.987  1.1328  0.1988 -0.2322
19929TIP3   OH281201   3.632   2.652   0.204  0.2471  0.0621  0.0949
19929TIP3    H181202   3.596   2.613   0.125  3.6121 -0.0875 -1.4855
19929TIP3    H281203   3.644   2.744   0.183  0.8102  0.0977  0.5371
19930TIP3   OH281204   1.370   1.705   0.421 -0.8949  0.6717  0.3312
19930TIP3    H181205   1.435   1.717   0.352 -0.6830  1.9541  0.7382
19930TIP3    H281206   1.320   1.628   0.394  2.0993 -1.5947  1.0779
19931TIP3   OH281207   6.067   5.211  10.277  0.6277 -0.1696  0.4231
19931TIP3    H181208   5.979   5.223  10.313  1.1837 -1.2244  2.1761
19931TIP3    H281209   6.124   5.209  10.354  1.7880 -3.0287 -0.4605
19932TIP3   OH281210   2.201   3.884   0.067 -0.3231  0.4490 -0.2542
19932TIP3    H181211   2.269   3.862   0.131 -0.0512  0.4578 -0.5355
19932TIP3    H281212   2.187   3.802   0.019 -0.3422  0.5070 -0.3487
19933TIP3   OH281213   2.705   3.121   3.260  0.3634  0.3014  0.2013
19933TIP3    H181214   2.632   3.174   3.293 -1.5012 -2.6816  1.0951
19933TIP3    H281215   2.742   3.081   3.339  1.2775 -0.2969 -0.5249
19934TIP3   OH281216   3.877   2.963  13.864 -0.2969 -0.4371 -0.0902
19934TIP3    H181217   3.842   2.994  13.780 -0.0161 -1.4003 -0.5739
19934TIP3    H281218   3.896   2.871  13.849 -2.4955 -1.2186  1.7639
19935TIP3   OH281219   4.380   5.137   0.564 -0.5257 -0.1971 -0.2321
19935TIP3    H181220   4.352   5.129   0.473 -0.2948 -2.3483 -0.1558
19935TIP3    H281221   4.458   5.192   0.561 -2.2066  2.1750 -0.9713
19936TIP3   OH281222   4.963   1.196  13.575  0.2024 -0.1992  0.8472
19936TIP3    H181223   4.982   1.107  13.606 -1.3556 -0.2379  1.7830
19936TIP3    H281224   4.999   1.253  13.644  0.3889 -0.1352  0.6975
19937TIP3   OH281225   4.684   3.036   4.242  0.4767  0.0606 -0.4168
19937TIP3    H181226   4.611   2.983   4.272  0.5419  0.9677  1.4645
19937TIP3    H281227   4.649   3.090   4.171 -1.2631  1.9490  1.8032
19938TIP3   OH281228   1.761   2.264   2.444  0.1846 -0.3793 -0.1295
19938TIP3    H181229   1.729   2.197   2.384 -1.3450  0.6945 -0.5768
19938TIP3    H281230   1.688   2.326   2.451  1.2549  0.8034  0.9049
19939TIP3   OH281231   3.261   1.404   0.676  0.1173 -0.1029 -0.2790
19939TIP3    H181232   3.225   1.428   0.761 -0.6853 -0.3621 -0.5385
19939TIP3    H281233   3.199   1.340   0.641  1.3793 -1.3498 -0.2914
19940TIP3   OH281234   6.454   1.065  16.949  0.3971  0.0916 -0.4205
19940TIP3    H181235   6.365   1.034  16.934 -0.4720  2.0581  0.4029
19940TIP3    H281236   6.510   0.991  16.927 -1.5619 -2.0332  1.4496
19941TIP3   OH281237   4.371   4.351  14.091  0.0833 -0.1144 -0.4962
19941TIP3    H181238   4.324   4.341  14.009 -0.1783 -0.0341 -0.3571
19941TIP3    H281239   4.354   4.269  14.138 -1.4316  0.6410  0.3228
19942TIP3   OH281240   5.783   1.374  14.829 -0.4506 -0.2140  0.0852
19942TIP3    H181241   5.813   1.418  14.908  2.3468 -0.9114 -0.5242
19942TIP3    H281242   5.782   1.281  14.853  1.9894 -0.5880 -1.1321
19943TIP3   OH281243   5.980   3.049   4.323 -0.4407  0.0309 -0.2706
19943TIP3    H181244   5.988   2.959   4.290 -1.3342 -0.5466  1.0293
19943TIP3    H281245   5.950   3.100   4.248  2.2268 -0.3055 -1.6250
19944TIP3   OH281246   0.812   4.696  16.741 -0.0712 -0.4794  0.0742
19944TIP3    H181247   0.801   4.726  16.651  1.1149  1.4141  0.5345
19944TIP3    H281248   0.898   4.655  16.743 -0.0466 -0.4167  0.3651
19945TIP3   OH281249   1.691   4.150  13.881  0.5857  0.2559 -0.3338
19945TIP3    H181250   1.775   4.115  13.910  0.2695 -0.3689 -0.1528
19945TIP3    H281251   1.650   4.077  13.834 -0.2708  0.2449  0.4267
19946TIP3   OH281252   2.089   1.962  16.781  0.0584 -0.2554 -0.2040
19946TIP3    H181253   2.123   2.048  16.803  0.1713 -0.4869  0.5567
19946TIP3    H281254   1.995   1.969  16.796  0.2702 -0.7453  1.5533
19947TIP3   OH281255   4.898   3.576  15.089 -0.1628  0.3329 -0.1184
19947TIP3    H181256   4.991   3.574  15.108 -0.0976 -0.3987 -0.4840
19947TIP3    H281257   4.890   3.538  15.001 -0.8370  0.0369  0.0645
19948TIP3   OH281258   4.696   0.427   3.439 -0.0954  0.0850 -0.3476
19948TIP3    H181259   4.691   0.387   3.526 -3.0947 -1.0609 -0.9952
19948TIP3    H281260   4.671   0.357   3.379  1.1699  1.0842 -2.1133
19949TIP3   OH281261   1.818   0.772  16.230 -1.1876  0.6172  0.1293
19949TIP3    H181262   1.790   0.695  16.280  0.8125  0.1578  0.5948
19949TIP3    H281263   1.745   0.790  16.171 -2.5712 -0.3238  1.5194
19950TIP3   OH281264   3.640   0.373  10.212  0.0777  0.9459 -0.1329
19950TIP3    H181265   3.648   0.468  10.214  1.0665  0.8684  0.1035
19950TIP3    H281266   3.719   0.342  10.257 -0.1136  0.0092 -0.4375
19951TIP3   OH281267   4.844   0.590   1.405  0.0544 -0.6152  0.2646
19951TIP3    H181268   4.877   0.593   1.495  1.3959 -1.4303 -0.1871
19951TIP3    H281269   4.907   0.535   1.358 -0.8988 -0.5913 -1.0667
19952TIP3   OH281270   2.065   2.750   0.947 -0.1843 -0.2553 -0.4252
19952TIP3    H181271   2.154   2.719   0.932  0.1152  1.6320 -2.7860
19952TIP3    H281272   2.060   2.764   1.042  2.4404  0.7895 -0.4039
19953TIP3   OH281273   6.179   1.881   2.097 -0.0271  0.4192 -0.0349
19953TIP3    H181274   6.092   1.907   2.127 -1.1728 -1.1903 -1.8416
19953TIP3    H281275   6.219   1.838   2.172 -0.1789  2.4803  1.2839
19954TIP3   OH281276   4.777   2.935   0.542 -0.0641 -0.4206  0.1784
19954TIP3    H181277   4.828   2.954   0.463 -2.1252 -0.6368 -1.2569
19954TIP3    H281278   4.822   2.983   0.611 -0.8851  3.6797 -1.9895
19955TIP3   OH281279   5.568   3.160  15.686 -0.1928 -0.4003  0.1631
19955TIP3    H181280   5.571   3.248  15.649 -3.4862 -0.5153 -0.4782
19955TIP3    H281281   5.570   3.102  15.610 -0.1800 -0.8112  0.4755
19956TIP3   OH281282   5.520   6.261  16.665 -0.2786 -0.2825  0.0366
19956TIP3    H181283   5.576   6.312  16.724  0.3448  0.7449 -1.3986
19956TIP3    H281284   5.441   6.243  16.715  1.2469 -1.6032  2.0591
19957TIP3   OH281285   3.871   6.748  11.574 -0.1128 -0.1352  0.1692
19957TIP3    H181286   3.827   6.754  11.490 -0.6759 -1.8853  0.3220
19957TIP3    H281287   3.945   6.809  11.567 -1.5585  1.5866 -0.6825
19958TIP3   OH281288   5.074   2.165   2.707 -0.6388  0.0031  0.4253
19958TIP3    H181289   4.983   2.190   2.687 -0.4753  0.4202  0.1753
19958TIP3    H281290   5.112   2.244   2.746  0.4086  0.7765 -2.0472
19959TIP3   OH281291   2.209   2.346  13.067  0.4849 -0.6059  0.4251
19959TIP3    H181292   2.219   2.385  13.154  3.5328 -1.7018  0.6182
19959TIP3    H281293   2.166   2.262  13.083 -2.7426  0.9630  0.3819
19960TIP3   OH281294   6.127   1.358   5.619 -0.8542  0.5653  0.5268
19960TIP3    H181295   6.078   1.287   5.576 -2.1051  1.3815  0.5651
19960TIP3    H281296   6.166   1.408   5.547 -1.3227  0.7870  0.4250
19961TIP3   OH281297   1.363   4.788   4.217 -0.2051  0.3433 -0.3186
19961TIP3    H181298   1.357   4.877   4.252  0.3197  0.0011  0.6546
19961TIP3    H281299   1.272   4.761   4.203 -0.4795  0.0505  1.8961
19962TIP3   OH281300   0.485   6.132  12.001  0.0466 -0.1128 -0.4398
19962TIP3    H181301   0.398   6.094  12.015  0.1138 -0.9387 -2.1220
19962TIP3    H281302   0.546   6.059  12.013  0.1281 -0.7720 -4.3955
19963LIG     O181303   5.321   1.314  16.452  0.4649 -0.1003 -0.4316
19963LIG     O281304   5.364   1.538  16.545 -0.3745 -0.0253  0.3118
19963LIG     O381305   5.127   1.554  16.487 -0.1807 -0.4316  0.7730
19963LIG     O481306   5.646   1.329  16.471  0.1206 -0.6947 -0.8915
19963LIG     O581307   5.580   1.384  16.201 -0.2614  0.2446  0.1653
19963LIG     O681308   5.308   1.645  16.811  0.0994 -0.2500 -0.2031
19963LIG     O781309   5.340   1.819  16.566  0.0136 -0.1317  0.2061
19963LIG     O881310   5.097   1.921  16.463  0.0456  0.2667 -0.6279
19963LIG     O981311   5.476   1.210  16.682  0.4810 -0.1270 -0.5527
19963LIG    O1081312   5.210   1.410  16.152  0.0538 -0.0937 -0.3871
19963LIG    O1181313   4.999   1.786  16.239 -0.4544 -0.0126 -0.2567
19963LIG     C181314   5.409   1.402  16.536  0.3433  0.0990 -0.5238
19963LIG     C281315   5.536   1.421  16.447  0.4135 -0.1118 -0.4091
19963LIG     C381316   5.483   1.413  16.303 -0.3934  0.2949 -0.0261
19963LIG     C481317   5.377   1.297  16.321 -0.0226  0.4333  0.7635
19963LIG     C581318   5.225   1.546  16.594  0.2132 -0.2060 -0.0298
19963LIG     C681319   5.212   1.657  16.699  0.0967 -0.1719 -0.4691
19963LIG     C781320   5.213   1.795  16.628  0.3520  0.6073  0.2109
19963LIG     C881321   5.095   1.800  16.532 -0.3368 -0.1258  0.2709
19963LIG     C981322   5.114   1.689  16.428 -0.2586 -0.0565  0.1285
19963LIG    C1081323   5.447   1.348  16.675  0.3355 -0.7782 -0.2904
19963LIG    C1181324   5.266   1.293  16.203 -0.0964  0.9577  0.3414
19963LIG    C1281325   5.004   1.672  16.326  0.0552 -0.4668  0.4379
19963LIG     H181326   5.584   1.520  16.456 -0.3083  0.4084 -2.0145
19963LIG     H281327   5.433   1.506  16.272 -1.5183 -0.7978 -1.5688
19963LIG     H381328   5.424   1.198  16.326  0.2237  0.4552 -0.9587
19963LIG     H481329   5.200   1.451  16.646 -0.3631  0.4085  0.8408
19963LIG     H581330   5.107   1.651  16.732  0.5816  1.2753  1.4286
19963LIG     H681331   5.196   1.878  16.700 -0.9297 -0.8011  1.5792
19963LIG     H781332   4.999   1.790  16.586 -0.4849  1.4271  0.3233
19963LIG     H881333   5.204   1.715  16.369  0.4188 -1.2774  0.6059
19963LIG     H981334   5.533   1.409  16.711  0.8847 -0.3891 -2.2047
19963LIG    H1081335   5.368   1.366  16.751 -0.1117  0.6661 -1.0895
19963LIG    H1181336   5.310   1.237  16.117 -2.2406 -0.7792  0.3378
19963LIG    H1281337   5.180   1.236  16.243  2.5123 -0.4973  4.2182
19963LIG    H1381338   5.022   1.583  16.262 -1.0664  0.3988 -1.1053
19963LIG    H1481339   4.901   1.666  16.368 -0.3456  1.0482 -0.2846
19963LIG    H1581340   5.719   1.375  16.513 -0.5468 -1.7735  1.5335
19963LIG    H1681341   5.575   1.460  16.143 -0.7595 -0.3450 -0.5727
19963LIG    H1781342   5.395   1.659  16.774  0.4096 -0.4224  0.4586
19963LIG    H1881343   5.350   1.914  16.554  0.1148 -0.1381  0.2407
19963LIG    H1981344   5.045   1.906  16.384  1.7051  0.0284 -1.7072
19963LIG    H2081345   5.560   1.214  16.637  1.5511 -3.5695  0.9946
19963LIG    H2181346   5.132   1.385  16.103 -1.7748  0.5308  2.1004
19963LIG    H2281347   4.938   1.777  16.165  0.4704 -2.4277 -0.7662
   6.78697   6.78697  17.23950
